<?xml version="1.0" encoding="ISO-8859-1"?>
<modeling>
 <generator>
  <i name="program" type="string">vasp </i>
  <i name="version" type="string">6.2.0  </i>
  <i name="subversion" type="string">18Jan21 (build Jan 05 2022 15:41:44) complex                          parallel </i>
  <i name="platform" type="string">LinuxIFC </i>
  <i name="date" type="string">2025 05 07 </i>
  <i name="time" type="string">15:25:44 </i>
 </generator>
 <incar>
  <i type="string" name="SYSTEM">routine with relax: pwdword</i>
  <i type="string" name="PREC">Acc</i>
  <i type="int" name="IALGO">    38</i>
  <i type="string" name="ALGO">A</i>
  <i type="logical" name="ADDGRID"> T  </i>
  <i type="int" name="ICHARG">     2</i>
  <i type="int" name="NELM">   100</i>
  <i type="int" name="NELMIN">     6</i>
  <i name="EDIFF">      0.00000000</i>
  <i type="int" name="NSW">     0</i>
  <i type="int" name="ISIF">    -1</i>
  <i name="SYMPREC">      0.00010000</i>
  <i name="ENCUT">    600.00000000</i>
  <i type="logical" name="LREAL"> F  </i>
  <i type="int" name="ISMEAR">     0</i>
  <i name="SIGMA">      0.02000000</i>
  <i type="logical" name="LASPH"> T  </i>
  <i type="string" name="METAGGA">R2SCAN</i>
  <i type="logical" name="LMIXTAU"> F  </i>
 </incar>
 <primitive_cell>
  <structure name="primitive_cell" >
   <crystal>
    <varray name="basis" >
     <v>       6.94288120       0.00000000      -2.03260844 </v>
     <v>      -3.89712450       5.74595684      -2.03260844 </v>
     <v>       0.00000000       0.00000000       7.23430000 </v>
    </varray>
    <i name="volume">    288.60151644 </i>
    <varray name="rec_basis" >
     <v>       0.14403242       0.09768822       0.00000000 </v>
     <v>       0.00000000       0.17403542       0.00000000 </v>
     <v>       0.04046853       0.07634571       0.13823037 </v>
    </varray>
   </crystal>
   <varray name="positions" >
    <v>       0.17863000       0.67863000       0.85725000 </v>
    <v>       0.82137000       0.32137000       0.14275000 </v>
    <v>       0.67863000       0.82137000       0.50000000 </v>
    <v>       0.32137000       0.17863000       0.50000000 </v>
    <v>       0.25000000       0.25000000       0.00000000 </v>
    <v>       0.21561000       0.95527000       0.17088000 </v>
    <v>       0.75000000       0.75000000       0.00000000 </v>
    <v>       0.78439000       0.04473000       0.82912000 </v>
    <v>       0.95527000       0.78439000       0.73966000 </v>
    <v>       0.04473000       0.21561000       0.26034000 </v>
    <v>       0.28439000       0.45527000       0.73966000 </v>
    <v>       0.71561000       0.54473000       0.26034000 </v>
    <v>       0.54473000       0.28439000       0.82912000 </v>
    <v>       0.45527000       0.71561000       0.17088000 </v>
    <v>       0.00000000       0.50000000       0.50000000 </v>
    <v>       0.50000000       0.00000000       0.50000000 </v>
   </varray>
  </structure>
  <varray name="primitive_index" >
   <v type="int" >        1 </v>
   <v type="int" >        2 </v>
   <v type="int" >        3 </v>
   <v type="int" >        4 </v>
   <v type="int" >        5 </v>
   <v type="int" >        6 </v>
   <v type="int" >        7 </v>
   <v type="int" >        8 </v>
   <v type="int" >        9 </v>
   <v type="int" >       10 </v>
   <v type="int" >       11 </v>
   <v type="int" >       12 </v>
   <v type="int" >       13 </v>
   <v type="int" >       14 </v>
   <v type="int" >       15 </v>
   <v type="int" >       16 </v>
  </varray>
 </primitive_cell>
 <kpoints>
  <generation param="Gamma">
   <v type="int" name="divisions">       6        6        6 </v>
   <v name="usershift">      0.00000000       0.00000000       0.00000000 </v>
   <v name="genvec1">      0.16666667       0.00000000       0.00000000 </v>
   <v name="genvec2">      0.00000000       0.16666667       0.00000000 </v>
   <v name="genvec3">     -0.00000000       0.00000000       0.16666667 </v>
   <v name="shift">      0.00000000       0.00000000       0.00000000 </v>
  </generation>
  <varray name="kpointlist" >
   <v>       0.00000000       0.00000000       0.00000000 </v>
   <v>       0.16666667       0.00000000       0.00000000 </v>
   <v>       0.33333333       0.00000000       0.00000000 </v>
   <v>       0.50000000       0.00000000       0.00000000 </v>
   <v>       0.16666667       0.16666667       0.00000000 </v>
   <v>       0.33333333       0.16666667       0.00000000 </v>
   <v>       0.50000000       0.16666667       0.00000000 </v>
   <v>      -0.33333333       0.16666667       0.00000000 </v>
   <v>      -0.16666667       0.16666667       0.00000000 </v>
   <v>       0.33333333       0.33333333       0.00000000 </v>
   <v>       0.50000000       0.33333333       0.00000000 </v>
   <v>      -0.33333333       0.33333333       0.00000000 </v>
   <v>       0.50000000       0.50000000       0.00000000 </v>
   <v>       0.16666667       0.16666667       0.16666667 </v>
   <v>       0.33333333       0.16666667       0.16666667 </v>
   <v>      -0.16666667       0.16666667       0.16666667 </v>
   <v>       0.33333333       0.33333333       0.16666667 </v>
   <v>      -0.33333333       0.33333333       0.16666667 </v>
   <v>      -0.16666667       0.33333333       0.16666667 </v>
   <v>       0.50000000       0.50000000       0.16666667 </v>
   <v>      -0.33333333       0.50000000       0.16666667 </v>
   <v>      -0.16666667       0.50000000       0.16666667 </v>
   <v>      -0.33333333      -0.33333333       0.16666667 </v>
   <v>      -0.16666667      -0.33333333       0.16666667 </v>
   <v>      -0.16666667      -0.16666667       0.16666667 </v>
   <v>      -0.33333333       0.33333333       0.33333333 </v>
   <v>       0.50000000       0.50000000       0.33333333 </v>
   <v>      -0.33333333       0.50000000       0.33333333 </v>
   <v>      -0.33333333      -0.33333333       0.33333333 </v>
   <v>       0.50000000       0.50000000       0.50000000 </v>
  </varray>
  <varray name="weights" >
   <v>       0.00462963 </v>
   <v>       0.03703704 </v>
   <v>       0.03703704 </v>
   <v>       0.01851852 </v>
   <v>       0.03703704 </v>
   <v>       0.07407407 </v>
   <v>       0.07407407 </v>
   <v>       0.07407407 </v>
   <v>       0.01851852 </v>
   <v>       0.03703704 </v>
   <v>       0.07407407 </v>
   <v>       0.01851852 </v>
   <v>       0.00925926 </v>
   <v>       0.03703704 </v>
   <v>       0.03703704 </v>
   <v>       0.01851852 </v>
   <v>       0.01851852 </v>
   <v>       0.03703704 </v>
   <v>       0.03703704 </v>
   <v>       0.01851852 </v>
   <v>       0.07407407 </v>
   <v>       0.03703704 </v>
   <v>       0.03703704 </v>
   <v>       0.03703704 </v>
   <v>       0.00925926 </v>
   <v>       0.01851852 </v>
   <v>       0.01851852 </v>
   <v>       0.03703704 </v>
   <v>       0.00925926 </v>
   <v>       0.00462963 </v>
  </varray>
 </kpoints>
 <parameters>
  <separator name="general" >
   <i type="string" name="SYSTEM">routine with relax: pwdword</i>
   <i type="logical" name="LCOMPAT"> F  </i>
  </separator>
  <separator name="electronic" >
   <i type="string" name="PREC">acc</i>
   <i name="ENMAX">    600.00000000</i>
   <i name="ENAUG">    535.51400000</i>
   <i name="EDIFF">      0.00000000</i>
   <i type="int" name="IALGO">    58</i>
   <i type="int" name="IWAVPR">    10</i>
   <i type="int" name="NBANDS">    96</i>
   <i type="int" name="NBANDSLOW">    -1</i>
   <i type="int" name="NBANDSHIGH">    -1</i>
   <i name="NELECT">    160.00000000</i>
   <i type="int" name="TURBO">     0</i>
   <i type="int" name="IRESTART">     0</i>
   <i type="int" name="NREBOOT">     0</i>
   <i type="int" name="NMIN">     0</i>
   <i name="EREF">      0.00000000</i>
   <separator name="electronic smearing" >
    <i type="int" name="ISMEAR">     0</i>
    <i name="SIGMA">      0.02000000</i>
    <i name="KSPACING">      0.50000000</i>
    <i type="logical" name="KGAMMA"> T  </i>
    <i type="logical" name="KBLOWUP"> T  </i>
   </separator>
   <separator name="electronic projectors" >
    <i type="logical" name="LREAL"> F  </i>
    <v name="ROPT">      0.00000000      0.00000000      0.00000000</v>
    <i type="int" name="LMAXPAW">  -100</i>
    <i type="int" name="LMAXMIX">     2</i>
    <i type="logical" name="NLSPLINE"> F  </i>
   </separator>
   <separator name="electronic startup" >
    <i type="int" name="ISTART">     0</i>
    <i type="int" name="ICHARG">     2</i>
    <i type="int" name="INIWAV">     1</i>
   </separator>
   <separator name="electronic spin" >
    <i type="int" name="ISPIN">     1</i>
    <i type="logical" name="LNONCOLLINEAR"> F  </i>
    <v name="MAGMOM">      1.00000000      1.00000000      1.00000000      1.00000000      1.00000000      1.00000000      1.00000000      1.00000000      1.00000000      1.00000000      1.00000000      1.00000000      1.00000000      1.00000000      1.00000000      1.00000000</v>
    <i name="NUPDOWN">     -1.00000000</i>
    <i type="logical" name="LSORBIT"> F  </i>
    <v name="SAXIS">      0.00000000      0.00000000      1.00000000</v>
    <i type="logical" name="LSPIRAL"> F  </i>
    <v name="QSPIRAL">      0.00000000      0.00000000      0.00000000</v>
    <i type="logical" name="LZEROZ"> F  </i>
   </separator>
   <separator name="electronic exchange-correlation" >
    <i type="logical" name="LASPH"> T  </i>
    <i type="logical" name="LMETAGGA"> F  </i>
   </separator>
   <separator name="electronic convergence" >
    <i type="int" name="NELM">   100</i>
    <i type="int" name="NELMDL">    -5</i>
    <i type="int" name="NELMIN">     6</i>
    <i name="ENINI">    600.00000000</i>
    <separator name="electronic convergence detail" >
     <i type="logical" name="LDIAG"> T  </i>
     <i type="logical" name="LSUBROT"> F  </i>
     <i name="WEIMIN">      0.00000000</i>
     <i name="EBREAK">      0.00000000</i>
     <i name="DEPER">      0.30000000</i>
     <i type="int" name="NRMM">     4</i>
     <i name="TIME">      0.40000000</i>
    </separator>
   </separator>
   <separator name="electronic mixer" >
    <i name="AMIX">      0.40000000</i>
    <i name="BMIX">      1.00000000</i>
    <i name="AMIN">      0.10000000</i>
    <i name="AMIX_MAG">      1.60000000</i>
    <i name="BMIX_MAG">      1.00000000</i>
    <separator name="electronic mixer details" >
     <i type="int" name="IMIX">     4</i>
     <i type="logical" name="MIXFIRST"> F  </i>
     <i type="int" name="MAXMIX">   -45</i>
     <i name="WC">    100.00000000</i>
     <i type="int" name="INIMIX">     1</i>
     <i type="int" name="MIXPRE">     1</i>
     <i type="int" name="MREMOVE">     5</i>
    </separator>
   </separator>
   <separator name="electronic dipolcorrection" >
    <i type="logical" name="LDIPOL"> F  </i>
    <i type="logical" name="LMONO"> F  </i>
    <i type="int" name="IDIPOL">     0</i>
    <i name="EPSILON">      1.00000000</i>
    <v name="DIPOL">   -100.00000000   -100.00000000   -100.00000000</v>
    <i name="EFIELD">      0.00000000</i>
   </separator>
  </separator>
  <separator name="grids" >
   <i type="int" name="NGX">    60</i>
   <i type="int" name="NGY">    60</i>
   <i type="int" name="NGZ">    60</i>
   <i type="int" name="NGXF">   120</i>
   <i type="int" name="NGYF">   120</i>
   <i type="int" name="NGZF">   120</i>
   <i type="logical" name="ADDGRID"> T  </i>
  </separator>
  <separator name="ionic" >
   <i type="int" name="NSW">     0</i>
   <i type="int" name="IBRION">    -1</i>
   <i type="int" name="MDALGO">     0</i>
   <i type="int" name="ISIF">    -1</i>
   <i name="PSTRESS">      0.00000000</i>
   <i name="EDIFFG">      0.00000001</i>
   <i type="int" name="NFREE">     0</i>
   <i name="POTIM">      0.50000000</i>
   <i name="SMASS">     -3.00000000</i>
   <i name="SCALEE">      1.00000000</i>
  </separator>
  <separator name="ionic md" >
   <i name="TEBEG">      0.00010000</i>
   <i name="TEEND">      0.00010000</i>
   <i type="int" name="NBLOCK">     1</i>
   <i type="int" name="KBLOCK">     1</i>
   <i type="int" name="NPACO">   256</i>
   <i name="APACO">     16.00000000</i>
  </separator>
  <separator name="symmetry" >
   <i type="int" name="ISYM">     2</i>
   <i name="SYMPREC">      0.00010000</i>
  </separator>
  <separator name="dos" >
   <i type="int" name="LORBIT">     0</i>
   <v name="RWIGS">     -1.00000000     -1.00000000     -1.00000000</v>
   <i type="int" name="NEDOS">   301</i>
   <i name="EMIN">     10.00000000</i>
   <i name="EMAX">    -10.00000000</i>
   <i name="EFERMI">      0.00000000</i>
  </separator>
  <separator name="writing" >
   <i type="int" name="NWRITE">     2</i>
   <i type="logical" name="LWAVE"> T  </i>
   <i type="logical" name="LDOWNSAMPLE"> F  </i>
   <i type="logical" name="LCHARG"> T  </i>
   <i type="logical" name="LPARD"> F  </i>
   <i type="logical" name="LVTOT"> F  </i>
   <i type="logical" name="LVHAR"> F  </i>
   <i type="logical" name="LELF"> F  </i>
   <i type="logical" name="LOPTICS"> F  </i>
   <v name="STM">      0.00000000      0.00000000      0.00000000      0.00000000      0.00000000      0.00000000      0.00000000</v>
  </separator>
  <separator name="performance" >
   <i type="int" name="NPAR">     6</i>
   <i type="int" name="NSIM">     4</i>
   <i type="int" name="NBLK">    -1</i>
   <i type="logical" name="LPLANE"> T  </i>
   <i type="logical" name="LSCALAPACK"> T  </i>
   <i type="logical" name="LSCAAWARE"> F  </i>
   <i type="logical" name="LSCALU"> F  </i>
   <i type="logical" name="LASYNC"> F  </i>
   <i type="logical" name="LORBITALREAL"> F  </i>
  </separator>
  <separator name="miscellaneous" >
   <i type="int" name="IDIOT">     3</i>
   <i type="int" name="PHON_NSTRUCT">    -1</i>
   <i type="logical" name="LMUSIC"> F  </i>
   <v name="POMASS">     10.81100000     95.94000000     28.08500000</v>
   <v name="DARWINR">      0.00000000      0.00000000      0.00000000</v>
   <v name="DARWINV">      1.00000000      1.00000000      1.00000000</v>
   <i type="logical" name="LCORR"> T  </i>
  </separator>
  <i type="logical" name="GGA_COMPAT"> T  </i>
  <i type="logical" name="LBERRY"> F  </i>
  <i type="int" name="ICORELEVEL">     0</i>
  <i type="logical" name="LDAU"> F  </i>
  <i type="int" name="I_CONSTRAINED_M">     0</i>
  <separator name="electronic exchange-correlation" >
   <i type="string" name="GGA">--</i>
   <i type="int" name="VOSKOWN">     0</i>
   <i type="logical" name="LHFCALC"> F  </i>
   <i type="string" name="PRECFOCK"></i>
   <i type="logical" name="LSYMGRAD"> F  </i>
   <i type="logical" name="LHFONE"> F  </i>
   <i type="logical" name="LRHFCALC"> F  </i>
   <i type="logical" name="LTHOMAS"> F  </i>
   <i type="logical" name="LMODELHF"> F  </i>
   <i type="logical" name="LFOCKACE"> F  </i>
   <i name="ENCUT4O">     -1.00000000</i>
   <i type="int" name="EXXOEP">     0</i>
   <i type="int" name="FOURORBIT">     0</i>
   <i name="AEXX">      0.00000000</i>
   <i name="HFALPHA">      0.00000000</i>
   <i name="MCALPHA">      0.00000000</i>
   <i name="ALDAX">      1.00000000</i>
   <i name="AGGAX">      1.00000000</i>
   <i name="ALDAC">      1.00000000</i>
   <i name="AGGAC">      1.00000000</i>
   <i type="int" name="NKREDX">     1</i>
   <i type="int" name="NKREDY">     1</i>
   <i type="int" name="NKREDZ">     1</i>
   <i type="logical" name="SHIFTRED"> F  </i>
   <i type="logical" name="ODDONLY"> F  </i>
   <i type="logical" name="EVENONLY"> F  </i>
   <i type="int" name="LMAXFOCK">     0</i>
   <i type="int" name="NMAXFOCKAE">     0</i>
   <i type="logical" name="LFOCKAEDFT"> F  </i>
   <i name="HFSCREEN">      0.00000000</i>
   <i name="HFSCREENC">      0.00000000</i>
   <i type="int" name="NBANDSGWLOW">     0</i>
  </separator>
  <separator name="vdW DFT" >
   <i type="logical" name="LUSE_VDW"> F  </i>
   <i name="Zab_VDW">     -0.84910000</i>
   <i name="PARAM1">      0.12340000</i>
   <i name="PARAM2">      1.00000000</i>
   <i name="PARAM3">      0.00000000</i>
  </separator>
  <separator name="model GW" >
   <i type="int" name="MODEL_GW">     0</i>
   <i name="MODEL_EPS0">     10.82255687</i>
   <i name="MODEL_ALPHA">      1.00000000</i>
  </separator>
  <separator name="linear response parameters" >
   <i type="logical" name="LEPSILON"> F  </i>
   <i type="logical" name="LRPA"> F  </i>
   <i type="logical" name="LNABLA"> F  </i>
   <i type="logical" name="LVEL"> F  </i>
   <i type="int" name="KINTER">     0</i>
   <i name="CSHIFT">      0.10000000</i>
   <i name="OMEGAMAX">     -1.00000000</i>
   <i name="DEG_THRESHOLD">      0.00200000</i>
   <i name="RTIME">     -0.10000000</i>
   <i name="WPLASMAI">      0.00000000</i>
   <v name="DFIELD">      0.00000000      0.00000000      0.00000000</v>
   <v name="WPLASMA">      0.00000000      0.00000000      0.00000000      0.00000000      0.00000000      0.00000000      0.00000000      0.00000000      0.00000000</v>
  </separator>
  <separator name="orbital magnetization" >
   <i type="logical" name="NUCIND"> F  </i>
   <v name="MAGPOS">      0.00000000      0.00000000      0.00000000</v>
   <i type="logical" name="LNICSALL"> T  </i>
   <i type="logical" name="ORBITALMAG"> F  </i>
   <i type="logical" name="LMAGBLOCH"> F  </i>
   <i type="logical" name="LCHIMAG"> F  </i>
   <i type="logical" name="LGAUGE"> T  </i>
   <i type="int" name="MAGATOM">     0</i>
   <v name="MAGDIPOL">      0.00000000      0.00000000      0.00000000</v>
   <v name="AVECCONST">      0.00000000      0.00000000      0.00000000</v>
  </separator>
  <separator name="response functions" >
   <i type="logical" name="LFINITE_TEMPERATURE"> F  </i>
   <i type="logical" name="LADDER"> F  </i>
   <i type="logical" name="LRPAFORCE"> F  </i>
   <i type="logical" name="LFXC"> F  </i>
   <i type="logical" name="LHARTREE"> T  </i>
   <i type="int" name="IBSE">     0</i>
   <v type="int" name="KPOINT">    -1     0     0     0</v>
   <i type="logical" name="LTCTC"> F  </i>
   <i type="logical" name="LTCTE"> F  </i>
   <i type="logical" name="LTETE"> F  </i>
   <i type="logical" name="LTRIPLET"> F  </i>
   <i type="logical" name="LFXCEPS"> F  </i>
   <i type="logical" name="LFXHEG"> F  </i>
   <i type="int" name="NATURALO">     2</i>
   <i type="logical" name="LHOLEGF"> F  </i>
   <i type="logical" name="L2ORDER"> F  </i>
   <i type="logical" name="LDMP1"> F  </i>
   <i type="logical" name="LMP2LT"> F  </i>
   <i type="logical" name="LSMP2LT"> F  </i>
   <i type="logical" name="LGWLF"> F  </i>
   <i name="ENCUTGW">     -2.00000000</i>
   <i name="ENCUTGWSOFT">     -2.00000000</i>
   <i name="ENCUTLF">     -1.00000000</i>
   <i type="logical" name="LESF_SPLINES"> F  </i>
   <i type="int" name="LMAXMP2">    -1</i>
   <i name="SCISSOR">      0.00000000</i>
   <i type="int" name="NOMEGA">     0</i>
   <i type="int" name="NOMEGAR">     0</i>
   <i type="int" name="NBANDSGW">    -1</i>
   <i type="int" name="NBANDSO">    -1</i>
   <i type="int" name="NBANDSV">    -1</i>
   <i type="int" name="NELM">   100</i>
   <i type="int" name="NELMHF">     1</i>
   <i type="int" name="DIM">     3</i>
   <i type="int" name="IESPILON">     4</i>
   <i type="int" name="ANTIRES">     0</i>
   <i name="OMEGAMAX">    -30.00000000</i>
   <i name="OMEGAMIN">    -30.00000000</i>
   <i name="OMEGATL">   -200.00000000</i>
   <i type="int" name="OMEGAGRID">     0</i>
   <i name="CSHIFT">     -0.10000000</i>
   <i type="logical" name="LSELFENERGY"> F  </i>
   <i type="logical" name="LSPECTRAL"> F  </i>
   <i type="logical" name="LSPECTRALGW"> F  </i>
   <i type="logical" name="LSINGLES"> F  </i>
   <i type="logical" name="LFERMIGW"> F  </i>
   <i type="logical" name="ODDONLYGW"> F  </i>
   <i type="logical" name="EVENONLYGW"> F  </i>
   <i type="int" name="NKREDLFX">     1</i>
   <i type="int" name="NKREDLFY">     1</i>
   <i type="int" name="NKREDLFZ">     1</i>
   <i type="int" name="MAXMEM">  2800</i>
   <i type="int" name="TELESCOPE">     0</i>
   <i type="int" name="NTAUPAR">    -1</i>
   <i type="int" name="NOMEGAPAR">    -1</i>
   <i name="DAMP_NEWTON">      0.80000001</i>
   <i name="LAMBDA">      1.00000000</i>
  </separator>
  <separator name="External order field" >
   <i name="OFIELD_KAPPA">      0.00000000</i>
   <v name="OFIELD_K">      0.00000000      0.00000000      0.00000000</v>
   <i name="OFIELD_Q6_NEAR">      0.00000000</i>
   <i name="OFIELD_Q6_FAR">      0.00000000</i>
   <i name="OFIELD_A">      0.00000000</i>
  </separator>
 </parameters>
 <atominfo>
  <atoms>      16 </atoms>
  <types>       3 </types>
  <array name="atoms" >
   <dimension dim="1">ion</dimension>
   <field type="string">element</field>
   <field type="int">atomtype</field>
   <set>
    <rc><c>B </c><c>   1</c></rc>
    <rc><c>B </c><c>   1</c></rc>
    <rc><c>B </c><c>   1</c></rc>
    <rc><c>B </c><c>   1</c></rc>
    <rc><c>Mo</c><c>   2</c></rc>
    <rc><c>Mo</c><c>   2</c></rc>
    <rc><c>Mo</c><c>   2</c></rc>
    <rc><c>Mo</c><c>   2</c></rc>
    <rc><c>Mo</c><c>   2</c></rc>
    <rc><c>Mo</c><c>   2</c></rc>
    <rc><c>Mo</c><c>   2</c></rc>
    <rc><c>Mo</c><c>   2</c></rc>
    <rc><c>Mo</c><c>   2</c></rc>
    <rc><c>Mo</c><c>   2</c></rc>
    <rc><c>Si</c><c>   3</c></rc>
    <rc><c>Si</c><c>   3</c></rc>
   </set>
  </array>
  <array name="atomtypes" >
   <dimension dim="1">type</dimension>
   <field type="int">atomspertype</field>
   <field type="string">element</field>
   <field>mass</field>
   <field>valence</field>
   <field type="string">pseudopotential</field>
   <set>
    <rc><c>   4</c><c>B </c><c>     10.81100000</c><c>      3.00000000</c><c>  PAW_PBE B 06Sep2000                   </c></rc>
    <rc><c>  10</c><c>Mo</c><c>     95.94000000</c><c>     14.00000000</c><c>  PAW_PBE Mo_sv 02Feb2006               </c></rc>
    <rc><c>   2</c><c>Si</c><c>     28.08500000</c><c>      4.00000000</c><c>  PAW_PBE Si 05Jan2001                  </c></rc>
   </set>
  </array>
 </atominfo>
 <structure name="initialpos" >
  <crystal>
   <varray name="basis" >
    <v>       6.94288120       0.00000000      -2.03260844 </v>
    <v>      -3.89712450       5.74595684      -2.03260844 </v>
    <v>       0.00000000       0.00000000       7.23430000 </v>
   </varray>
   <i name="volume">    288.60151644 </i>
   <varray name="rec_basis" >
    <v>       0.14403242       0.09768822       0.00000000 </v>
    <v>       0.00000000       0.17403542       0.00000000 </v>
    <v>       0.04046853       0.07634571       0.13823037 </v>
   </varray>
  </crystal>
  <varray name="positions" >
   <v>       0.17863000       0.67863000       0.85725000 </v>
   <v>       0.82137000       0.32137000       0.14275000 </v>
   <v>       0.67863000       0.82137000       0.50000000 </v>
   <v>       0.32137000       0.17863000       0.50000000 </v>
   <v>       0.25000000       0.25000000       0.00000000 </v>
   <v>       0.21561000       0.95527000       0.17088000 </v>
   <v>       0.75000000       0.75000000       0.00000000 </v>
   <v>       0.78439000       0.04473000       0.82912000 </v>
   <v>       0.95527000       0.78439000       0.73966000 </v>
   <v>       0.04473000       0.21561000       0.26034000 </v>
   <v>       0.28439000       0.45527000       0.73966000 </v>
   <v>       0.71561000       0.54473000       0.26034000 </v>
   <v>       0.54473000       0.28439000       0.82912000 </v>
   <v>       0.45527000       0.71561000       0.17088000 </v>
   <v>       0.00000000       0.50000000       0.50000000 </v>
   <v>       0.50000000       0.00000000       0.50000000 </v>
  </varray>
 </structure>
 <calculation>
  <scstep>
   <time name="total">   24.21   24.66</time>
   <energy>
    <i name="alphaZ">    789.95602184 </i>
    <i name="ewald"> -12912.56228710 </i>
    <i name="hartreedc">  -5744.60506313 </i>
    <i name="XCdc">    780.47184875 </i>
    <i name="pawpsdc">  15195.10980530 </i>
    <i name="pawaedc"> -15141.88575711 </i>
    <i name="eentropy">     -0.00123916 </i>
    <i name="bandstr">   -273.55063156 </i>
    <i name="atom">  19113.63672979 </i>
    <i name="e_fr_energy">   1806.56942761 </i>
    <i name="e_wo_entrp">   1806.57066678 </i>
    <i name="e_0_energy">   1806.57004719 </i>
   </energy>
  </scstep>
  <scstep>
   <time name="total">   22.34   22.63</time>
   <energy>
    <i name="e_fr_energy">   -268.08478312 </i>
    <i name="e_wo_entrp">   -268.08219802 </i>
    <i name="e_0_energy">   -268.08349057 </i>
   </energy>
  </scstep>
  <scstep>
   <time name="total">   26.53   26.95</time>
   <energy>
    <i name="e_fr_energy">   -362.06885055 </i>
    <i name="e_wo_entrp">   -362.06740801 </i>
    <i name="e_0_energy">   -362.06812928 </i>
   </energy>
  </scstep>
  <scstep>
   <time name="total">   25.06   25.36</time>
   <energy>
    <i name="e_fr_energy">   -365.03284925 </i>
    <i name="e_wo_entrp">   -365.03072655 </i>
    <i name="e_0_energy">   -365.03178790 </i>
   </energy>
  </scstep>
  <scstep>
   <time name="total">   27.43   27.86</time>
   <energy>
    <i name="e_fr_energy">   -365.10997878 </i>
    <i name="e_wo_entrp">   -365.10784851 </i>
    <i name="e_0_energy">   -365.10891364 </i>
   </energy>
  </scstep>
  <scstep>
   <time name="total">   28.89   29.18</time>
   <energy>
    <i name="e_fr_energy">   -265.64814969 </i>
    <i name="e_wo_entrp">   -265.64439526 </i>
    <i name="e_0_energy">   -265.64627248 </i>
   </energy>
  </scstep>
  <scstep>
   <time name="total">   30.20   30.51</time>
   <energy>
    <i name="e_fr_energy">   -287.07636662 </i>
    <i name="e_wo_entrp">   -287.07268554 </i>
    <i name="e_0_energy">   -287.07452608 </i>
   </energy>
  </scstep>
  <scstep>
   <time name="total">   30.21   30.64</time>
   <energy>
    <i name="e_fr_energy">   -291.40554707 </i>
    <i name="e_wo_entrp">   -291.40321532 </i>
    <i name="e_0_energy">   -291.40438119 </i>
   </energy>
  </scstep>
  <scstep>
   <time name="total">   29.85   30.21</time>
   <energy>
    <i name="e_fr_energy">   -292.51522865 </i>
    <i name="e_wo_entrp">   -292.51335276 </i>
    <i name="e_0_energy">   -292.51429070 </i>
   </energy>
  </scstep>
  <scstep>
   <time name="total">   30.36   30.70</time>
   <energy>
    <i name="e_fr_energy">   -293.01029992 </i>
    <i name="e_wo_entrp">   -293.00796922 </i>
    <i name="e_0_energy">   -293.00913457 </i>
   </energy>
  </scstep>
  <scstep>
   <time name="total">   30.30   30.67</time>
   <energy>
    <i name="e_fr_energy">   -293.19807214 </i>
    <i name="e_wo_entrp">   -293.19501791 </i>
    <i name="e_0_energy">   -293.19654502 </i>
   </energy>
  </scstep>
  <scstep>
   <time name="total">   30.57   30.89</time>
   <energy>
    <i name="e_fr_energy">   -293.28301281 </i>
    <i name="e_wo_entrp">   -293.27945514 </i>
    <i name="e_0_energy">   -293.28123397 </i>
   </energy>
  </scstep>
  <scstep>
   <time name="total">   30.99   31.40</time>
   <energy>
    <i name="e_fr_energy">   -293.32627020 </i>
    <i name="e_wo_entrp">   -293.32265638 </i>
    <i name="e_0_energy">   -293.32446329 </i>
   </energy>
  </scstep>
  <scstep>
   <time name="total">   29.96   30.37</time>
   <energy>
    <i name="e_fr_energy">   -293.34672144 </i>
    <i name="e_wo_entrp">   -293.34325326 </i>
    <i name="e_0_energy">   -293.34498735 </i>
   </energy>
  </scstep>
  <scstep>
   <time name="total">   30.01   30.40</time>
   <energy>
    <i name="e_fr_energy">   -293.35766572 </i>
    <i name="e_wo_entrp">   -293.35421807 </i>
    <i name="e_0_energy">   -293.35594189 </i>
   </energy>
  </scstep>
  <scstep>
   <time name="total">   30.41   30.67</time>
   <energy>
    <i name="e_fr_energy">   -293.36223449 </i>
    <i name="e_wo_entrp">   -293.35879385 </i>
    <i name="e_0_energy">   -293.36051417 </i>
   </energy>
  </scstep>
  <scstep>
   <time name="total">   30.75   31.08</time>
   <energy>
    <i name="e_fr_energy">   -293.36444014 </i>
    <i name="e_wo_entrp">   -293.36093584 </i>
    <i name="e_0_energy">   -293.36268799 </i>
   </energy>
  </scstep>
  <scstep>
   <time name="total">   30.43   30.81</time>
   <energy>
    <i name="e_fr_energy">   -293.36546768 </i>
    <i name="e_wo_entrp">   -293.36193215 </i>
    <i name="e_0_energy">   -293.36369992 </i>
   </energy>
  </scstep>
  <scstep>
   <time name="total">   31.13   31.46</time>
   <energy>
    <i name="e_fr_energy">   -293.36599858 </i>
    <i name="e_wo_entrp">   -293.36241881 </i>
    <i name="e_0_energy">   -293.36420870 </i>
   </energy>
  </scstep>
  <scstep>
   <time name="total">   30.25   30.53</time>
   <energy>
    <i name="e_fr_energy">   -293.36625179 </i>
    <i name="e_wo_entrp">   -293.36266794 </i>
    <i name="e_0_energy">   -293.36445987 </i>
   </energy>
  </scstep>
  <scstep>
   <time name="total">   29.78   30.07</time>
   <energy>
    <i name="e_fr_energy">   -293.36636647 </i>
    <i name="e_wo_entrp">   -293.36277503 </i>
    <i name="e_0_energy">   -293.36457075 </i>
   </energy>
  </scstep>
  <scstep>
   <time name="total">   30.10   30.45</time>
   <energy>
    <i name="e_fr_energy">   -293.36642356 </i>
    <i name="e_wo_entrp">   -293.36283781 </i>
    <i name="e_0_energy">   -293.36463069 </i>
   </energy>
  </scstep>
  <scstep>
   <time name="total">   30.26   30.64</time>
   <energy>
    <i name="e_fr_energy">   -293.36645348 </i>
    <i name="e_wo_entrp">   -293.36286778 </i>
    <i name="e_0_energy">   -293.36466063 </i>
   </energy>
  </scstep>
  <scstep>
   <time name="total">   30.14   30.54</time>
   <energy>
    <i name="e_fr_energy">   -293.36646711 </i>
    <i name="e_wo_entrp">   -293.36288694 </i>
    <i name="e_0_energy">   -293.36467703 </i>
   </energy>
  </scstep>
  <scstep>
   <time name="total">   30.57   30.93</time>
   <energy>
    <i name="e_fr_energy">   -293.36647290 </i>
    <i name="e_wo_entrp">   -293.36289390 </i>
    <i name="e_0_energy">   -293.36468340 </i>
   </energy>
  </scstep>
  <scstep>
   <time name="total">   31.11   31.45</time>
   <energy>
    <i name="e_fr_energy">   -293.36647575 </i>
    <i name="e_wo_entrp">   -293.36289868 </i>
    <i name="e_0_energy">   -293.36468721 </i>
   </energy>
  </scstep>
  <scstep>
   <time name="total">   30.28   30.63</time>
   <energy>
    <i name="e_fr_energy">   -293.36647723 </i>
    <i name="e_wo_entrp">   -293.36290078 </i>
    <i name="e_0_energy">   -293.36468901 </i>
   </energy>
  </scstep>
  <scstep>
   <time name="total">   30.24   30.58</time>
   <energy>
    <i name="e_fr_energy">   -293.36647774 </i>
    <i name="e_wo_entrp">   -293.36290139 </i>
    <i name="e_0_energy">   -293.36468956 </i>
   </energy>
  </scstep>
  <scstep>
   <time name="total">   30.13   30.39</time>
   <energy>
    <i name="e_fr_energy">   -293.36647803 </i>
    <i name="e_wo_entrp">   -293.36290225 </i>
    <i name="e_0_energy">   -293.36469014 </i>
   </energy>
  </scstep>
  <scstep>
   <time name="total">   30.61   30.90</time>
   <energy>
    <i name="e_fr_energy">   -293.36647786 </i>
    <i name="e_wo_entrp">   -293.36290145 </i>
    <i name="e_0_energy">   -293.36468965 </i>
   </energy>
  </scstep>
  <scstep>
   <time name="total">   29.21   29.57</time>
   <energy>
    <i name="e_fr_energy">   -293.36647812 </i>
    <i name="e_wo_entrp">   -293.36290183 </i>
    <i name="e_0_energy">   -293.36468997 </i>
   </energy>
  </scstep>
  <scstep>
   <time name="total">   52.28   53.05</time>
   <energy>
    <i name="e_fr_energy">   -293.36647827 </i>
    <i name="e_wo_entrp">   -293.36290288 </i>
    <i name="e_0_energy">   -293.36469057 </i>
   </energy>
  </scstep>
  <scstep>
   <time name="total">   29.70   30.13</time>
   <energy>
    <i name="e_fr_energy">   -293.36647607 </i>
    <i name="e_wo_entrp">   -293.36289896 </i>
    <i name="e_0_energy">   -293.36468751 </i>
   </energy>
  </scstep>
  <scstep>
   <time name="total">   29.47   29.72</time>
   <energy>
    <i name="e_fr_energy">   -293.36647791 </i>
    <i name="e_wo_entrp">   -293.36290129 </i>
    <i name="e_0_energy">   -293.36468960 </i>
   </energy>
  </scstep>
  <scstep>
   <time name="total">   29.27   29.59</time>
   <energy>
    <i name="e_fr_energy">   -293.36647821 </i>
    <i name="e_wo_entrp">   -293.36290164 </i>
    <i name="e_0_energy">   -293.36468993 </i>
   </energy>
  </scstep>
  <scstep>
   <time name="total">   29.75   30.16</time>
   <energy>
    <i name="e_fr_energy">   -293.36647841 </i>
    <i name="e_wo_entrp">   -293.36290171 </i>
    <i name="e_0_energy">   -293.36469006 </i>
   </energy>
  </scstep>
  <scstep>
   <time name="total">   30.07   30.32</time>
   <energy>
    <i name="e_fr_energy">   -293.36647841 </i>
    <i name="e_wo_entrp">   -293.36290168 </i>
    <i name="e_0_energy">   -293.36469005 </i>
   </energy>
  </scstep>
  <scstep>
   <time name="total">   29.53   29.98</time>
   <energy>
    <i name="e_fr_energy">   -293.36647841 </i>
    <i name="e_wo_entrp">   -293.36290178 </i>
    <i name="e_0_energy">   -293.36469009 </i>
   </energy>
  </scstep>
  <scstep>
   <time name="total">   29.68   29.94</time>
   <energy>
    <i name="e_fr_energy">   -293.36647841 </i>
    <i name="e_wo_entrp">   -293.36290180 </i>
    <i name="e_0_energy">   -293.36469010 </i>
   </energy>
  </scstep>
  <scstep>
   <time name="total">   29.40   29.73</time>
   <energy>
    <i name="e_fr_energy">   -293.36647841 </i>
    <i name="e_wo_entrp">   -293.36290176 </i>
    <i name="e_0_energy">   -293.36469008 </i>
   </energy>
  </scstep>
  <scstep>
   <time name="total">   29.80   30.11</time>
   <energy>
    <i name="e_fr_energy">   -293.36647842 </i>
    <i name="e_wo_entrp">   -293.36290181 </i>
    <i name="e_0_energy">   -293.36469011 </i>
   </energy>
  </scstep>
  <scstep>
   <time name="total">   33.90   34.29</time>
   <energy>
    <i name="alphaZ">    789.95602184 </i>
    <i name="ewald"> -12912.56228710 </i>
    <i name="hartreedc">  -5552.28048174 </i>
    <i name="XCdc">    793.83028136 </i>
    <i name="pawpsdc">  18383.36283503 </i>
    <i name="pawaedc"> -18368.09309136 </i>
    <i name="eentropy">     -0.00357660 </i>
    <i name="bandstr">  -2541.21290963 </i>
    <i name="atom">  19113.63672979 </i>
    <i name="e_fr_energy">   -293.36647842 </i>
    <i name="e_wo_entrp">   -293.36290181 </i>
    <i name="e_0_energy">   -293.36469012 </i>
   </energy>
  </scstep>
  <structure>
   <crystal>
    <varray name="basis" >
     <v>       6.94288120       0.00000000      -2.03260844 </v>
     <v>      -3.89712450       5.74595684      -2.03260844 </v>
     <v>       0.00000000       0.00000000       7.23430000 </v>
    </varray>
    <i name="volume">    288.60151644 </i>
    <varray name="rec_basis" >
     <v>       0.14403242       0.09768822       0.00000000 </v>
     <v>       0.00000000       0.17403542       0.00000000 </v>
     <v>       0.04046853       0.07634571       0.13823037 </v>
    </varray>
   </crystal>
   <varray name="positions" >
    <v>       0.17863000       0.67863000       0.85725000 </v>
    <v>       0.82137000       0.32137000       0.14275000 </v>
    <v>       0.67863000       0.82137000       0.50000000 </v>
    <v>       0.32137000       0.17863000       0.50000000 </v>
    <v>       0.25000000       0.25000000       0.00000000 </v>
    <v>       0.21561000       0.95527000       0.17088000 </v>
    <v>       0.75000000       0.75000000       0.00000000 </v>
    <v>       0.78439000       0.04473000       0.82912000 </v>
    <v>       0.95527000       0.78439000       0.73966000 </v>
    <v>       0.04473000       0.21561000       0.26034000 </v>
    <v>       0.28439000       0.45527000       0.73966000 </v>
    <v>       0.71561000       0.54473000       0.26034000 </v>
    <v>       0.54473000       0.28439000       0.82912000 </v>
    <v>       0.45527000       0.71561000       0.17088000 </v>
    <v>       0.00000000       0.50000000       0.50000000 </v>
    <v>       0.50000000       0.00000000       0.50000000 </v>
   </varray>
  </structure>
  <varray name="forces" >
   <v>       0.00000000       0.00000000       0.00000000 </v>
   <v>       0.00000000       0.00000000       0.00000000 </v>
   <v>       0.00000000       0.00000000       0.00000000 </v>
   <v>       0.00000000       0.00000000       0.00000000 </v>
   <v>       0.00000000       0.00000000       0.00000000 </v>
   <v>       0.00000000       0.00000000       0.00000000 </v>
   <v>       0.00000000       0.00000000       0.00000000 </v>
   <v>       0.00000000       0.00000000       0.00000000 </v>
   <v>       0.00000000       0.00000000       0.00000000 </v>
   <v>       0.00000000       0.00000000       0.00000000 </v>
   <v>       0.00000000       0.00000000       0.00000000 </v>
   <v>       0.00000000       0.00000000       0.00000000 </v>
   <v>       0.00000000       0.00000000       0.00000000 </v>
   <v>       0.00000000       0.00000000       0.00000000 </v>
   <v>       0.00000000       0.00000000       0.00000000 </v>
   <v>       0.00000000       0.00000000       0.00000000 </v>
  </varray>
  <varray name="stress" >
   <v>       0.00000000       0.00000000       0.00000000 </v>
   <v>       0.00000000       0.00000000       0.00000000 </v>
   <v>       0.00000000       0.00000000       0.00000000 </v>
  </varray>
  <energy>
   <i name="e_fr_energy">   -293.36647842 </i>
   <i name="e_wo_entrp">   -293.36290181 </i>
   <i name="e_0_energy">   -293.36469012 </i>
  </energy>
  <time name="totalsc"> 1269.19 1284.24</time>
  <eigenvalues>
   <array>
    <dimension dim="1">band</dimension>
    <dimension dim="2">kpoint</dimension>
    <dimension dim="3">spin</dimension>
    <field>eigene</field>
    <field>occ</field>
    <set>
     <set comment="spin 1">
      <set comment="kpoint 1">
       <r>  -55.7631    1.0000 </r>
       <r>  -55.6664    1.0000 </r>
       <r>  -55.6226    1.0000 </r>
       <r>  -55.6221    1.0000 </r>
       <r>  -55.5963    1.0000 </r>
       <r>  -55.5959    1.0000 </r>
       <r>  -55.5531    1.0000 </r>
       <r>  -55.5266    1.0000 </r>
       <r>  -55.4947    1.0000 </r>
       <r>  -55.4252    1.0000 </r>
       <r>  -29.7066    1.0000 </r>
       <r>  -29.4806    1.0000 </r>
       <r>  -29.4650    1.0000 </r>
       <r>  -29.4650    1.0000 </r>
       <r>  -29.4394    1.0000 </r>
       <r>  -29.3880    1.0000 </r>
       <r>  -29.3830    1.0000 </r>
       <r>  -29.3829    1.0000 </r>
       <r>  -29.2857    1.0000 </r>
       <r>  -29.2281    1.0000 </r>
       <r>  -29.2278    1.0000 </r>
       <r>  -29.0821    1.0000 </r>
       <r>  -29.0074    1.0000 </r>
       <r>  -29.0072    1.0000 </r>
       <r>  -28.9783    1.0000 </r>
       <r>  -28.9316    1.0000 </r>
       <r>  -28.8819    1.0000 </r>
       <r>  -28.8818    1.0000 </r>
       <r>  -28.8269    1.0000 </r>
       <r>  -28.8266    1.0000 </r>
       <r>  -28.8240    1.0000 </r>
       <r>  -28.7481    1.0000 </r>
       <r>  -28.6467    1.0000 </r>
       <r>  -28.6005    1.0000 </r>
       <r>  -28.5261    1.0000 </r>
       <r>  -28.5260    1.0000 </r>
       <r>  -28.5236    1.0000 </r>
       <r>  -28.5236    1.0000 </r>
       <r>  -28.4975    1.0000 </r>
       <r>  -28.4266    1.0000 </r>
       <r>   -3.1567    1.0000 </r>
       <r>   -2.0922    1.0000 </r>
       <r>   -0.5546    1.0000 </r>
       <r>   -0.5541    1.0000 </r>
       <r>    0.1582    1.0000 </r>
       <r>    2.1355    1.0000 </r>
       <r>    2.1357    1.0000 </r>
       <r>    2.1832    1.0000 </r>
       <r>    2.2830    1.0000 </r>
       <r>    2.7541    1.0000 </r>
       <r>    3.2593    1.0000 </r>
       <r>    3.5043    1.0000 </r>
       <r>    3.5048    1.0000 </r>
       <r>    3.7360    1.0000 </r>
       <r>    3.9549    1.0000 </r>
       <r>    3.9679    1.0000 </r>
       <r>    3.9679    1.0000 </r>
       <r>    3.9900    1.0000 </r>
       <r>    4.3321    1.0000 </r>
       <r>    4.3321    1.0000 </r>
       <r>    4.4287    1.0000 </r>
       <r>    4.5128    1.0000 </r>
       <r>    4.5919    1.0000 </r>
       <r>    4.8303    1.0000 </r>
       <r>    4.8832    1.0000 </r>
       <r>    4.8835    1.0000 </r>
       <r>    4.9029    1.0000 </r>
       <r>    5.1586    1.0000 </r>
       <r>    5.1588    1.0000 </r>
       <r>    5.4992    1.0000 </r>
       <r>    5.8528    1.0000 </r>
       <r>    5.8531    1.0000 </r>
       <r>    5.9812    1.0000 </r>
       <r>    6.0314    1.0000 </r>
       <r>    6.0316    1.0000 </r>
       <r>    6.0423    1.0000 </r>
       <r>    6.0425    1.0000 </r>
       <r>    6.0603    1.0000 </r>
       <r>    6.7696    1.0000 </r>
       <r>    6.8649    1.0000 </r>
       <r>    6.9071    1.0000 </r>
       <r>    7.0276    0.9875 </r>
       <r>    7.3731    0.0000 </r>
       <r>    7.6983    0.0000 </r>
       <r>    7.6984    0.0000 </r>
       <r>    8.2705    0.0000 </r>
       <r>    8.2706    0.0000 </r>
       <r>    8.4378    0.0000 </r>
       <r>    8.5176    0.0000 </r>
       <r>    8.7575    0.0000 </r>
       <r>    8.8144    0.0000 </r>
       <r>    8.8146    0.0000 </r>
       <r>    8.9341    0.0000 </r>
       <r>    9.1551    0.0000 </r>
       <r>    9.4974    0.0000 </r>
       <r>    9.6340    0.0000 </r>
      </set>
      <set comment="kpoint 2">
       <r>  -55.7582    1.0000 </r>
       <r>  -55.6759    1.0000 </r>
       <r>  -55.6211    1.0000 </r>
       <r>  -55.6198    1.0000 </r>
       <r>  -55.5989    1.0000 </r>
       <r>  -55.5977    1.0000 </r>
       <r>  -55.5503    1.0000 </r>
       <r>  -55.5278    1.0000 </r>
       <r>  -55.4877    1.0000 </r>
       <r>  -55.4285    1.0000 </r>
       <r>  -29.7065    1.0000 </r>
       <r>  -29.5543    1.0000 </r>
       <r>  -29.4615    1.0000 </r>
       <r>  -29.4569    1.0000 </r>
       <r>  -29.3905    1.0000 </r>
       <r>  -29.3857    1.0000 </r>
       <r>  -29.3777    1.0000 </r>
       <r>  -29.3569    1.0000 </r>
       <r>  -29.2915    1.0000 </r>
       <r>  -29.2213    1.0000 </r>
       <r>  -29.2184    1.0000 </r>
       <r>  -29.0901    1.0000 </r>
       <r>  -29.0410    1.0000 </r>
       <r>  -29.0408    1.0000 </r>
       <r>  -28.9748    1.0000 </r>
       <r>  -28.9346    1.0000 </r>
       <r>  -28.8665    1.0000 </r>
       <r>  -28.8583    1.0000 </r>
       <r>  -28.8279    1.0000 </r>
       <r>  -28.8260    1.0000 </r>
       <r>  -28.7998    1.0000 </r>
       <r>  -28.7385    1.0000 </r>
       <r>  -28.6486    1.0000 </r>
       <r>  -28.6080    1.0000 </r>
       <r>  -28.5346    1.0000 </r>
       <r>  -28.5333    1.0000 </r>
       <r>  -28.5226    1.0000 </r>
       <r>  -28.5206    1.0000 </r>
       <r>  -28.4970    1.0000 </r>
       <r>  -28.4343    1.0000 </r>
       <r>   -3.0835    1.0000 </r>
       <r>   -2.1594    1.0000 </r>
       <r>   -0.6159    1.0000 </r>
       <r>   -0.6032    1.0000 </r>
       <r>    0.2855    1.0000 </r>
       <r>    1.7360    1.0000 </r>
       <r>    1.9664    1.0000 </r>
       <r>    2.4619    1.0000 </r>
       <r>    2.5307    1.0000 </r>
       <r>    2.8975    1.0000 </r>
       <r>    3.2849    1.0000 </r>
       <r>    3.4111    1.0000 </r>
       <r>    3.6162    1.0000 </r>
       <r>    3.7776    1.0000 </r>
       <r>    3.8394    1.0000 </r>
       <r>    3.9644    1.0000 </r>
       <r>    4.0112    1.0000 </r>
       <r>    4.0259    1.0000 </r>
       <r>    4.0460    1.0000 </r>
       <r>    4.3359    1.0000 </r>
       <r>    4.4444    1.0000 </r>
       <r>    4.4874    1.0000 </r>
       <r>    4.7151    1.0000 </r>
       <r>    4.8192    1.0000 </r>
       <r>    4.8386    1.0000 </r>
       <r>    4.8721    1.0000 </r>
       <r>    5.0147    1.0000 </r>
       <r>    5.0676    1.0000 </r>
       <r>    5.1330    1.0000 </r>
       <r>    5.3510    1.0000 </r>
       <r>    5.5208    1.0000 </r>
       <r>    5.8350    1.0000 </r>
       <r>    5.9927    1.0000 </r>
       <r>    5.9982    1.0000 </r>
       <r>    6.0968    1.0000 </r>
       <r>    6.1969    1.0000 </r>
       <r>    6.3358    1.0000 </r>
       <r>    6.5726    1.0000 </r>
       <r>    6.7096    1.0000 </r>
       <r>    6.9236    1.0000 </r>
       <r>    6.9798    1.0000 </r>
       <r>    7.0914    0.0114 </r>
       <r>    7.4554    0.0000 </r>
       <r>    7.6061    0.0000 </r>
       <r>    7.6226    0.0000 </r>
       <r>    8.1833    0.0000 </r>
       <r>    8.1948    0.0000 </r>
       <r>    8.3151    0.0000 </r>
       <r>    8.3834    0.0000 </r>
       <r>    8.5694    0.0000 </r>
       <r>    8.5896    0.0000 </r>
       <r>    8.7471    0.0000 </r>
       <r>    8.9159    0.0000 </r>
       <r>    9.2706    0.0000 </r>
       <r>    9.3725    0.0000 </r>
       <r>    9.6743    0.0000 </r>
      </set>
      <set comment="kpoint 3">
       <r>  -55.7439    1.0000 </r>
       <r>  -55.6978    1.0000 </r>
       <r>  -55.6174    1.0000 </r>
       <r>  -55.6144    1.0000 </r>
       <r>  -55.6050    1.0000 </r>
       <r>  -55.6021    1.0000 </r>
       <r>  -55.5441    1.0000 </r>
       <r>  -55.5316    1.0000 </r>
       <r>  -55.4714    1.0000 </r>
       <r>  -55.4382    1.0000 </r>
       <r>  -29.6999    1.0000 </r>
       <r>  -29.6270    1.0000 </r>
       <r>  -29.4494    1.0000 </r>
       <r>  -29.4370    1.0000 </r>
       <r>  -29.4067    1.0000 </r>
       <r>  -29.3944    1.0000 </r>
       <r>  -29.3575    1.0000 </r>
       <r>  -29.3085    1.0000 </r>
       <r>  -29.2642    1.0000 </r>
       <r>  -29.1977    1.0000 </r>
       <r>  -29.1878    1.0000 </r>
       <r>  -29.1236    1.0000 </r>
       <r>  -29.1002    1.0000 </r>
       <r>  -29.0940    1.0000 </r>
       <r>  -28.9662    1.0000 </r>
       <r>  -28.9430    1.0000 </r>
       <r>  -28.8523    1.0000 </r>
       <r>  -28.8382    1.0000 </r>
       <r>  -28.8247    1.0000 </r>
       <r>  -28.8221    1.0000 </r>
       <r>  -28.7420    1.0000 </r>
       <r>  -28.7102    1.0000 </r>
       <r>  -28.6563    1.0000 </r>
       <r>  -28.6352    1.0000 </r>
       <r>  -28.5456    1.0000 </r>
       <r>  -28.5377    1.0000 </r>
       <r>  -28.5323    1.0000 </r>
       <r>  -28.5229    1.0000 </r>
       <r>  -28.4893    1.0000 </r>
       <r>  -28.4532    1.0000 </r>
       <r>   -2.8839    1.0000 </r>
       <r>   -2.3481    1.0000 </r>
       <r>   -0.7099    1.0000 </r>
       <r>   -0.6957    1.0000 </r>
       <r>    0.5733    1.0000 </r>
       <r>    1.3042    1.0000 </r>
       <r>    1.9413    1.0000 </r>
       <r>    2.5514    1.0000 </r>
       <r>    2.8079    1.0000 </r>
       <r>    2.9561    1.0000 </r>
       <r>    3.1854    1.0000 </r>
       <r>    3.5284    1.0000 </r>
       <r>    3.6756    1.0000 </r>
       <r>    3.8112    1.0000 </r>
       <r>    3.8164    1.0000 </r>
       <r>    3.9301    1.0000 </r>
       <r>    3.9591    1.0000 </r>
       <r>    4.0942    1.0000 </r>
       <r>    4.1568    1.0000 </r>
       <r>    4.2748    1.0000 </r>
       <r>    4.3072    1.0000 </r>
       <r>    4.4784    1.0000 </r>
       <r>    4.4797    1.0000 </r>
       <r>    4.7291    1.0000 </r>
       <r>    4.8137    1.0000 </r>
       <r>    4.8208    1.0000 </r>
       <r>    4.9366    1.0000 </r>
       <r>    5.2216    1.0000 </r>
       <r>    5.2426    1.0000 </r>
       <r>    5.4320    1.0000 </r>
       <r>    5.5353    1.0000 </r>
       <r>    5.9205    1.0000 </r>
       <r>    5.9869    1.0000 </r>
       <r>    6.0494    1.0000 </r>
       <r>    6.1852    1.0000 </r>
       <r>    6.2673    1.0000 </r>
       <r>    6.4437    1.0000 </r>
       <r>    6.4449    1.0000 </r>
       <r>    6.9744    1.0000 </r>
       <r>    7.0328    0.9695 </r>
       <r>    7.1323    0.0000 </r>
       <r>    7.2632    0.0000 </r>
       <r>    7.4207    0.0000 </r>
       <r>    7.4898    0.0000 </r>
       <r>    7.7939    0.0000 </r>
       <r>    7.9590    0.0000 </r>
       <r>    8.0191    0.0000 </r>
       <r>    8.0533    0.0000 </r>
       <r>    8.1232    0.0000 </r>
       <r>    8.4253    0.0000 </r>
       <r>    8.5061    0.0000 </r>
       <r>    8.7372    0.0000 </r>
       <r>    8.8286    0.0000 </r>
       <r>    9.1435    0.0000 </r>
       <r>    9.3659    0.0000 </r>
       <r>    9.4400    0.0000 </r>
      </set>
      <set comment="kpoint 4">
       <r>  -55.7226    1.0000 </r>
       <r>  -55.7226    1.0000 </r>
       <r>  -55.6118    1.0000 </r>
       <r>  -55.6118    1.0000 </r>
       <r>  -55.6081    1.0000 </r>
       <r>  -55.6081    1.0000 </r>
       <r>  -55.5373    1.0000 </r>
       <r>  -55.5373    1.0000 </r>
       <r>  -55.4532    1.0000 </r>
       <r>  -55.4532    1.0000 </r>
       <r>  -29.6756    1.0000 </r>
       <r>  -29.6756    1.0000 </r>
       <r>  -29.4296    1.0000 </r>
       <r>  -29.4296    1.0000 </r>
       <r>  -29.4131    1.0000 </r>
       <r>  -29.4130    1.0000 </r>
       <r>  -29.3321    1.0000 </r>
       <r>  -29.3321    1.0000 </r>
       <r>  -29.1868    1.0000 </r>
       <r>  -29.1867    1.0000 </r>
       <r>  -29.1561    1.0000 </r>
       <r>  -29.1559    1.0000 </r>
       <r>  -29.1408    1.0000 </r>
       <r>  -29.1407    1.0000 </r>
       <r>  -28.9546    1.0000 </r>
       <r>  -28.9546    1.0000 </r>
       <r>  -28.8429    1.0000 </r>
       <r>  -28.8428    1.0000 </r>
       <r>  -28.8190    1.0000 </r>
       <r>  -28.8189    1.0000 </r>
       <r>  -28.6831    1.0000 </r>
       <r>  -28.6831    1.0000 </r>
       <r>  -28.6756    1.0000 </r>
       <r>  -28.6756    1.0000 </r>
       <r>  -28.5475    1.0000 </r>
       <r>  -28.5474    1.0000 </r>
       <r>  -28.5294    1.0000 </r>
       <r>  -28.5293    1.0000 </r>
       <r>  -28.4737    1.0000 </r>
       <r>  -28.4737    1.0000 </r>
       <r>   -2.6140    1.0000 </r>
       <r>   -2.6131    1.0000 </r>
       <r>   -0.7441    1.0000 </r>
       <r>   -0.7437    1.0000 </r>
       <r>    0.9191    1.0000 </r>
       <r>    0.9194    1.0000 </r>
       <r>    2.1840    1.0000 </r>
       <r>    2.1842    1.0000 </r>
       <r>    2.9609    1.0000 </r>
       <r>    2.9609    1.0000 </r>
       <r>    3.4187    1.0000 </r>
       <r>    3.4187    1.0000 </r>
       <r>    3.7942    1.0000 </r>
       <r>    3.7942    1.0000 </r>
       <r>    3.8296    1.0000 </r>
       <r>    3.8297    1.0000 </r>
       <r>    4.0598    1.0000 </r>
       <r>    4.0599    1.0000 </r>
       <r>    4.1125    1.0000 </r>
       <r>    4.1126    1.0000 </r>
       <r>    4.4207    1.0000 </r>
       <r>    4.4207    1.0000 </r>
       <r>    4.4976    1.0000 </r>
       <r>    4.4976    1.0000 </r>
       <r>    4.8640    1.0000 </r>
       <r>    4.8642    1.0000 </r>
       <r>    5.0686    1.0000 </r>
       <r>    5.0687    1.0000 </r>
       <r>    5.5046    1.0000 </r>
       <r>    5.5049    1.0000 </r>
       <r>    5.7487    1.0000 </r>
       <r>    5.7487    1.0000 </r>
       <r>    6.0575    1.0000 </r>
       <r>    6.0576    1.0000 </r>
       <r>    6.1665    1.0000 </r>
       <r>    6.1665    1.0000 </r>
       <r>    6.4534    1.0000 </r>
       <r>    6.4534    1.0000 </r>
       <r>    6.9388    1.0000 </r>
       <r>    6.9389    1.0000 </r>
       <r>    7.2028    0.0000 </r>
       <r>    7.2029    0.0000 </r>
       <r>    7.4863    0.0000 </r>
       <r>    7.4863    0.0000 </r>
       <r>    7.7767    0.0000 </r>
       <r>    7.7767    0.0000 </r>
       <r>    8.0829    0.0000 </r>
       <r>    8.0830    0.0000 </r>
       <r>    8.3701    0.0000 </r>
       <r>    8.3702    0.0000 </r>
       <r>    8.5075    0.0000 </r>
       <r>    8.5086    0.0000 </r>
       <r>    8.9872    0.0000 </r>
       <r>    8.9901    0.0000 </r>
       <r>    9.2687    0.0000 </r>
       <r>    9.3626    0.0000 </r>
      </set>
      <set comment="kpoint 5">
       <r>  -55.7463    1.0000 </r>
       <r>  -55.6943    1.0000 </r>
       <r>  -55.6223    1.0000 </r>
       <r>  -55.6160    1.0000 </r>
       <r>  -55.6040    1.0000 </r>
       <r>  -55.5957    1.0000 </r>
       <r>  -55.5486    1.0000 </r>
       <r>  -55.5290    1.0000 </r>
       <r>  -55.4710    1.0000 </r>
       <r>  -55.4389    1.0000 </r>
       <r>  -29.6826    1.0000 </r>
       <r>  -29.6365    1.0000 </r>
       <r>  -29.4635    1.0000 </r>
       <r>  -29.4376    1.0000 </r>
       <r>  -29.4060    1.0000 </r>
       <r>  -29.3835    1.0000 </r>
       <r>  -29.3706    1.0000 </r>
       <r>  -29.2972    1.0000 </r>
       <r>  -29.2709    1.0000 </r>
       <r>  -29.1992    1.0000 </r>
       <r>  -29.1819    1.0000 </r>
       <r>  -29.1150    1.0000 </r>
       <r>  -29.1077    1.0000 </r>
       <r>  -29.0917    1.0000 </r>
       <r>  -28.9697    1.0000 </r>
       <r>  -28.9397    1.0000 </r>
       <r>  -28.8572    1.0000 </r>
       <r>  -28.8380    1.0000 </r>
       <r>  -28.8292    1.0000 </r>
       <r>  -28.7914    1.0000 </r>
       <r>  -28.7834    1.0000 </r>
       <r>  -28.7211    1.0000 </r>
       <r>  -28.6507    1.0000 </r>
       <r>  -28.6179    1.0000 </r>
       <r>  -28.5510    1.0000 </r>
       <r>  -28.5364    1.0000 </r>
       <r>  -28.5317    1.0000 </r>
       <r>  -28.5151    1.0000 </r>
       <r>  -28.4951    1.0000 </r>
       <r>  -28.4473    1.0000 </r>
       <r>   -2.9594    1.0000 </r>
       <r>   -2.2746    1.0000 </r>
       <r>   -0.6778    1.0000 </r>
       <r>   -0.6744    1.0000 </r>
       <r>    0.4243    1.0000 </r>
       <r>    1.6110    1.0000 </r>
       <r>    2.1299    1.0000 </r>
       <r>    2.1852    1.0000 </r>
       <r>    2.8551    1.0000 </r>
       <r>    2.9547    1.0000 </r>
       <r>    3.0157    1.0000 </r>
       <r>    3.4273    1.0000 </r>
       <r>    3.7181    1.0000 </r>
       <r>    3.8317    1.0000 </r>
       <r>    3.8514    1.0000 </r>
       <r>    3.9433    1.0000 </r>
       <r>    3.9775    1.0000 </r>
       <r>    4.0828    1.0000 </r>
       <r>    4.1102    1.0000 </r>
       <r>    4.3093    1.0000 </r>
       <r>    4.4360    1.0000 </r>
       <r>    4.5485    1.0000 </r>
       <r>    4.5978    1.0000 </r>
       <r>    4.6409    1.0000 </r>
       <r>    4.7726    1.0000 </r>
       <r>    4.8353    1.0000 </r>
       <r>    4.9748    1.0000 </r>
       <r>    5.0701    1.0000 </r>
       <r>    5.2451    1.0000 </r>
       <r>    5.3676    1.0000 </r>
       <r>    5.3993    1.0000 </r>
       <r>    5.9670    1.0000 </r>
       <r>    5.9862    1.0000 </r>
       <r>    6.1302    1.0000 </r>
       <r>    6.1355    1.0000 </r>
       <r>    6.3355    1.0000 </r>
       <r>    6.3591    1.0000 </r>
       <r>    6.4973    1.0000 </r>
       <r>    6.7981    1.0000 </r>
       <r>    6.9833    1.0000 </r>
       <r>    7.1792    0.0000 </r>
       <r>    7.2372    0.0000 </r>
       <r>    7.4587    0.0000 </r>
       <r>    7.5176    0.0000 </r>
       <r>    7.7829    0.0000 </r>
       <r>    8.0326    0.0000 </r>
       <r>    8.0368    0.0000 </r>
       <r>    8.1437    0.0000 </r>
       <r>    8.1856    0.0000 </r>
       <r>    8.2890    0.0000 </r>
       <r>    8.6605    0.0000 </r>
       <r>    8.8687    0.0000 </r>
       <r>    8.9226    0.0000 </r>
       <r>    9.0480    0.0000 </r>
       <r>    9.5130    0.0000 </r>
       <r>    9.5326    0.0000 </r>
      </set>
      <set comment="kpoint 6">
       <r>  -55.7271    1.0000 </r>
       <r>  -55.7175    1.0000 </r>
       <r>  -55.6208    1.0000 </r>
       <r>  -55.6106    1.0000 </r>
       <r>  -55.6098    1.0000 </r>
       <r>  -55.5976    1.0000 </r>
       <r>  -55.5438    1.0000 </r>
       <r>  -55.5324    1.0000 </r>
       <r>  -55.4542    1.0000 </r>
       <r>  -55.4523    1.0000 </r>
       <r>  -29.6963    1.0000 </r>
       <r>  -29.6511    1.0000 </r>
       <r>  -29.4535    1.0000 </r>
       <r>  -29.4293    1.0000 </r>
       <r>  -29.4134    1.0000 </r>
       <r>  -29.3885    1.0000 </r>
       <r>  -29.3529    1.0000 </r>
       <r>  -29.3133    1.0000 </r>
       <r>  -29.1948    1.0000 </r>
       <r>  -29.1788    1.0000 </r>
       <r>  -29.1643    1.0000 </r>
       <r>  -29.1580    1.0000 </r>
       <r>  -29.1355    1.0000 </r>
       <r>  -29.1341    1.0000 </r>
       <r>  -28.9604    1.0000 </r>
       <r>  -28.9488    1.0000 </r>
       <r>  -28.8622    1.0000 </r>
       <r>  -28.8436    1.0000 </r>
       <r>  -28.8222    1.0000 </r>
       <r>  -28.7845    1.0000 </r>
       <r>  -28.7310    1.0000 </r>
       <r>  -28.6851    1.0000 </r>
       <r>  -28.6725    1.0000 </r>
       <r>  -28.6379    1.0000 </r>
       <r>  -28.5636    1.0000 </r>
       <r>  -28.5450    1.0000 </r>
       <r>  -28.5320    1.0000 </r>
       <r>  -28.5162    1.0000 </r>
       <r>  -28.4843    1.0000 </r>
       <r>  -28.4659    1.0000 </r>
       <r>   -2.7364    1.0000 </r>
       <r>   -2.4707    1.0000 </r>
       <r>   -0.7913    1.0000 </r>
       <r>   -0.7502    1.0000 </r>
       <r>    0.6896    1.0000 </r>
       <r>    1.3342    1.0000 </r>
       <r>    2.1437    1.0000 </r>
       <r>    2.2919    1.0000 </r>
       <r>    2.6112    1.0000 </r>
       <r>    3.0107    1.0000 </r>
       <r>    3.2623    1.0000 </r>
       <r>    3.5621    1.0000 </r>
       <r>    3.5732    1.0000 </r>
       <r>    3.7730    1.0000 </r>
       <r>    3.8696    1.0000 </r>
       <r>    3.9990    1.0000 </r>
       <r>    4.0470    1.0000 </r>
       <r>    4.1006    1.0000 </r>
       <r>    4.2008    1.0000 </r>
       <r>    4.3181    1.0000 </r>
       <r>    4.3422    1.0000 </r>
       <r>    4.3973    1.0000 </r>
       <r>    4.5508    1.0000 </r>
       <r>    4.6446    1.0000 </r>
       <r>    4.6763    1.0000 </r>
       <r>    4.8203    1.0000 </r>
       <r>    4.9366    1.0000 </r>
       <r>    5.1534    1.0000 </r>
       <r>    5.3727    1.0000 </r>
       <r>    5.4824    1.0000 </r>
       <r>    5.6341    1.0000 </r>
       <r>    5.8670    1.0000 </r>
       <r>    5.9942    1.0000 </r>
       <r>    6.0453    1.0000 </r>
       <r>    6.1577    1.0000 </r>
       <r>    6.2408    1.0000 </r>
       <r>    6.3003    1.0000 </r>
       <r>    6.6425    1.0000 </r>
       <r>    6.8664    1.0000 </r>
       <r>    7.0632    0.3904 </r>
       <r>    7.1335    0.0000 </r>
       <r>    7.3048    0.0000 </r>
       <r>    7.4283    0.0000 </r>
       <r>    7.5212    0.0000 </r>
       <r>    7.7678    0.0000 </r>
       <r>    7.8909    0.0000 </r>
       <r>    7.9614    0.0000 </r>
       <r>    8.2090    0.0000 </r>
       <r>    8.2965    0.0000 </r>
       <r>    8.4184    0.0000 </r>
       <r>    8.4480    0.0000 </r>
       <r>    8.6886    0.0000 </r>
       <r>    8.9658    0.0000 </r>
       <r>    9.1173    0.0000 </r>
       <r>    9.2794    0.0000 </r>
       <r>    9.5246    0.0000 </r>
      </set>
      <set comment="kpoint 7">
       <r>  -55.7388    1.0000 </r>
       <r>  -55.7039    1.0000 </r>
       <r>  -55.6170    1.0000 </r>
       <r>  -55.6163    1.0000 </r>
       <r>  -55.6034    1.0000 </r>
       <r>  -55.6023    1.0000 </r>
       <r>  -55.5379    1.0000 </r>
       <r>  -55.5376    1.0000 </r>
       <r>  -55.4720    1.0000 </r>
       <r>  -55.4367    1.0000 </r>
       <r>  -29.7290    1.0000 </r>
       <r>  -29.6052    1.0000 </r>
       <r>  -29.4580    1.0000 </r>
       <r>  -29.4249    1.0000 </r>
       <r>  -29.4053    1.0000 </r>
       <r>  -29.3900    1.0000 </r>
       <r>  -29.3377    1.0000 </r>
       <r>  -29.3309    1.0000 </r>
       <r>  -29.2514    1.0000 </r>
       <r>  -29.2140    1.0000 </r>
       <r>  -29.1772    1.0000 </r>
       <r>  -29.1338    1.0000 </r>
       <r>  -29.1063    1.0000 </r>
       <r>  -29.0840    1.0000 </r>
       <r>  -28.9594    1.0000 </r>
       <r>  -28.9496    1.0000 </r>
       <r>  -28.8743    1.0000 </r>
       <r>  -28.8437    1.0000 </r>
       <r>  -28.8255    1.0000 </r>
       <r>  -28.7927    1.0000 </r>
       <r>  -28.7202    1.0000 </r>
       <r>  -28.6824    1.0000 </r>
       <r>  -28.6681    1.0000 </r>
       <r>  -28.6550    1.0000 </r>
       <r>  -28.5658    1.0000 </r>
       <r>  -28.5417    1.0000 </r>
       <r>  -28.5242    1.0000 </r>
       <r>  -28.5204    1.0000 </r>
       <r>  -28.4823    1.0000 </r>
       <r>  -28.4662    1.0000 </r>
       <r>   -2.7106    1.0000 </r>
       <r>   -2.4789    1.0000 </r>
       <r>   -0.8431    1.0000 </r>
       <r>   -0.7638    1.0000 </r>
       <r>    0.9481    1.0000 </r>
       <r>    1.0379    1.0000 </r>
       <r>    1.9546    1.0000 </r>
       <r>    2.4509    1.0000 </r>
       <r>    2.8363    1.0000 </r>
       <r>    2.9443    1.0000 </r>
       <r>    3.3849    1.0000 </r>
       <r>    3.4411    1.0000 </r>
       <r>    3.6985    1.0000 </r>
       <r>    3.7344    1.0000 </r>
       <r>    3.8428    1.0000 </r>
       <r>    3.9384    1.0000 </r>
       <r>    4.0242    1.0000 </r>
       <r>    4.0768    1.0000 </r>
       <r>    4.1767    1.0000 </r>
       <r>    4.2074    1.0000 </r>
       <r>    4.2829    1.0000 </r>
       <r>    4.3380    1.0000 </r>
       <r>    4.5910    1.0000 </r>
       <r>    4.7058    1.0000 </r>
       <r>    4.8015    1.0000 </r>
       <r>    4.8399    1.0000 </r>
       <r>    5.0117    1.0000 </r>
       <r>    5.2200    1.0000 </r>
       <r>    5.2739    1.0000 </r>
       <r>    5.6243    1.0000 </r>
       <r>    5.7120    1.0000 </r>
       <r>    5.8127    1.0000 </r>
       <r>    5.9230    1.0000 </r>
       <r>    5.9949    1.0000 </r>
       <r>    6.1578    1.0000 </r>
       <r>    6.1675    1.0000 </r>
       <r>    6.3514    1.0000 </r>
       <r>    6.5854    1.0000 </r>
       <r>    6.8664    1.0000 </r>
       <r>    7.0034    1.0000 </r>
       <r>    7.0632    0.3896 </r>
       <r>    7.3262    0.0000 </r>
       <r>    7.5178    0.0000 </r>
       <r>    7.6590    0.0000 </r>
       <r>    7.7477    0.0000 </r>
       <r>    7.8556    0.0000 </r>
       <r>    8.1148    0.0000 </r>
       <r>    8.1446    0.0000 </r>
       <r>    8.2208    0.0000 </r>
       <r>    8.4804    0.0000 </r>
       <r>    8.5607    0.0000 </r>
       <r>    8.6388    0.0000 </r>
       <r>    8.8484    0.0000 </r>
       <r>    9.0969    0.0000 </r>
       <r>    9.1657    0.0000 </r>
       <r>    9.4671    0.0000 </r>
      </set>
      <set comment="kpoint 8">
       <r>  -55.7541    1.0000 </r>
       <r>  -55.6825    1.0000 </r>
       <r>  -55.6211    1.0000 </r>
       <r>  -55.6104    1.0000 </r>
       <r>  -55.6086    1.0000 </r>
       <r>  -55.5982    1.0000 </r>
       <r>  -55.5435    1.0000 </r>
       <r>  -55.5327    1.0000 </r>
       <r>  -55.4879    1.0000 </r>
       <r>  -55.4271    1.0000 </r>
       <r>  -29.7366    1.0000 </r>
       <r>  -29.5422    1.0000 </r>
       <r>  -29.4711    1.0000 </r>
       <r>  -29.4237    1.0000 </r>
       <r>  -29.3989    1.0000 </r>
       <r>  -29.3816    1.0000 </r>
       <r>  -29.3659    1.0000 </r>
       <r>  -29.3374    1.0000 </r>
       <r>  -29.3094    1.0000 </r>
       <r>  -29.2458    1.0000 </r>
       <r>  -29.2065    1.0000 </r>
       <r>  -29.0980    1.0000 </r>
       <r>  -29.0488    1.0000 </r>
       <r>  -29.0335    1.0000 </r>
       <r>  -28.9685    1.0000 </r>
       <r>  -28.9401    1.0000 </r>
       <r>  -28.8927    1.0000 </r>
       <r>  -28.8473    1.0000 </r>
       <r>  -28.8406    1.0000 </r>
       <r>  -28.8039    1.0000 </r>
       <r>  -28.7667    1.0000 </r>
       <r>  -28.7038    1.0000 </r>
       <r>  -28.6594    1.0000 </r>
       <r>  -28.6311    1.0000 </r>
       <r>  -28.5551    1.0000 </r>
       <r>  -28.5296    1.0000 </r>
       <r>  -28.5239    1.0000 </r>
       <r>  -28.5179    1.0000 </r>
       <r>  -28.4924    1.0000 </r>
       <r>  -28.4463    1.0000 </r>
       <r>   -2.9342    1.0000 </r>
       <r>   -2.2636    1.0000 </r>
       <r>   -0.7901    1.0000 </r>
       <r>   -0.7066    1.0000 </r>
       <r>    0.6365    1.0000 </r>
       <r>    1.3307    1.0000 </r>
       <r>    1.8462    1.0000 </r>
       <r>    2.4442    1.0000 </r>
       <r>    2.9618    1.0000 </r>
       <r>    3.0817    1.0000 </r>
       <r>    3.3075    1.0000 </r>
       <r>    3.3936    1.0000 </r>
       <r>    3.6546    1.0000 </r>
       <r>    3.6919    1.0000 </r>
       <r>    3.8947    1.0000 </r>
       <r>    3.9089    1.0000 </r>
       <r>    3.9317    1.0000 </r>
       <r>    4.0868    1.0000 </r>
       <r>    4.2124    1.0000 </r>
       <r>    4.2530    1.0000 </r>
       <r>    4.2543    1.0000 </r>
       <r>    4.4519    1.0000 </r>
       <r>    4.5248    1.0000 </r>
       <r>    4.6383    1.0000 </r>
       <r>    4.7819    1.0000 </r>
       <r>    4.9002    1.0000 </r>
       <r>    5.0588    1.0000 </r>
       <r>    5.1761    1.0000 </r>
       <r>    5.2766    1.0000 </r>
       <r>    5.5391    1.0000 </r>
       <r>    5.7046    1.0000 </r>
       <r>    5.7684    1.0000 </r>
       <r>    5.8518    1.0000 </r>
       <r>    5.9957    1.0000 </r>
       <r>    6.0567    1.0000 </r>
       <r>    6.1517    1.0000 </r>
       <r>    6.2019    1.0000 </r>
       <r>    6.6070    1.0000 </r>
       <r>    6.9925    1.0000 </r>
       <r>    7.2005    0.0000 </r>
       <r>    7.2653    0.0000 </r>
       <r>    7.4094    0.0000 </r>
       <r>    7.5170    0.0000 </r>
       <r>    7.6058    0.0000 </r>
       <r>    7.7573    0.0000 </r>
       <r>    7.7853    0.0000 </r>
       <r>    7.9665    0.0000 </r>
       <r>    8.1264    0.0000 </r>
       <r>    8.2635    0.0000 </r>
       <r>    8.4458    0.0000 </r>
       <r>    8.5223    0.0000 </r>
       <r>    8.5892    0.0000 </r>
       <r>    8.7926    0.0000 </r>
       <r>    9.1529    0.0000 </r>
       <r>    9.3732    0.0000 </r>
       <r>    9.6298    0.0000 </r>
      </set>
      <set comment="kpoint 9">
       <r>  -55.7609    1.0000 </r>
       <r>  -55.6710    1.0000 </r>
       <r>  -55.6227    1.0000 </r>
       <r>  -55.6149    1.0000 </r>
       <r>  -55.6036    1.0000 </r>
       <r>  -55.5963    1.0000 </r>
       <r>  -55.5483    1.0000 </r>
       <r>  -55.5291    1.0000 </r>
       <r>  -55.4947    1.0000 </r>
       <r>  -55.4244    1.0000 </r>
       <r>  -29.7261    1.0000 </r>
       <r>  -29.4788    1.0000 </r>
       <r>  -29.4776    1.0000 </r>
       <r>  -29.4429    1.0000 </r>
       <r>  -29.4207    1.0000 </r>
       <r>  -29.3841    1.0000 </r>
       <r>  -29.3802    1.0000 </r>
       <r>  -29.3801    1.0000 </r>
       <r>  -29.2962    1.0000 </r>
       <r>  -29.2456    1.0000 </r>
       <r>  -29.2203    1.0000 </r>
       <r>  -29.0858    1.0000 </r>
       <r>  -29.0131    1.0000 </r>
       <r>  -29.0054    1.0000 </r>
       <r>  -28.9738    1.0000 </r>
       <r>  -28.9346    1.0000 </r>
       <r>  -28.9016    1.0000 </r>
       <r>  -28.8725    1.0000 </r>
       <r>  -28.8353    1.0000 </r>
       <r>  -28.8154    1.0000 </r>
       <r>  -28.7965    1.0000 </r>
       <r>  -28.7298    1.0000 </r>
       <r>  -28.6519    1.0000 </r>
       <r>  -28.6130    1.0000 </r>
       <r>  -28.5401    1.0000 </r>
       <r>  -28.5247    1.0000 </r>
       <r>  -28.5218    1.0000 </r>
       <r>  -28.5214    1.0000 </r>
       <r>  -28.4958    1.0000 </r>
       <r>  -28.4336    1.0000 </r>
       <r>   -3.0735    1.0000 </r>
       <r>   -2.1510    1.0000 </r>
       <r>   -0.6762    1.0000 </r>
       <r>   -0.6252    1.0000 </r>
       <r>    0.3714    1.0000 </r>
       <r>    1.5990    1.0000 </r>
       <r>    2.0224    1.0000 </r>
       <r>    2.1742    1.0000 </r>
       <r>    2.8801    1.0000 </r>
       <r>    3.0307    1.0000 </r>
       <r>    3.2576    1.0000 </r>
       <r>    3.3362    1.0000 </r>
       <r>    3.6754    1.0000 </r>
       <r>    3.7904    1.0000 </r>
       <r>    3.8945    1.0000 </r>
       <r>    3.9386    1.0000 </r>
       <r>    3.9404    1.0000 </r>
       <r>    4.0697    1.0000 </r>
       <r>    4.1102    1.0000 </r>
       <r>    4.2995    1.0000 </r>
       <r>    4.3308    1.0000 </r>
       <r>    4.4679    1.0000 </r>
       <r>    4.6249    1.0000 </r>
       <r>    4.7125    1.0000 </r>
       <r>    4.8112    1.0000 </r>
       <r>    4.9397    1.0000 </r>
       <r>    5.0640    1.0000 </r>
       <r>    5.0667    1.0000 </r>
       <r>    5.2290    1.0000 </r>
       <r>    5.5057    1.0000 </r>
       <r>    5.5646    1.0000 </r>
       <r>    5.7968    1.0000 </r>
       <r>    5.9102    1.0000 </r>
       <r>    5.9549    1.0000 </r>
       <r>    6.0546    1.0000 </r>
       <r>    6.0915    1.0000 </r>
       <r>    6.1149    1.0000 </r>
       <r>    6.7596    1.0000 </r>
       <r>    6.8880    1.0000 </r>
       <r>    6.9221    1.0000 </r>
       <r>    7.1736    0.0000 </r>
       <r>    7.1789    0.0000 </r>
       <r>    7.4547    0.0000 </r>
       <r>    7.6452    0.0000 </r>
       <r>    7.7122    0.0000 </r>
       <r>    7.9093    0.0000 </r>
       <r>    8.1294    0.0000 </r>
       <r>    8.3307    0.0000 </r>
       <r>    8.3898    0.0000 </r>
       <r>    8.5084    0.0000 </r>
       <r>    8.6271    0.0000 </r>
       <r>    8.6639    0.0000 </r>
       <r>    8.8606    0.0000 </r>
       <r>    9.2647    0.0000 </r>
       <r>    9.4064    0.0000 </r>
       <r>    9.8219    0.0000 </r>
      </set>
      <set comment="kpoint 10">
       <r>  -55.7360    1.0000 </r>
       <r>  -55.7065    1.0000 </r>
       <r>  -55.6226    1.0000 </r>
       <r>  -55.6167    1.0000 </r>
       <r>  -55.6033    1.0000 </r>
       <r>  -55.5955    1.0000 </r>
       <r>  -55.5420    1.0000 </r>
       <r>  -55.5350    1.0000 </r>
       <r>  -55.4723    1.0000 </r>
       <r>  -55.4360    1.0000 </r>
       <r>  -29.7418    1.0000 </r>
       <r>  -29.5920    1.0000 </r>
       <r>  -29.4684    1.0000 </r>
       <r>  -29.4325    1.0000 </r>
       <r>  -29.3926    1.0000 </r>
       <r>  -29.3794    1.0000 </r>
       <r>  -29.3453    1.0000 </r>
       <r>  -29.3275    1.0000 </r>
       <r>  -29.2446    1.0000 </r>
       <r>  -29.2225    1.0000 </r>
       <r>  -29.1702    1.0000 </r>
       <r>  -29.1384    1.0000 </r>
       <r>  -29.1104    1.0000 </r>
       <r>  -29.0780    1.0000 </r>
       <r>  -28.9561    1.0000 </r>
       <r>  -28.9528    1.0000 </r>
       <r>  -28.8886    1.0000 </r>
       <r>  -28.8477    1.0000 </r>
       <r>  -28.8224    1.0000 </r>
       <r>  -28.7671    1.0000 </r>
       <r>  -28.7196    1.0000 </r>
       <r>  -28.7036    1.0000 </r>
       <r>  -28.6631    1.0000 </r>
       <r>  -28.6305    1.0000 </r>
       <r>  -28.5918    1.0000 </r>
       <r>  -28.5428    1.0000 </r>
       <r>  -28.5222    1.0000 </r>
       <r>  -28.5131    1.0000 </r>
       <r>  -28.4795    1.0000 </r>
       <r>  -28.4744    1.0000 </r>
       <r>   -2.6076    1.0000 </r>
       <r>   -2.5380    1.0000 </r>
       <r>   -0.9494    1.0000 </r>
       <r>   -0.8013    1.0000 </r>
       <r>    0.8932    1.0000 </r>
       <r>    1.3423    1.0000 </r>
       <r>    1.9884    1.0000 </r>
       <r>    2.4548    1.0000 </r>
       <r>    2.4644    1.0000 </r>
       <r>    3.0476    1.0000 </r>
       <r>    3.3886    1.0000 </r>
       <r>    3.4963    1.0000 </r>
       <r>    3.5063    1.0000 </r>
       <r>    3.7108    1.0000 </r>
       <r>    3.8488    1.0000 </r>
       <r>    4.0067    1.0000 </r>
       <r>    4.0844    1.0000 </r>
       <r>    4.1264    1.0000 </r>
       <r>    4.2074    1.0000 </r>
       <r>    4.2313    1.0000 </r>
       <r>    4.2620    1.0000 </r>
       <r>    4.5506    1.0000 </r>
       <r>    4.5585    1.0000 </r>
       <r>    4.5969    1.0000 </r>
       <r>    4.7495    1.0000 </r>
       <r>    4.8726    1.0000 </r>
       <r>    4.8804    1.0000 </r>
       <r>    5.2957    1.0000 </r>
       <r>    5.4287    1.0000 </r>
       <r>    5.4416    1.0000 </r>
       <r>    5.8168    1.0000 </r>
       <r>    5.8340    1.0000 </r>
       <r>    5.8734    1.0000 </r>
       <r>    6.0611    1.0000 </r>
       <r>    6.1421    1.0000 </r>
       <r>    6.1824    1.0000 </r>
       <r>    6.2163    1.0000 </r>
       <r>    6.5356    1.0000 </r>
       <r>    6.7586    1.0000 </r>
       <r>    6.8952    1.0000 </r>
       <r>    7.1712    0.0000 </r>
       <r>    7.4452    0.0000 </r>
       <r>    7.4495    0.0000 </r>
       <r>    7.7669    0.0000 </r>
       <r>    7.7870    0.0000 </r>
       <r>    7.8426    0.0000 </r>
       <r>    8.1108    0.0000 </r>
       <r>    8.2009    0.0000 </r>
       <r>    8.3142    0.0000 </r>
       <r>    8.6322    0.0000 </r>
       <r>    8.6908    0.0000 </r>
       <r>    8.7764    0.0000 </r>
       <r>    8.8574    0.0000 </r>
       <r>    8.9313    0.0000 </r>
       <r>    9.2727    0.0000 </r>
       <r>    9.4158    0.0000 </r>
      </set>
      <set comment="kpoint 11">
       <r>  -55.7496    1.0000 </r>
       <r>  -55.6877    1.0000 </r>
       <r>  -55.6217    1.0000 </r>
       <r>  -55.6206    1.0000 </r>
       <r>  -55.5984    1.0000 </r>
       <r>  -55.5970    1.0000 </r>
       <r>  -55.5388    1.0000 </r>
       <r>  -55.5385    1.0000 </r>
       <r>  -55.4880    1.0000 </r>
       <r>  -55.4257    1.0000 </r>
       <r>  -29.7618    1.0000 </r>
       <r>  -29.5265    1.0000 </r>
       <r>  -29.4852    1.0000 </r>
       <r>  -29.4078    1.0000 </r>
       <r>  -29.3904    1.0000 </r>
       <r>  -29.3754    1.0000 </r>
       <r>  -29.3560    1.0000 </r>
       <r>  -29.3320    1.0000 </r>
       <r>  -29.3096    1.0000 </r>
       <r>  -29.2720    1.0000 </r>
       <r>  -29.1929    1.0000 </r>
       <r>  -29.1054    1.0000 </r>
       <r>  -29.0560    1.0000 </r>
       <r>  -29.0266    1.0000 </r>
       <r>  -28.9630    1.0000 </r>
       <r>  -28.9455    1.0000 </r>
       <r>  -28.9153    1.0000 </r>
       <r>  -28.8497    1.0000 </r>
       <r>  -28.8383    1.0000 </r>
       <r>  -28.7728    1.0000 </r>
       <r>  -28.7506    1.0000 </r>
       <r>  -28.6787    1.0000 </r>
       <r>  -28.6546    1.0000 </r>
       <r>  -28.6465    1.0000 </r>
       <r>  -28.5962    1.0000 </r>
       <r>  -28.5319    1.0000 </r>
       <r>  -28.5155    1.0000 </r>
       <r>  -28.5143    1.0000 </r>
       <r>  -28.4890    1.0000 </r>
       <r>  -28.4597    1.0000 </r>
       <r>   -2.7523    1.0000 </r>
       <r>   -2.3573    1.0000 </r>
       <r>   -1.0183    1.0000 </r>
       <r>   -0.8092    1.0000 </r>
       <r>    1.0115    1.0000 </r>
       <r>    1.2647    1.0000 </r>
       <r>    1.7704    1.0000 </r>
       <r>    2.6714    1.0000 </r>
       <r>    2.7357    1.0000 </r>
       <r>    2.8823    1.0000 </r>
       <r>    3.2683    1.0000 </r>
       <r>    3.4860    1.0000 </r>
       <r>    3.7116    1.0000 </r>
       <r>    3.7500    1.0000 </r>
       <r>    3.8656    1.0000 </r>
       <r>    3.8913    1.0000 </r>
       <r>    3.9889    1.0000 </r>
       <r>    4.0465    1.0000 </r>
       <r>    4.1461    1.0000 </r>
       <r>    4.1853    1.0000 </r>
       <r>    4.3282    1.0000 </r>
       <r>    4.4576    1.0000 </r>
       <r>    4.5383    1.0000 </r>
       <r>    4.6269    1.0000 </r>
       <r>    4.6850    1.0000 </r>
       <r>    4.9352    1.0000 </r>
       <r>    5.1612    1.0000 </r>
       <r>    5.2101    1.0000 </r>
       <r>    5.4509    1.0000 </r>
       <r>    5.6160    1.0000 </r>
       <r>    5.6970    1.0000 </r>
       <r>    5.7653    1.0000 </r>
       <r>    5.9055    1.0000 </r>
       <r>    5.9715    1.0000 </r>
       <r>    6.0432    1.0000 </r>
       <r>    6.1453    1.0000 </r>
       <r>    6.2013    1.0000 </r>
       <r>    6.3335    1.0000 </r>
       <r>    6.7093    1.0000 </r>
       <r>    7.2545    0.0000 </r>
       <r>    7.3529    0.0000 </r>
       <r>    7.5500    0.0000 </r>
       <r>    7.6247    0.0000 </r>
       <r>    7.7421    0.0000 </r>
       <r>    7.8990    0.0000 </r>
       <r>    7.9557    0.0000 </r>
       <r>    8.0082    0.0000 </r>
       <r>    8.1756    0.0000 </r>
       <r>    8.3794    0.0000 </r>
       <r>    8.4716    0.0000 </r>
       <r>    8.4869    0.0000 </r>
       <r>    8.7896    0.0000 </r>
       <r>    8.8305    0.0000 </r>
       <r>    8.9509    0.0000 </r>
       <r>    9.1202    0.0000 </r>
       <r>    9.4648    0.0000 </r>
      </set>
      <set comment="kpoint 12">
       <r>  -55.7560    1.0000 </r>
       <r>  -55.6781    1.0000 </r>
       <r>  -55.6229    1.0000 </r>
       <r>  -55.6167    1.0000 </r>
       <r>  -55.6020    1.0000 </r>
       <r>  -55.5961    1.0000 </r>
       <r>  -55.5417    1.0000 </r>
       <r>  -55.5352    1.0000 </r>
       <r>  -55.4947    1.0000 </r>
       <r>  -55.4227    1.0000 </r>
       <r>  -29.7586    1.0000 </r>
       <r>  -29.4909    1.0000 </r>
       <r>  -29.4751    1.0000 </r>
       <r>  -29.4023    1.0000 </r>
       <r>  -29.3996    1.0000 </r>
       <r>  -29.3864    1.0000 </r>
       <r>  -29.3747    1.0000 </r>
       <r>  -29.3561    1.0000 </r>
       <r>  -29.3182    1.0000 </r>
       <r>  -29.2791    1.0000 </r>
       <r>  -29.2044    1.0000 </r>
       <r>  -29.0934    1.0000 </r>
       <r>  -29.0221    1.0000 </r>
       <r>  -29.0013    1.0000 </r>
       <r>  -28.9673    1.0000 </r>
       <r>  -28.9407    1.0000 </r>
       <r>  -28.9278    1.0000 </r>
       <r>  -28.8582    1.0000 </r>
       <r>  -28.8474    1.0000 </r>
       <r>  -28.7857    1.0000 </r>
       <r>  -28.7681    1.0000 </r>
       <r>  -28.6818    1.0000 </r>
       <r>  -28.6647    1.0000 </r>
       <r>  -28.6388    1.0000 </r>
       <r>  -28.5769    1.0000 </r>
       <r>  -28.5266    1.0000 </r>
       <r>  -28.5173    1.0000 </r>
       <r>  -28.5142    1.0000 </r>
       <r>  -28.4927    1.0000 </r>
       <r>  -28.4484    1.0000 </r>
       <r>   -2.8789    1.0000 </r>
       <r>   -2.2581    1.0000 </r>
       <r>   -0.9426    1.0000 </r>
       <r>   -0.7641    1.0000 </r>
       <r>    0.8302    1.0000 </r>
       <r>    1.3277    1.0000 </r>
       <r>    1.7644    1.0000 </r>
       <r>    2.4709    1.0000 </r>
       <r>    2.9779    1.0000 </r>
       <r>    3.0698    1.0000 </r>
       <r>    3.2363    1.0000 </r>
       <r>    3.5901    1.0000 </r>
       <r>    3.6050    1.0000 </r>
       <r>    3.6358    1.0000 </r>
       <r>    3.8561    1.0000 </r>
       <r>    3.9104    1.0000 </r>
       <r>    3.9428    1.0000 </r>
       <r>    4.1232    1.0000 </r>
       <r>    4.1447    1.0000 </r>
       <r>    4.2961    1.0000 </r>
       <r>    4.3238    1.0000 </r>
       <r>    4.3343    1.0000 </r>
       <r>    4.5138    1.0000 </r>
       <r>    4.6345    1.0000 </r>
       <r>    4.7119    1.0000 </r>
       <r>    4.7632    1.0000 </r>
       <r>    5.2056    1.0000 </r>
       <r>    5.3278    1.0000 </r>
       <r>    5.3706    1.0000 </r>
       <r>    5.5650    1.0000 </r>
       <r>    5.5992    1.0000 </r>
       <r>    5.8326    1.0000 </r>
       <r>    5.8882    1.0000 </r>
       <r>    5.9678    1.0000 </r>
       <r>    6.0532    1.0000 </r>
       <r>    6.0628    1.0000 </r>
       <r>    6.1568    1.0000 </r>
       <r>    6.3351    1.0000 </r>
       <r>    7.0252    0.9921 </r>
       <r>    7.2369    0.0000 </r>
       <r>    7.5187    0.0000 </r>
       <r>    7.5361    0.0000 </r>
       <r>    7.5452    0.0000 </r>
       <r>    7.7043    0.0000 </r>
       <r>    7.8549    0.0000 </r>
       <r>    7.9953    0.0000 </r>
       <r>    8.0819    0.0000 </r>
       <r>    8.1178    0.0000 </r>
       <r>    8.3605    0.0000 </r>
       <r>    8.4162    0.0000 </r>
       <r>    8.4247    0.0000 </r>
       <r>    8.5365    0.0000 </r>
       <r>    8.6023    0.0000 </r>
       <r>    9.0251    0.0000 </r>
       <r>    9.5221    0.0000 </r>
       <r>    9.6147    0.0000 </r>
      </set>
      <set comment="kpoint 13">
       <r>  -55.7533    1.0000 </r>
       <r>  -55.6809    1.0000 </r>
       <r>  -55.6235    1.0000 </r>
       <r>  -55.6222    1.0000 </r>
       <r>  -55.5964    1.0000 </r>
       <r>  -55.5950    1.0000 </r>
       <r>  -55.5391    1.0000 </r>
       <r>  -55.5390    1.0000 </r>
       <r>  -55.4947    1.0000 </r>
       <r>  -55.4218    1.0000 </r>
       <r>  -29.7728    1.0000 </r>
       <r>  -29.4959    1.0000 </r>
[...]
       <r>  -29.4330    1.0000 </r>
       <r>  -29.4328    1.0000 </r>
       <r>  -29.3858    1.0000 </r>
       <r>  -29.3769    1.0000 </r>
       <r>  -29.3768    1.0000 </r>
       <r>  -29.2898    1.0000 </r>
       <r>  -29.2898    1.0000 </r>
       <r>  -29.2875    1.0000 </r>
       <r>  -29.2497    1.0000 </r>
       <r>  -29.1104    1.0000 </r>
       <r>  -29.0178    1.0000 </r>
       <r>  -29.0176    1.0000 </r>
       <r>  -28.9585    1.0000 </r>
       <r>  -28.9511    1.0000 </r>
       <r>  -28.9143    1.0000 </r>
       <r>  -28.9142    1.0000 </r>
       <r>  -28.8258    1.0000 </r>
       <r>  -28.7486    1.0000 </r>
       <r>  -28.7000    1.0000 </r>
       <r>  -28.7000    1.0000 </r>
       <r>  -28.6267    1.0000 </r>
       <r>  -28.5989    1.0000 </r>
       <r>  -28.5910    1.0000 </r>
       <r>  -28.5909    1.0000 </r>
       <r>  -28.5190    1.0000 </r>
       <r>  -28.5189    1.0000 </r>
       <r>  -28.5139    1.0000 </r>
       <r>  -28.4851    1.0000 </r>
       <r>   -2.6556    1.0000 </r>
       <r>   -2.5384    1.0000 </r>
       <r>   -0.7383    1.0000 </r>
       <r>   -0.7379    1.0000 </r>
       <r>    0.5003    1.0000 </r>
       <r>    2.0541    1.0000 </r>
       <r>    2.0542    1.0000 </r>
       <r>    2.1635    1.0000 </r>
       <r>    2.5726    1.0000 </r>
       <r>    2.6378    1.0000 </r>
       <r>    3.0252    1.0000 </r>
       <r>    3.0599    1.0000 </r>
       <r>    3.6736    1.0000 </r>
       <r>    3.6742    1.0000 </r>
       <r>    3.8171    1.0000 </r>
       <r>    3.8516    1.0000 </r>
       <r>    3.8517    1.0000 </r>
       <r>    3.9472    1.0000 </r>
       <r>    3.9879    1.0000 </r>
       <r>    4.1960    1.0000 </r>
       <r>    4.4109    1.0000 </r>
       <r>    4.4111    1.0000 </r>
       <r>    4.4546    1.0000 </r>
       <r>    5.1821    1.0000 </r>
       <r>    5.3014    1.0000 </r>
       <r>    5.3018    1.0000 </r>
       <r>    5.3320    1.0000 </r>
       <r>    5.5067    1.0000 </r>
       <r>    5.5069    1.0000 </r>
       <r>    5.7096    1.0000 </r>
       <r>    5.7096    1.0000 </r>
       <r>    5.9473    1.0000 </r>
       <r>    5.9473    1.0000 </r>
       <r>    6.1111    1.0000 </r>
       <r>    6.1226    1.0000 </r>
       <r>    6.1449    1.0000 </r>
       <r>    6.1452    1.0000 </r>
       <r>    6.2741    1.0000 </r>
       <r>    6.3192    1.0000 </r>
       <r>    6.6696    1.0000 </r>
       <r>    6.9753    1.0000 </r>
       <r>    7.0214    0.9963 </r>
       <r>    7.7416    0.0000 </r>
       <r>    7.7416    0.0000 </r>
       <r>    7.8688    0.0000 </r>
       <r>    8.1122    0.0000 </r>
       <r>    8.1733    0.0000 </r>
       <r>    8.1990    0.0000 </r>
       <r>    8.4106    0.0000 </r>
       <r>    8.4107    0.0000 </r>
       <r>    8.7746    0.0000 </r>
       <r>    8.7752    0.0000 </r>
       <r>    8.8843    0.0000 </r>
       <r>    9.1650    0.0000 </r>
       <r>    9.4004    0.0000 </r>
       <r>    9.9601    0.0000 </r>
      </set>
     </set>
    </set>
   </array>
  </eigenvalues>
  <separator name="orbital magnetization" >
   <v name="MAGDIPOLOUT">      0.00000000      0.00000000      0.00000000</v>
  </separator>
  <dos>
   <i name="efermi">      7.05927744 </i>
   <total>
    <array>
     <dimension dim="1">gridpoints</dimension>
     <dimension dim="2">spin</dimension>
     <field>energy</field>
     <field>total</field>
     <field>integrated</field>
     <set>
      <set comment="spin 1">
       <r>   -59.0493     0.0000     0.0000 </r>
       <r>   -58.8083     0.0000     0.0000 </r>
       <r>   -58.5673     0.0000     0.0000 </r>
       <r>   -58.3263     0.0000     0.0000 </r>
       <r>   -58.0854     0.0000     0.0000 </r>
       <r>   -57.8444     0.0000     0.0000 </r>
       <r>   -57.6034     0.0000     0.0000 </r>
       <r>   -57.3624     0.0000     0.0000 </r>
       <r>   -57.1214     0.0000     0.0000 </r>
       <r>   -56.8804     0.0000     0.0000 </r>
       <r>   -56.6394     0.0000     0.0000 </r>
       <r>   -56.3985     0.0000     0.0000 </r>
       <r>   -56.1575     0.0000     0.0000 </r>
       <r>   -55.9165     0.0000     0.0000 </r>
       <r>   -55.6755    15.4164     3.7151 </r>
       <r>   -55.4345    28.5771    18.8867 </r>
       <r>   -55.1935     0.0000    20.0000 </r>
       <r>   -54.9525     0.0000    20.0000 </r>
       <r>   -54.7116     0.0000    20.0000 </r>
       <r>   -54.4706     0.0000    20.0000 </r>
       <r>   -54.2296     0.0000    20.0000 </r>
       <r>   -53.9886     0.0000    20.0000 </r>
       <r>   -53.7476     0.0000    20.0000 </r>
       <r>   -53.5066     0.0000    20.0000 </r>
       <r>   -53.2656     0.0000    20.0000 </r>
       <r>   -53.0247     0.0000    20.0000 </r>
       <r>   -52.7837     0.0000    20.0000 </r>
       <r>   -52.5427     0.0000    20.0000 </r>
       <r>   -52.3017     0.0000    20.0000 </r>
       <r>   -52.0607     0.0000    20.0000 </r>
       <r>   -51.8197     0.0000    20.0000 </r>
       <r>   -51.5788     0.0000    20.0000 </r>
       <r>   -51.3378     0.0000    20.0000 </r>
       <r>   -51.0968     0.0000    20.0000 </r>
       <r>   -50.8558     0.0000    20.0000 </r>
       <r>   -50.6148     0.0000    20.0000 </r>
       <r>   -50.3738     0.0000    20.0000 </r>
       <r>   -50.1328     0.0000    20.0000 </r>
       <r>   -49.8919     0.0000    20.0000 </r>
       <r>   -49.6509     0.0000    20.0000 </r>
       <r>   -49.4099     0.0000    20.0000 </r>
       <r>   -49.1689     0.0000    20.0000 </r>
       <r>   -48.9279     0.0000    20.0000 </r>
       <r>   -48.6869     0.0000    20.0000 </r>
       <r>   -48.4459     0.0000    20.0000 </r>
       <r>   -48.2050     0.0000    20.0000 </r>
       <r>   -47.9640     0.0000    20.0000 </r>
       <r>   -47.7230     0.0000    20.0000 </r>
       <r>   -47.4820     0.0000    20.0000 </r>
       <r>   -47.2410     0.0000    20.0000 </r>
       <r>   -47.0000     0.0000    20.0000 </r>
       <r>   -46.7591     0.0000    20.0000 </r>
       <r>   -46.5181     0.0000    20.0000 </r>
       <r>   -46.2771     0.0000    20.0000 </r>
       <r>   -46.0361     0.0000    20.0000 </r>
       <r>   -45.7951     0.0000    20.0000 </r>
       <r>   -45.5541     0.0000    20.0000 </r>
       <r>   -45.3131     0.0000    20.0000 </r>
       <r>   -45.0722     0.0000    20.0000 </r>
       <r>   -44.8312     0.0000    20.0000 </r>
       <r>   -44.5902     0.0000    20.0000 </r>
       <r>   -44.3492     0.0000    20.0000 </r>
       <r>   -44.1082     0.0000    20.0000 </r>
       <r>   -43.8672     0.0000    20.0000 </r>
       <r>   -43.6262     0.0000    20.0000 </r>
       <r>   -43.3853     0.0000    20.0000 </r>
       <r>   -43.1443     0.0000    20.0000 </r>
       <r>   -42.9033     0.0000    20.0000 </r>
       <r>   -42.6623     0.0000    20.0000 </r>
       <r>   -42.4213     0.0000    20.0000 </r>
       <r>   -42.1803     0.0000    20.0000 </r>
       <r>   -41.9393     0.0000    20.0000 </r>
       <r>   -41.6984     0.0000    20.0000 </r>
       <r>   -41.4574     0.0000    20.0000 </r>
       <r>   -41.2164     0.0000    20.0000 </r>
       <r>   -40.9754     0.0000    20.0000 </r>
       <r>   -40.7344     0.0000    20.0000 </r>
       <r>   -40.4934     0.0000    20.0000 </r>
       <r>   -40.2525     0.0000    20.0000 </r>
       <r>   -40.0115     0.0000    20.0000 </r>
       <r>   -39.7705     0.0000    20.0000 </r>
       <r>   -39.5295     0.0000    20.0000 </r>
       <r>   -39.2885     0.0000    20.0000 </r>
       <r>   -39.0475     0.0000    20.0000 </r>
       <r>   -38.8065     0.0000    20.0000 </r>
       <r>   -38.5656     0.0000    20.0000 </r>
       <r>   -38.3246     0.0000    20.0000 </r>
       <r>   -38.0836     0.0000    20.0000 </r>
       <r>   -37.8426     0.0000    20.0000 </r>
       <r>   -37.6016     0.0000    20.0000 </r>
       <r>   -37.3606     0.0000    20.0000 </r>
       <r>   -37.1196     0.0000    20.0000 </r>
       <r>   -36.8787     0.0000    20.0000 </r>
       <r>   -36.6377     0.0000    20.0000 </r>
       <r>   -36.3967     0.0000    20.0000 </r>
       <r>   -36.1557     0.0000    20.0000 </r>
       <r>   -35.9147     0.0000    20.0000 </r>
       <r>   -35.6737     0.0000    20.0000 </r>
       <r>   -35.4328     0.0000    20.0000 </r>
       <r>   -35.1918     0.0000    20.0000 </r>
       <r>   -34.9508     0.0000    20.0000 </r>
       <r>   -34.7098     0.0000    20.0000 </r>
       <r>   -34.4688     0.0000    20.0000 </r>
       <r>   -34.2278     0.0000    20.0000 </r>
       <r>   -33.9868     0.0000    20.0000 </r>
       <r>   -33.7459     0.0000    20.0000 </r>
       <r>   -33.5049     0.0000    20.0000 </r>
       <r>   -33.2639     0.0000    20.0000 </r>
       <r>   -33.0229     0.0000    20.0000 </r>
       <r>   -32.7819     0.0000    20.0000 </r>
       <r>   -32.5409     0.0000    20.0000 </r>
       <r>   -32.2999     0.0000    20.0000 </r>
       <r>   -32.0590     0.0000    20.0000 </r>
       <r>   -31.8180     0.0000    20.0000 </r>
       <r>   -31.5770     0.0000    20.0000 </r>
       <r>   -31.3360     0.0000    20.0000 </r>
       <r>   -31.0950     0.0000    20.0000 </r>
       <r>   -30.8540     0.0000    20.0000 </r>
       <r>   -30.6130     0.0000    20.0000 </r>
       <r>   -30.3721     0.0000    20.0000 </r>
       <r>   -30.1311     0.0000    20.0000 </r>
       <r>   -29.8901     0.0000    20.0000 </r>
       <r>   -29.6491     8.6726    22.2103 </r>
       <r>   -29.4081    22.5780    28.4224 </r>
       <r>   -29.1671    26.5761    41.6730 </r>
       <r>   -28.9262    26.3295    51.9654 </r>
       <r>   -28.6852    32.6112    63.3959 </r>
       <r>   -28.4442    48.3297    79.6467 </r>
       <r>   -28.2032     0.0000    80.0000 </r>
       <r>   -27.9622     0.0000    80.0000 </r>
       <r>   -27.7212     0.0000    80.0000 </r>
       <r>   -27.4802     0.0000    80.0000 </r>
       <r>   -27.2393     0.0000    80.0000 </r>
       <r>   -26.9983     0.0000    80.0000 </r>
       <r>   -26.7573     0.0000    80.0000 </r>
       <r>   -26.5163     0.0000    80.0000 </r>
       <r>   -26.2753     0.0000    80.0000 </r>
       <r>   -26.0343     0.0000    80.0000 </r>
       <r>   -25.7933     0.0000    80.0000 </r>
       <r>   -25.5524     0.0000    80.0000 </r>
       <r>   -25.3114     0.0000    80.0000 </r>
       <r>   -25.0704     0.0000    80.0000 </r>
       <r>   -24.8294     0.0000    80.0000 </r>
       <r>   -24.5884     0.0000    80.0000 </r>
       <r>   -24.3474     0.0000    80.0000 </r>
       <r>   -24.1064     0.0000    80.0000 </r>
       <r>   -23.8655     0.0000    80.0000 </r>
       <r>   -23.6245     0.0000    80.0000 </r>
       <r>   -23.3835     0.0000    80.0000 </r>
       <r>   -23.1425     0.0000    80.0000 </r>
       <r>   -22.9015     0.0000    80.0000 </r>
       <r>   -22.6605     0.0000    80.0000 </r>
       <r>   -22.4196     0.0000    80.0000 </r>
       <r>   -22.1786     0.0000    80.0000 </r>
       <r>   -21.9376     0.0000    80.0000 </r>
       <r>   -21.6966     0.0000    80.0000 </r>
       <r>   -21.4556     0.0000    80.0000 </r>
       <r>   -21.2146     0.0000    80.0000 </r>
       <r>   -20.9736     0.0000    80.0000 </r>
       <r>   -20.7327     0.0000    80.0000 </r>
       <r>   -20.4917     0.0000    80.0000 </r>
       <r>   -20.2507     0.0000    80.0000 </r>
       <r>   -20.0097     0.0000    80.0000 </r>
       <r>   -19.7687     0.0000    80.0000 </r>
       <r>   -19.5277     0.0000    80.0000 </r>
       <r>   -19.2867     0.0000    80.0000 </r>
       <r>   -19.0458     0.0000    80.0000 </r>
       <r>   -18.8048     0.0000    80.0000 </r>
       <r>   -18.5638     0.0000    80.0000 </r>
       <r>   -18.3228     0.0000    80.0000 </r>
       <r>   -18.0818     0.0000    80.0000 </r>
       <r>   -17.8408     0.0000    80.0000 </r>
       <r>   -17.5999     0.0000    80.0000 </r>
       <r>   -17.3589     0.0000    80.0000 </r>
       <r>   -17.1179     0.0000    80.0000 </r>
       <r>   -16.8769     0.0000    80.0000 </r>
       <r>   -16.6359     0.0000    80.0000 </r>
       <r>   -16.3949     0.0000    80.0000 </r>
       <r>   -16.1539     0.0000    80.0000 </r>
       <r>   -15.9130     0.0000    80.0000 </r>
       <r>   -15.6720     0.0000    80.0000 </r>
       <r>   -15.4310     0.0000    80.0000 </r>
       <r>   -15.1900     0.0000    80.0000 </r>
       <r>   -14.9490     0.0000    80.0000 </r>
       <r>   -14.7080     0.0000    80.0000 </r>
       <r>   -14.4670     0.0000    80.0000 </r>
       <r>   -14.2261     0.0000    80.0000 </r>
       <r>   -13.9851     0.0000    80.0000 </r>
       <r>   -13.7441     0.0000    80.0000 </r>
       <r>   -13.5031     0.0000    80.0000 </r>
       <r>   -13.2621     0.0000    80.0000 </r>
       <r>   -13.0211     0.0000    80.0000 </r>
       <r>   -12.7801     0.0000    80.0000 </r>
       <r>   -12.5392     0.0000    80.0000 </r>
       <r>   -12.2982     0.0000    80.0000 </r>
       <r>   -12.0572     0.0000    80.0000 </r>
       <r>   -11.8162     0.0000    80.0000 </r>
       <r>   -11.5752     0.0000    80.0000 </r>
       <r>   -11.3342     0.0000    80.0000 </r>
       <r>   -11.0933     0.0000    80.0000 </r>
       <r>   -10.8523     0.0000    80.0000 </r>
       <r>   -10.6113     0.0000    80.0000 </r>
       <r>   -10.3703     0.0000    80.0000 </r>
       <r>   -10.1293     0.0000    80.0000 </r>
       <r>    -9.8883     0.0000    80.0000 </r>
       <r>    -9.6473     0.0000    80.0000 </r>
       <r>    -9.4064     0.0000    80.0000 </r>
       <r>    -9.1654     0.0000    80.0000 </r>
       <r>    -8.9244     0.0000    80.0000 </r>
       <r>    -8.6834     0.0000    80.0000 </r>
       <r>    -8.4424     0.0000    80.0000 </r>
       <r>    -8.2014     0.0000    80.0000 </r>
       <r>    -7.9604     0.0000    80.0000 </r>
       <r>    -7.7195     0.0000    80.0000 </r>
       <r>    -7.4785     0.0000    80.0000 </r>
       <r>    -7.2375     0.0000    80.0000 </r>
       <r>    -6.9965     0.0000    80.0000 </r>
       <r>    -6.7555     0.0000    80.0000 </r>
       <r>    -6.5145     0.0000    80.0000 </r>
       <r>    -6.2735     0.0000    80.0000 </r>
       <r>    -6.0326     0.0000    80.0000 </r>
       <r>    -5.7916     0.0000    80.0000 </r>
       <r>    -5.5506     0.0000    80.0000 </r>
       <r>    -5.3096     0.0000    80.0000 </r>
       <r>    -5.0686     0.0000    80.0000 </r>
       <r>    -4.8276     0.0000    80.0000 </r>
       <r>    -4.5867     0.0000    80.0000 </r>
       <r>    -4.3457     0.0000    80.0000 </r>
       <r>    -4.1047     0.0000    80.0000 </r>
       <r>    -3.8637     0.0000    80.0000 </r>
       <r>    -3.6227     0.0000    80.0000 </r>
       <r>    -3.3817     0.0000    80.0000 </r>
       <r>    -3.1407     0.0335    80.0081 </r>
       <r>    -2.8998     1.2179    80.4139 </r>
       <r>    -2.6588     4.0134    81.5505 </r>
       <r>    -2.4178     4.1586    83.0022 </r>
       <r>    -2.1768     1.4218    83.8889 </r>
       <r>    -1.9358     0.0384    84.0000 </r>
       <r>    -1.6948     0.0000    84.0000 </r>
       <r>    -1.4538     0.0000    84.0000 </r>
       <r>    -1.2129     0.0000    84.0000 </r>
       <r>    -0.9719     1.0186    84.2455 </r>
       <r>    -0.7309     8.3513    86.6237 </r>
       <r>    -0.4899     0.9990    88.0000 </r>
       <r>    -0.2489     0.0000    88.0000 </r>
       <r>    -0.0079     0.0000    88.0000 </r>
       <r>     0.2330     0.0598    88.0144 </r>
       <r>     0.4740     0.8465    88.3058 </r>
       <r>     0.7150     2.1429    89.0164 </r>
       <r>     0.9560     2.5008    89.7693 </r>
       <r>     1.1970     1.7674    90.4074 </r>
       <r>     1.4380     3.9185    91.4999 </r>
       <r>     1.6790     0.7123    91.6716 </r>
       <r>     1.9199     3.2464    92.7453 </r>
       <r>     2.1609     2.9746    93.9390 </r>
       <r>     2.4019     2.1412    94.8864 </r>
       <r>     2.6429     1.7130    96.0887 </r>
       <r>     2.8839     6.4183    98.1301 </r>
       <r>     3.1249     5.2767   100.3457 </r>
       <r>     3.3659     6.0932   102.2461 </r>
       <r>     3.6068     5.6682   104.9678 </r>
       <r>     3.8478    12.7034   108.7002 </r>
       <r>     4.0888    20.5974   115.8433 </r>
       <r>     4.3298    13.7231   120.9645 </r>
       <r>     4.5708    12.1876   124.9370 </r>
       <r>     4.8118    10.0602   128.9984 </r>
       <r>     5.0528     7.8832   132.5942 </r>
       <r>     5.2937    11.0357   136.4742 </r>
       <r>     5.5347     8.3153   139.3928 </r>
       <r>     5.7757     9.2389   142.1431 </r>
       <r>     6.0167    14.3693   146.8054 </r>
       <r>     6.2577    15.7868   152.5359 </r>
       <r>     6.4987     5.3196   154.7171 </r>
       <r>     6.7396     6.0618   156.6367 </r>
       <r>     6.9806     7.3657   158.9139 </r>
       <r>     7.2216     8.3319   161.9708 </r>
       <r>     7.4626     7.1638   164.4856 </r>
       <r>     7.7036     7.5020   167.4282 </r>
       <r>     7.9446     9.6603   171.0595 </r>
       <r>     8.1856    11.8354   175.1114 </r>
       <r>     8.4265     9.8909   178.5965 </r>
       <r>     8.6675     7.7524   182.4978 </r>
       <r>     8.9085     9.2129   185.5998 </r>
       <r>     9.1495     4.7023   187.8739 </r>
       <r>     9.3905     5.9849   190.0349 </r>
       <r>     9.6315     3.4507   191.5445 </r>
       <r>     9.8725     0.7329   191.9822 </r>
       <r>    10.1134     0.0384   192.0000 </r>
       <r>    10.3544     0.0000   192.0000 </r>
       <r>    10.5954     0.0000   192.0000 </r>
       <r>    10.8364     0.0000   192.0000 </r>
       <r>    11.0774     0.0000   192.0000 </r>
       <r>    11.3184     0.0000   192.0000 </r>
       <r>    11.5593     0.0000   192.0000 </r>
       <r>    11.8003     0.0000   192.0000 </r>
       <r>    12.0413     0.0000   192.0000 </r>
       <r>    12.2823     0.0000   192.0000 </r>
       <r>    12.5233     0.0000   192.0000 </r>
       <r>    12.7643     0.0000   192.0000 </r>
       <r>    13.0053     0.0000   192.0000 </r>
       <r>    13.2462     0.0000   192.0000 </r>
      </set>
     </set>
    </array>
   </total>
  </dos>
 </calculation>
 <structure name="finalpos" >
  <crystal>
   <varray name="basis" >
    <v>       6.94288120       0.00000000      -2.03260844 </v>
    <v>      -3.89712450       5.74595684      -2.03260844 </v>
    <v>       0.00000000       0.00000000       7.23430000 </v>
   </varray>
   <i name="volume">    288.60151644 </i>
   <varray name="rec_basis" >
    <v>       0.14403242       0.09768822       0.00000000 </v>
    <v>       0.00000000       0.17403542       0.00000000 </v>
    <v>       0.04046853       0.07634571       0.13823037 </v>
   </varray>
  </crystal>
  <varray name="positions" >
   <v>       0.17863000       0.67863000       0.85725000 </v>
   <v>       0.82137000       0.32137000       0.14275000 </v>
   <v>       0.67863000       0.82137000       0.50000000 </v>
   <v>       0.32137000       0.17863000       0.50000000 </v>
   <v>       0.25000000       0.25000000       0.00000000 </v>
   <v>       0.21561000       0.95527000       0.17088000 </v>
   <v>       0.75000000       0.75000000       0.00000000 </v>
   <v>       0.78439000       0.04473000       0.82912000 </v>
   <v>       0.95527000       0.78439000       0.73966000 </v>
   <v>       0.04473000       0.21561000       0.26034000 </v>
   <v>       0.28439000       0.45527000       0.73966000 </v>
   <v>       0.71561000       0.54473000       0.26034000 </v>
   <v>       0.54473000       0.28439000       0.82912000 </v>
   <v>       0.45527000       0.71561000       0.17088000 </v>
   <v>       0.00000000       0.50000000       0.50000000 </v>
   <v>       0.50000000       0.00000000       0.50000000 </v>
  </varray>
 </structure>
</modeling>
