<?xml version="1.0" encoding="ISO-8859-1"?>
<modeling>
 <generator>
  <i name="program" type="string">vasp </i>
  <i name="version" type="string">6.2.0  </i>
  <i name="subversion" type="string">18Jan21 (build Jan 05 2022 15:41:44) complex                          parallel </i>
  <i name="platform" type="string">LinuxIFC </i>
  <i name="date" type="string">2025 05 07 </i>
  <i name="time" type="string">16:35:29 </i>
 </generator>
 <incar>
  <i type="string" name="SYSTEM">routine with relax: pwdword</i>
  <i type="string" name="PREC">Acc</i>
  <i type="int" name="IALGO">    38</i>
  <i type="string" name="ALGO">A</i>
  <i type="logical" name="ADDGRID"> T  </i>
  <i type="int" name="ICHARG">     2</i>
  <i type="int" name="NELM">   100</i>
  <i type="int" name="NELMIN">     6</i>
  <i name="EDIFF">      0.00000000</i>
  <i type="int" name="NSW">     0</i>
  <i type="int" name="ISIF">    -1</i>
  <i name="ENCUT">    600.00000000</i>
  <i type="logical" name="LREAL"> F  </i>
  <i type="int" name="ISMEAR">     0</i>
  <i name="SIGMA">      0.02000000</i>
  <i type="logical" name="LASPH"> T  </i>
  <i type="string" name="METAGGA">R2SCAN</i>
  <i type="logical" name="LMIXTAU"> F  </i>
 </incar>
 <primitive_cell>
  <structure name="primitive_cell" >
   <crystal>
    <varray name="basis" >
     <v>       5.66935469       0.00000000      -3.22823718 </v>
     <v>      -1.91591948       5.33580689      -3.22823718 </v>
     <v>       0.00000000       0.00000000       6.52404000 </v>
    </varray>
    <i name="volume">    197.35600566 </i>
    <varray name="rec_basis" >
     <v>       0.17638692       0.06333496       0.00000000 </v>
     <v>       0.00000000       0.18741308       0.00000000 </v>
     <v>       0.08728009       0.12407560       0.15327926 </v>
    </varray>
   </crystal>
   <varray name="positions" >
    <v>       0.50000000       0.00000000       1.00000000 </v>
    <v>       0.00000000       0.00000000       0.50000000 </v>
    <v>       1.00000000       0.50000000       1.00000000 </v>
    <v>       0.50000000       0.50000000       0.50000000 </v>
    <v>       0.25000000       0.25000000       1.00000000 </v>
    <v>       0.75001000       0.25001000       0.00002000 </v>
    <v>       0.75000000       0.75000000       1.00000000 </v>
    <v>       0.24999000       0.74999000       0.99998000 </v>
    <v>       0.25001000       0.24999000       0.50000000 </v>
    <v>       0.74999000       0.75001000       0.50000000 </v>
    <v>       0.00000000       0.00000000       0.00000000 </v>
    <v>       0.50000000       0.50000000       1.00000000 </v>
   </varray>
  </structure>
  <varray name="primitive_index" >
   <v type="int" >        1 </v>
   <v type="int" >        2 </v>
   <v type="int" >        3 </v>
   <v type="int" >        4 </v>
   <v type="int" >        5 </v>
   <v type="int" >        6 </v>
   <v type="int" >        7 </v>
   <v type="int" >        8 </v>
   <v type="int" >        9 </v>
   <v type="int" >       10 </v>
   <v type="int" >       11 </v>
   <v type="int" >       12 </v>
  </varray>
 </primitive_cell>
 <kpoints>
  <generation param="Gamma">
   <v type="int" name="divisions">       7        7        8 </v>
   <v name="usershift">      0.00000000       0.00000000       0.00000000 </v>
   <v name="genvec1">      0.14285714      -0.00000000       0.00000000 </v>
   <v name="genvec2">      0.00000000       0.14285714       0.00000000 </v>
   <v name="genvec3">     -0.00000000      -0.00000000       0.12500000 </v>
   <v name="shift">      0.00000000       0.00000000       0.00000000 </v>
  </generation>
  <varray name="kpointlist" >
   <v>       0.00000000       0.00000000       0.00000000 </v>
   <v>       0.14285714       0.00000000       0.00000000 </v>
   <v>       0.28571429      -0.00000000       0.00000000 </v>
   <v>       0.42857143      -0.00000000       0.00000000 </v>
   <v>       0.14285714       0.14285714       0.00000000 </v>
   <v>       0.28571429       0.14285714       0.00000000 </v>
   <v>       0.42857143       0.14285714       0.00000000 </v>
   <v>      -0.42857143       0.14285714       0.00000000 </v>
   <v>      -0.28571429       0.14285714       0.00000000 </v>
   <v>      -0.14285714       0.14285714       0.00000000 </v>
   <v>       0.28571429       0.28571429       0.00000000 </v>
   <v>       0.42857143       0.28571429       0.00000000 </v>
   <v>      -0.42857143       0.28571429       0.00000000 </v>
   <v>      -0.28571429       0.28571429       0.00000000 </v>
   <v>       0.42857143       0.42857143       0.00000000 </v>
   <v>      -0.42857143       0.42857143       0.00000000 </v>
   <v>       0.00000000      -0.00000000       0.12500000 </v>
   <v>       0.14285714      -0.00000000       0.12500000 </v>
   <v>       0.28571429       0.00000000       0.12500000 </v>
   <v>       0.42857143      -0.00000000       0.12500000 </v>
   <v>      -0.42857143      -0.00000000       0.12500000 </v>
   <v>      -0.28571429       0.00000000       0.12500000 </v>
   <v>      -0.14285714      -0.00000000       0.12500000 </v>
   <v>       0.14285714       0.14285714       0.12500000 </v>
   <v>       0.28571429       0.14285714       0.12500000 </v>
   <v>       0.42857143       0.14285714       0.12500000 </v>
   <v>      -0.42857143       0.14285714       0.12500000 </v>
   <v>      -0.28571429       0.14285714       0.12500000 </v>
   <v>      -0.14285714       0.14285714       0.12500000 </v>
   <v>       0.28571429       0.28571429       0.12500000 </v>
   <v>       0.42857143       0.28571429       0.12500000 </v>
   <v>      -0.42857143       0.28571429       0.12500000 </v>
   <v>      -0.28571429       0.28571429       0.12500000 </v>
   <v>      -0.14285714       0.28571429       0.12500000 </v>
   <v>       0.42857143       0.42857143       0.12500000 </v>
   <v>      -0.42857143       0.42857143       0.12500000 </v>
   <v>      -0.28571429       0.42857143       0.12500000 </v>
   <v>      -0.14285714       0.42857143       0.12500000 </v>
   <v>      -0.42857143      -0.42857143       0.12500000 </v>
   <v>      -0.28571429      -0.42857143       0.12500000 </v>
   <v>      -0.14285714      -0.42857143       0.12500000 </v>
   <v>      -0.28571429      -0.28571429       0.12500000 </v>
   <v>      -0.14285714      -0.28571429       0.12500000 </v>
   <v>      -0.14285714      -0.14285714       0.12500000 </v>
   <v>       0.00000000      -0.00000000       0.25000000 </v>
   <v>       0.14285714      -0.00000000       0.25000000 </v>
   <v>       0.28571429       0.00000000       0.25000000 </v>
   <v>       0.42857143      -0.00000000       0.25000000 </v>
   <v>      -0.42857143       0.00000000       0.25000000 </v>
   <v>      -0.28571429      -0.00000000       0.25000000 </v>
   <v>      -0.14285714      -0.00000000       0.25000000 </v>
   <v>       0.14285714       0.14285714       0.25000000 </v>
   <v>       0.28571429       0.14285714       0.25000000 </v>
   <v>       0.42857143       0.14285714       0.25000000 </v>
   <v>      -0.42857143       0.14285714       0.25000000 </v>
   <v>      -0.28571429       0.14285714       0.25000000 </v>
   <v>      -0.14285714       0.14285714       0.25000000 </v>
   <v>       0.28571429       0.28571429       0.25000000 </v>
   <v>       0.42857143       0.28571429       0.25000000 </v>
   <v>      -0.42857143       0.28571429       0.25000000 </v>
   <v>      -0.28571429       0.28571429       0.25000000 </v>
   <v>      -0.14285714       0.28571429       0.25000000 </v>
   <v>       0.42857143       0.42857143       0.25000000 </v>
   <v>      -0.42857143       0.42857143       0.25000000 </v>
   <v>      -0.28571429       0.42857143       0.25000000 </v>
   <v>      -0.14285714       0.42857143       0.25000000 </v>
   <v>      -0.42857143      -0.42857143       0.25000000 </v>
   <v>      -0.28571429      -0.42857143       0.25000000 </v>
   <v>      -0.14285714      -0.42857143       0.25000000 </v>
   <v>      -0.28571429      -0.28571429       0.25000000 </v>
   <v>      -0.14285714      -0.28571429       0.25000000 </v>
   <v>      -0.14285714      -0.14285714       0.25000000 </v>
   <v>       0.00000000       0.00000000       0.37500000 </v>
   <v>       0.14285714       0.00000000       0.37500000 </v>
   <v>       0.28571429       0.00000000       0.37500000 </v>
   <v>       0.42857143       0.00000000       0.37500000 </v>
   <v>      -0.42857143       0.00000000       0.37500000 </v>
   <v>      -0.28571429       0.00000000       0.37500000 </v>
   <v>      -0.14285714       0.00000000       0.37500000 </v>
   <v>       0.14285714       0.14285714       0.37500000 </v>
   <v>       0.28571429       0.14285714       0.37500000 </v>
   <v>       0.42857143       0.14285714       0.37500000 </v>
   <v>      -0.42857143       0.14285714       0.37500000 </v>
   <v>      -0.28571429       0.14285714       0.37500000 </v>
   <v>      -0.14285714       0.14285714       0.37500000 </v>
   <v>       0.28571429       0.28571429       0.37500000 </v>
   <v>       0.42857143       0.28571429       0.37500000 </v>
   <v>      -0.42857143       0.28571429       0.37500000 </v>
   <v>      -0.28571429       0.28571429       0.37500000 </v>
   <v>      -0.14285714       0.28571429       0.37500000 </v>
   <v>       0.42857143       0.42857143       0.37500000 </v>
   <v>      -0.42857143       0.42857143       0.37500000 </v>
   <v>      -0.28571429       0.42857143       0.37500000 </v>
   <v>      -0.14285714       0.42857143       0.37500000 </v>
   <v>      -0.42857143      -0.42857143       0.37500000 </v>
   <v>      -0.28571429      -0.42857143       0.37500000 </v>
   <v>      -0.14285714      -0.42857143       0.37500000 </v>
   <v>      -0.28571429      -0.28571429       0.37500000 </v>
   <v>      -0.14285714      -0.28571429       0.37500000 </v>
   <v>      -0.14285714      -0.14285714       0.37500000 </v>
   <v>       0.00000000      -0.00000000       0.50000000 </v>
   <v>       0.14285714      -0.00000000       0.50000000 </v>
   <v>       0.28571429      -0.00000000       0.50000000 </v>
   <v>       0.42857143      -0.00000000       0.50000000 </v>
   <v>       0.14285714       0.14285714       0.50000000 </v>
   <v>       0.28571429       0.14285714       0.50000000 </v>
   <v>       0.42857143       0.14285714       0.50000000 </v>
   <v>      -0.42857143       0.14285714       0.50000000 </v>
   <v>      -0.28571429       0.14285714       0.50000000 </v>
   <v>      -0.14285714       0.14285714       0.50000000 </v>
   <v>       0.28571429       0.28571429       0.50000000 </v>
   <v>       0.42857143       0.28571429       0.50000000 </v>
   <v>      -0.42857143       0.28571429       0.50000000 </v>
   <v>      -0.28571429       0.28571429       0.50000000 </v>
   <v>       0.42857143       0.42857143       0.50000000 </v>
   <v>      -0.42857143       0.42857143       0.50000000 </v>
  </varray>
  <varray name="weights" >
   <v>       0.00255102 </v>
   <v>       0.01020408 </v>
   <v>       0.01020408 </v>
   <v>       0.01020408 </v>
   <v>       0.00510204 </v>
   <v>       0.01020408 </v>
   <v>       0.01020408 </v>
   <v>       0.01020408 </v>
   <v>       0.01020408 </v>
   <v>       0.00510204 </v>
   <v>       0.00510204 </v>
   <v>       0.01020408 </v>
   <v>       0.01020408 </v>
   <v>       0.00510204 </v>
   <v>       0.00510204 </v>
   <v>       0.00510204 </v>
   <v>       0.00510204 </v>
   <v>       0.01020408 </v>
   <v>       0.01020408 </v>
   <v>       0.01020408 </v>
   <v>       0.01020408 </v>
   <v>       0.01020408 </v>
   <v>       0.01020408 </v>
   <v>       0.00510204 </v>
   <v>       0.01020408 </v>
   <v>       0.01020408 </v>
   <v>       0.01020408 </v>
   <v>       0.01020408 </v>
   <v>       0.01020408 </v>
   <v>       0.00510204 </v>
   <v>       0.01020408 </v>
   <v>       0.01020408 </v>
   <v>       0.01020408 </v>
   <v>       0.01020408 </v>
   <v>       0.00510204 </v>
   <v>       0.01020408 </v>
   <v>       0.01020408 </v>
   <v>       0.01020408 </v>
   <v>       0.00510204 </v>
   <v>       0.01020408 </v>
   <v>       0.01020408 </v>
   <v>       0.00510204 </v>
   <v>       0.01020408 </v>
   <v>       0.00510204 </v>
   <v>       0.00510204 </v>
   <v>       0.01020408 </v>
   <v>       0.01020408 </v>
   <v>       0.01020408 </v>
   <v>       0.01020408 </v>
   <v>       0.01020408 </v>
   <v>       0.01020408 </v>
   <v>       0.00510204 </v>
   <v>       0.01020408 </v>
   <v>       0.01020408 </v>
   <v>       0.01020408 </v>
   <v>       0.01020408 </v>
   <v>       0.01020408 </v>
   <v>       0.00510204 </v>
   <v>       0.01020408 </v>
   <v>       0.01020408 </v>
   <v>       0.01020408 </v>
   <v>       0.01020408 </v>
   <v>       0.00510204 </v>
   <v>       0.01020408 </v>
   <v>       0.01020408 </v>
   <v>       0.01020408 </v>
   <v>       0.00510204 </v>
   <v>       0.01020408 </v>
   <v>       0.01020408 </v>
   <v>       0.00510204 </v>
   <v>       0.01020408 </v>
   <v>       0.00510204 </v>
   <v>       0.00510204 </v>
   <v>       0.01020408 </v>
   <v>       0.01020408 </v>
   <v>       0.01020408 </v>
   <v>       0.01020408 </v>
   <v>       0.01020408 </v>
   <v>       0.01020408 </v>
   <v>       0.00510204 </v>
   <v>       0.01020408 </v>
   <v>       0.01020408 </v>
   <v>       0.01020408 </v>
   <v>       0.01020408 </v>
   <v>       0.01020408 </v>
   <v>       0.00510204 </v>
   <v>       0.01020408 </v>
   <v>       0.01020408 </v>
   <v>       0.01020408 </v>
   <v>       0.01020408 </v>
   <v>       0.00510204 </v>
   <v>       0.01020408 </v>
   <v>       0.01020408 </v>
   <v>       0.01020408 </v>
   <v>       0.00510204 </v>
   <v>       0.01020408 </v>
   <v>       0.01020408 </v>
   <v>       0.00510204 </v>
   <v>       0.01020408 </v>
   <v>       0.00510204 </v>
   <v>       0.00255102 </v>
   <v>       0.01020408 </v>
   <v>       0.01020408 </v>
   <v>       0.01020408 </v>
   <v>       0.00510204 </v>
   <v>       0.01020408 </v>
   <v>       0.01020408 </v>
   <v>       0.01020408 </v>
   <v>       0.01020408 </v>
   <v>       0.00510204 </v>
   <v>       0.00510204 </v>
   <v>       0.01020408 </v>
   <v>       0.01020408 </v>
   <v>       0.00510204 </v>
   <v>       0.00510204 </v>
   <v>       0.00510204 </v>
  </varray>
 </kpoints>
 <parameters>
  <separator name="general" >
   <i type="string" name="SYSTEM">routine with relax: pwdword</i>
   <i type="logical" name="LCOMPAT"> F  </i>
  </separator>
  <separator name="electronic" >
   <i type="string" name="PREC">acc</i>
   <i name="ENMAX">    600.00000000</i>
   <i name="ENAUG">    535.51400000</i>
   <i name="EDIFF">      0.00000000</i>
   <i type="int" name="IALGO">    58</i>
   <i type="int" name="IWAVPR">    10</i>
   <i type="int" name="NBANDS">    66</i>
   <i type="int" name="NBANDSLOW">    -1</i>
   <i type="int" name="NBANDSHIGH">    -1</i>
   <i name="NELECT">    104.00000000</i>
   <i type="int" name="TURBO">     0</i>
   <i type="int" name="IRESTART">     0</i>
   <i type="int" name="NREBOOT">     0</i>
   <i type="int" name="NMIN">     0</i>
   <i name="EREF">      0.00000000</i>
   <separator name="electronic smearing" >
    <i type="int" name="ISMEAR">     0</i>
    <i name="SIGMA">      0.02000000</i>
    <i name="KSPACING">      0.50000000</i>
    <i type="logical" name="KGAMMA"> T  </i>
    <i type="logical" name="KBLOWUP"> F  </i>
   </separator>
   <separator name="electronic projectors" >
    <i type="logical" name="LREAL"> F  </i>
    <v name="ROPT">      0.00000000      0.00000000      0.00000000</v>
    <i type="int" name="LMAXPAW">  -100</i>
    <i type="int" name="LMAXMIX">     2</i>
    <i type="logical" name="NLSPLINE"> F  </i>
   </separator>
   <separator name="electronic startup" >
    <i type="int" name="ISTART">     0</i>
    <i type="int" name="ICHARG">     2</i>
    <i type="int" name="INIWAV">     1</i>
   </separator>
   <separator name="electronic spin" >
    <i type="int" name="ISPIN">     1</i>
    <i type="logical" name="LNONCOLLINEAR"> F  </i>
    <v name="MAGMOM">      1.00000000      1.00000000      1.00000000      1.00000000      1.00000000      1.00000000      1.00000000      1.00000000      1.00000000      1.00000000      1.00000000      1.00000000</v>
    <i name="NUPDOWN">     -1.00000000</i>
    <i type="logical" name="LSORBIT"> F  </i>
    <v name="SAXIS">      0.00000000      0.00000000      1.00000000</v>
    <i type="logical" name="LSPIRAL"> F  </i>
    <v name="QSPIRAL">      0.00000000      0.00000000      0.00000000</v>
    <i type="logical" name="LZEROZ"> F  </i>
   </separator>
   <separator name="electronic exchange-correlation" >
    <i type="logical" name="LASPH"> T  </i>
    <i type="logical" name="LMETAGGA"> F  </i>
   </separator>
   <separator name="electronic convergence" >
    <i type="int" name="NELM">   100</i>
    <i type="int" name="NELMDL">    -5</i>
    <i type="int" name="NELMIN">     6</i>
    <i name="ENINI">    600.00000000</i>
    <separator name="electronic convergence detail" >
     <i type="logical" name="LDIAG"> T  </i>
     <i type="logical" name="LSUBROT"> F  </i>
     <i name="WEIMIN">      0.00000000</i>
     <i name="EBREAK">      0.00000000</i>
     <i name="DEPER">      0.30000000</i>
     <i type="int" name="NRMM">     4</i>
     <i name="TIME">      0.40000000</i>
    </separator>
   </separator>
   <separator name="electronic mixer" >
    <i name="AMIX">      0.40000000</i>
    <i name="BMIX">      1.00000000</i>
    <i name="AMIN">      0.10000000</i>
    <i name="AMIX_MAG">      1.60000000</i>
    <i name="BMIX_MAG">      1.00000000</i>
    <separator name="electronic mixer details" >
     <i type="int" name="IMIX">     4</i>
     <i type="logical" name="MIXFIRST"> F  </i>
     <i type="int" name="MAXMIX">   -45</i>
     <i name="WC">    100.00000000</i>
     <i type="int" name="INIMIX">     1</i>
     <i type="int" name="MIXPRE">     1</i>
     <i type="int" name="MREMOVE">     5</i>
    </separator>
   </separator>
   <separator name="electronic dipolcorrection" >
    <i type="logical" name="LDIPOL"> F  </i>
    <i type="logical" name="LMONO"> F  </i>
    <i type="int" name="IDIPOL">     0</i>
    <i name="EPSILON">      1.00000000</i>
    <v name="DIPOL">   -100.00000000   -100.00000000   -100.00000000</v>
    <i name="EFIELD">      0.00000000</i>
   </separator>
  </separator>
  <separator name="grids" >
   <i type="int" name="NGX">    54</i>
   <i type="int" name="NGY">    54</i>
   <i type="int" name="NGZ">    54</i>
   <i type="int" name="NGXF">   108</i>
   <i type="int" name="NGYF">   108</i>
   <i type="int" name="NGZF">   108</i>
   <i type="logical" name="ADDGRID"> T  </i>
  </separator>
  <separator name="ionic" >
   <i type="int" name="NSW">     0</i>
   <i type="int" name="IBRION">    -1</i>
   <i type="int" name="MDALGO">     0</i>
   <i type="int" name="ISIF">    -1</i>
   <i name="PSTRESS">      0.00000000</i>
   <i name="EDIFFG">      0.00000001</i>
   <i type="int" name="NFREE">     0</i>
   <i name="POTIM">      0.50000000</i>
   <i name="SMASS">     -3.00000000</i>
   <i name="SCALEE">      1.00000000</i>
  </separator>
  <separator name="ionic md" >
   <i name="TEBEG">      0.00010000</i>
   <i name="TEEND">      0.00010000</i>
   <i type="int" name="NBLOCK">     1</i>
   <i type="int" name="KBLOCK">     1</i>
   <i type="int" name="NPACO">   256</i>
   <i name="APACO">     16.00000000</i>
  </separator>
  <separator name="symmetry" >
   <i type="int" name="ISYM">     2</i>
   <i name="SYMPREC">      0.00001000</i>
  </separator>
  <separator name="dos" >
   <i type="int" name="LORBIT">     0</i>
   <v name="RWIGS">     -1.00000000     -1.00000000     -1.00000000</v>
   <i type="int" name="NEDOS">   301</i>
   <i name="EMIN">     10.00000000</i>
   <i name="EMAX">    -10.00000000</i>
   <i name="EFERMI">      0.00000000</i>
  </separator>
  <separator name="writing" >
   <i type="int" name="NWRITE">     2</i>
   <i type="logical" name="LWAVE"> T  </i>
   <i type="logical" name="LDOWNSAMPLE"> F  </i>
   <i type="logical" name="LCHARG"> T  </i>
   <i type="logical" name="LPARD"> F  </i>
   <i type="logical" name="LVTOT"> F  </i>
   <i type="logical" name="LVHAR"> F  </i>
   <i type="logical" name="LELF"> F  </i>
   <i type="logical" name="LOPTICS"> F  </i>
   <v name="STM">      0.00000000      0.00000000      0.00000000      0.00000000      0.00000000      0.00000000      0.00000000</v>
  </separator>
  <separator name="performance" >
   <i type="int" name="NPAR">     6</i>
   <i type="int" name="NSIM">     4</i>
   <i type="int" name="NBLK">    -1</i>
   <i type="logical" name="LPLANE"> T  </i>
   <i type="logical" name="LSCALAPACK"> T  </i>
   <i type="logical" name="LSCAAWARE"> F  </i>
   <i type="logical" name="LSCALU"> F  </i>
   <i type="logical" name="LASYNC"> F  </i>
   <i type="logical" name="LORBITALREAL"> F  </i>
  </separator>
  <separator name="miscellaneous" >
   <i type="int" name="IDIOT">     3</i>
   <i type="int" name="PHON_NSTRUCT">    -1</i>
   <i type="logical" name="LMUSIC"> F  </i>
   <v name="POMASS">     10.81100000     95.94000000     28.08500000</v>
   <v name="DARWINR">      0.00000000      0.00000000      0.00000000</v>
   <v name="DARWINV">      1.00000000      1.00000000      1.00000000</v>
   <i type="logical" name="LCORR"> T  </i>
  </separator>
  <i type="logical" name="GGA_COMPAT"> T  </i>
  <i type="logical" name="LBERRY"> F  </i>
  <i type="int" name="ICORELEVEL">     0</i>
  <i type="logical" name="LDAU"> F  </i>
  <i type="int" name="I_CONSTRAINED_M">     0</i>
  <separator name="electronic exchange-correlation" >
   <i type="string" name="GGA">--</i>
   <i type="int" name="VOSKOWN">     0</i>
   <i type="logical" name="LHFCALC"> F  </i>
   <i type="string" name="PRECFOCK"></i>
   <i type="logical" name="LSYMGRAD"> F  </i>
   <i type="logical" name="LHFONE"> F  </i>
   <i type="logical" name="LRHFCALC"> F  </i>
   <i type="logical" name="LTHOMAS"> F  </i>
   <i type="logical" name="LMODELHF"> F  </i>
   <i type="logical" name="LFOCKACE"> F  </i>
   <i name="ENCUT4O">     -1.00000000</i>
   <i type="int" name="EXXOEP">     0</i>
   <i type="int" name="FOURORBIT">     0</i>
   <i name="AEXX">      0.00000000</i>
   <i name="HFALPHA">      0.00000000</i>
   <i name="MCALPHA">      0.00000000</i>
   <i name="ALDAX">      1.00000000</i>
   <i name="AGGAX">      1.00000000</i>
   <i name="ALDAC">      1.00000000</i>
   <i name="AGGAC">      1.00000000</i>
   <i type="int" name="NKREDX">     1</i>
   <i type="int" name="NKREDY">     1</i>
   <i type="int" name="NKREDZ">     1</i>
   <i type="logical" name="SHIFTRED"> F  </i>
   <i type="logical" name="ODDONLY"> F  </i>
   <i type="logical" name="EVENONLY"> F  </i>
   <i type="int" name="LMAXFOCK">     0</i>
   <i type="int" name="NMAXFOCKAE">     0</i>
   <i type="logical" name="LFOCKAEDFT"> F  </i>
   <i name="HFSCREEN">      0.00000000</i>
   <i name="HFSCREENC">      0.00000000</i>
   <i type="int" name="NBANDSGWLOW">     0</i>
  </separator>
  <separator name="vdW DFT" >
   <i type="logical" name="LUSE_VDW"> F  </i>
   <i name="Zab_VDW">     -0.84910000</i>
   <i name="PARAM1">      0.12340000</i>
   <i name="PARAM2">      1.00000000</i>
   <i name="PARAM3">      0.00000000</i>
  </separator>
  <separator name="model GW" >
   <i type="int" name="MODEL_GW">     0</i>
   <i name="MODEL_EPS0">      9.86780028</i>
   <i name="MODEL_ALPHA">      1.00000000</i>
  </separator>
  <separator name="linear response parameters" >
   <i type="logical" name="LEPSILON"> F  </i>
   <i type="logical" name="LRPA"> F  </i>
   <i type="logical" name="LNABLA"> F  </i>
   <i type="logical" name="LVEL"> F  </i>
   <i type="int" name="KINTER">     0</i>
   <i name="CSHIFT">      0.10000000</i>
   <i name="OMEGAMAX">     -1.00000000</i>
   <i name="DEG_THRESHOLD">      0.00200000</i>
   <i name="RTIME">     -0.10000000</i>
   <i name="WPLASMAI">      0.00000000</i>
   <v name="DFIELD">      0.00000000      0.00000000      0.00000000</v>
   <v name="WPLASMA">      0.00000000      0.00000000      0.00000000      0.00000000      0.00000000      0.00000000      0.00000000      0.00000000      0.00000000</v>
  </separator>
  <separator name="orbital magnetization" >
   <i type="logical" name="NUCIND"> F  </i>
   <v name="MAGPOS">      0.00000000      0.00000000      0.00000000</v>
   <i type="logical" name="LNICSALL"> T  </i>
   <i type="logical" name="ORBITALMAG"> F  </i>
   <i type="logical" name="LMAGBLOCH"> F  </i>
   <i type="logical" name="LCHIMAG"> F  </i>
   <i type="logical" name="LGAUGE"> T  </i>
   <i type="int" name="MAGATOM">     0</i>
   <v name="MAGDIPOL">      0.00000000      0.00000000      0.00000000</v>
   <v name="AVECCONST">      0.00000000      0.00000000      0.00000000</v>
  </separator>
  <separator name="response functions" >
   <i type="logical" name="LFINITE_TEMPERATURE"> F  </i>
   <i type="logical" name="LADDER"> F  </i>
   <i type="logical" name="LRPAFORCE"> F  </i>
   <i type="logical" name="LFXC"> F  </i>
   <i type="logical" name="LHARTREE"> T  </i>
   <i type="int" name="IBSE">     0</i>
   <v type="int" name="KPOINT">    -1     0     0     0</v>
   <i type="logical" name="LTCTC"> F  </i>
   <i type="logical" name="LTCTE"> F  </i>
   <i type="logical" name="LTETE"> F  </i>
   <i type="logical" name="LTRIPLET"> F  </i>
   <i type="logical" name="LFXCEPS"> F  </i>
   <i type="logical" name="LFXHEG"> F  </i>
   <i type="int" name="NATURALO">     2</i>
   <i type="logical" name="LHOLEGF"> F  </i>
   <i type="logical" name="L2ORDER"> F  </i>
   <i type="logical" name="LDMP1"> F  </i>
   <i type="logical" name="LMP2LT"> F  </i>
   <i type="logical" name="LSMP2LT"> F  </i>
   <i type="logical" name="LGWLF"> F  </i>
   <i name="ENCUTGW">     -2.00000000</i>
   <i name="ENCUTGWSOFT">     -2.00000000</i>
   <i name="ENCUTLF">     -1.00000000</i>
   <i type="logical" name="LESF_SPLINES"> F  </i>
   <i type="int" name="LMAXMP2">    -1</i>
   <i name="SCISSOR">      0.00000000</i>
   <i type="int" name="NOMEGA">     0</i>
   <i type="int" name="NOMEGAR">     0</i>
   <i type="int" name="NBANDSGW">    -1</i>
   <i type="int" name="NBANDSO">    -1</i>
   <i type="int" name="NBANDSV">    -1</i>
   <i type="int" name="NELM">   100</i>
   <i type="int" name="NELMHF">     1</i>
   <i type="int" name="DIM">     3</i>
   <i type="int" name="IESPILON">     4</i>
   <i type="int" name="ANTIRES">     0</i>
   <i name="OMEGAMAX">    -30.00000000</i>
   <i name="OMEGAMIN">    -30.00000000</i>
   <i name="OMEGATL">   -200.00000000</i>
   <i type="int" name="OMEGAGRID">     0</i>
   <i name="CSHIFT">     -0.10000000</i>
   <i type="logical" name="LSELFENERGY"> F  </i>
   <i type="logical" name="LSPECTRAL"> F  </i>
   <i type="logical" name="LSPECTRALGW"> F  </i>
   <i type="logical" name="LSINGLES"> F  </i>
   <i type="logical" name="LFERMIGW"> F  </i>
   <i type="logical" name="ODDONLYGW"> F  </i>
   <i type="logical" name="EVENONLYGW"> F  </i>
   <i type="int" name="NKREDLFX">     1</i>
   <i type="int" name="NKREDLFY">     1</i>
   <i type="int" name="NKREDLFZ">     1</i>
   <i type="int" name="MAXMEM">  2800</i>
   <i type="int" name="TELESCOPE">     0</i>
   <i type="int" name="NTAUPAR">    -1</i>
   <i type="int" name="NOMEGAPAR">    -1</i>
   <i name="DAMP_NEWTON">      0.80000001</i>
   <i name="LAMBDA">      1.00000000</i>
  </separator>
  <separator name="External order field" >
   <i name="OFIELD_KAPPA">      0.00000000</i>
   <v name="OFIELD_K">      0.00000000      0.00000000      0.00000000</v>
   <i name="OFIELD_Q6_NEAR">      0.00000000</i>
   <i name="OFIELD_Q6_FAR">      0.00000000</i>
   <i name="OFIELD_A">      0.00000000</i>
  </separator>
 </parameters>
 <atominfo>
  <atoms>      12 </atoms>
  <types>       3 </types>
  <array name="atoms" >
   <dimension dim="1">ion</dimension>
   <field type="string">element</field>
   <field type="int">atomtype</field>
   <set>
    <rc><c>B </c><c>   1</c></rc>
    <rc><c>B </c><c>   1</c></rc>
    <rc><c>B </c><c>   1</c></rc>
    <rc><c>B </c><c>   1</c></rc>
    <rc><c>Mo</c><c>   2</c></rc>
    <rc><c>Mo</c><c>   2</c></rc>
    <rc><c>Mo</c><c>   2</c></rc>
    <rc><c>Mo</c><c>   2</c></rc>
    <rc><c>Mo</c><c>   2</c></rc>
    <rc><c>Mo</c><c>   2</c></rc>
    <rc><c>Si</c><c>   3</c></rc>
    <rc><c>Si</c><c>   3</c></rc>
   </set>
  </array>
  <array name="atomtypes" >
   <dimension dim="1">type</dimension>
   <field type="int">atomspertype</field>
   <field type="string">element</field>
   <field>mass</field>
   <field>valence</field>
   <field type="string">pseudopotential</field>
   <set>
    <rc><c>   4</c><c>B </c><c>     10.81100000</c><c>      3.00000000</c><c>  PAW_PBE B 06Sep2000                   </c></rc>
    <rc><c>   6</c><c>Mo</c><c>     95.94000000</c><c>     14.00000000</c><c>  PAW_PBE Mo_sv 02Feb2006               </c></rc>
    <rc><c>   2</c><c>Si</c><c>     28.08500000</c><c>      4.00000000</c><c>  PAW_PBE Si 05Jan2001                  </c></rc>
   </set>
  </array>
 </atominfo>
 <structure name="initialpos" >
  <crystal>
   <varray name="basis" >
    <v>       5.66935469       0.00000000      -3.22823718 </v>
    <v>      -1.91591948       5.33580689      -3.22823718 </v>
    <v>       0.00000000       0.00000000       6.52404000 </v>
   </varray>
   <i name="volume">    197.35600566 </i>
   <varray name="rec_basis" >
    <v>       0.17638692       0.06333496       0.00000000 </v>
    <v>       0.00000000       0.18741308       0.00000000 </v>
    <v>       0.08728009       0.12407560       0.15327926 </v>
   </varray>
  </crystal>
  <varray name="positions" >
   <v>       0.50000000       0.00000000       0.00000000 </v>
   <v>       0.00000000       0.00000000       0.50000000 </v>
   <v>       0.00000000       0.50000000       0.00000000 </v>
   <v>       0.50000000       0.50000000       0.50000000 </v>
   <v>       0.25000000       0.25000000       0.00000000 </v>
   <v>       0.75001000       0.25001000       0.00002000 </v>
   <v>       0.75000000       0.75000000       0.00000000 </v>
   <v>       0.24999000       0.74999000       0.99998000 </v>
   <v>       0.25001000       0.24999000       0.50000000 </v>
   <v>       0.74999000       0.75001000       0.50000000 </v>
   <v>       0.00000000       0.00000000       0.00000000 </v>
   <v>       0.50000000       0.50000000       0.00000000 </v>
  </varray>
 </structure>
 <calculation>
  <scstep>
   <time name="total">   33.43   33.79</time>
   <energy>
    <i name="alphaZ">    473.40441854 </i>
    <i name="ewald">  -8368.59802549 </i>
    <i name="hartreedc">  -3072.16545199 </i>
    <i name="XCdc">    478.54474098 </i>
    <i name="pawpsdc">   9250.47132855 </i>
    <i name="pawaedc">  -9210.50234729 </i>
    <i name="eentropy">     -0.00048660 </i>
    <i name="bandstr">   -163.26521397 </i>
    <i name="atom">  11664.50664672 </i>
    <i name="e_fr_energy">   1052.39560946 </i>
    <i name="e_wo_entrp">   1052.39609605 </i>
    <i name="e_0_energy">   1052.39585276 </i>
   </energy>
  </scstep>
  <scstep>
   <time name="total">   36.75   37.33</time>
   <energy>
    <i name="e_fr_energy">   -186.90491348 </i>
    <i name="e_wo_entrp">   -186.90356770 </i>
    <i name="e_0_energy">   -186.90424059 </i>
   </energy>
  </scstep>
  <scstep>
   <time name="total">   42.98   43.97</time>
   <energy>
    <i name="e_fr_energy">   -236.54871949 </i>
    <i name="e_wo_entrp">   -236.54603217 </i>
    <i name="e_0_energy">   -236.54737583 </i>
   </energy>
  </scstep>
  <scstep>
   <time name="total">   41.53   42.32</time>
   <energy>
    <i name="e_fr_energy">   -237.68979892 </i>
    <i name="e_wo_entrp">   -237.68679847 </i>
    <i name="e_0_energy">   -237.68829869 </i>
   </energy>
  </scstep>
  <scstep>
   <time name="total">   44.77   45.70</time>
   <energy>
    <i name="e_fr_energy">   -237.71623007 </i>
    <i name="e_wo_entrp">   -237.71319909 </i>
    <i name="e_0_energy">   -237.71471458 </i>
   </energy>
  </scstep>
  <scstep>
   <time name="total">   43.01   43.47</time>
   <energy>
    <i name="e_fr_energy">   -169.20437164 </i>
    <i name="e_wo_entrp">   -169.20202587 </i>
    <i name="e_0_energy">   -169.20319875 </i>
   </energy>
  </scstep>
  <scstep>
   <time name="total">   48.48   48.88</time>
   <energy>
    <i name="e_fr_energy">   -187.58461364 </i>
    <i name="e_wo_entrp">   -187.58205781 </i>
    <i name="e_0_energy">   -187.58333572 </i>
   </energy>
  </scstep>
  <scstep>
   <time name="total">   49.71   50.53</time>
   <energy>
    <i name="e_fr_energy">   -190.90369351 </i>
    <i name="e_wo_entrp">   -190.90141111 </i>
    <i name="e_0_energy">   -190.90255231 </i>
   </energy>
  </scstep>
  <scstep>
   <time name="total">   49.51   49.99</time>
   <energy>
    <i name="e_fr_energy">   -191.91769507 </i>
    <i name="e_wo_entrp">   -191.91563947 </i>
    <i name="e_0_energy">   -191.91666727 </i>
   </energy>
  </scstep>
  <scstep>
   <time name="total">   51.99   52.82</time>
   <energy>
    <i name="e_fr_energy">   -192.23716735 </i>
    <i name="e_wo_entrp">   -192.23523985 </i>
    <i name="e_0_energy">   -192.23620360 </i>
   </energy>
  </scstep>
  <scstep>
   <time name="total">   50.23   50.67</time>
   <energy>
    <i name="e_fr_energy">   -192.39842716 </i>
    <i name="e_wo_entrp">   -192.39664558 </i>
    <i name="e_0_energy">   -192.39753637 </i>
   </energy>
  </scstep>
  <scstep>
   <time name="total">   51.80   52.34</time>
   <energy>
    <i name="e_fr_energy">   -192.46632263 </i>
    <i name="e_wo_entrp">   -192.46450004 </i>
    <i name="e_0_energy">   -192.46541133 </i>
   </energy>
  </scstep>
  <scstep>
   <time name="total">   49.48   49.93</time>
   <energy>
    <i name="e_fr_energy">   -192.49763174 </i>
    <i name="e_wo_entrp">   -192.49586520 </i>
    <i name="e_0_energy">   -192.49674847 </i>
   </energy>
  </scstep>
  <scstep>
   <time name="total">   48.32   48.77</time>
   <energy>
    <i name="e_fr_energy">   -192.51366883 </i>
    <i name="e_wo_entrp">   -192.51198299 </i>
    <i name="e_0_energy">   -192.51282591 </i>
   </energy>
  </scstep>
  <scstep>
   <time name="total">   47.66   48.05</time>
   <energy>
    <i name="e_fr_energy">   -192.52116719 </i>
    <i name="e_wo_entrp">   -192.51950951 </i>
    <i name="e_0_energy">   -192.52033835 </i>
   </energy>
  </scstep>
  <scstep>
   <time name="total">   49.50   49.93</time>
   <energy>
    <i name="e_fr_energy">   -192.52447393 </i>
    <i name="e_wo_entrp">   -192.52282149 </i>
    <i name="e_0_energy">   -192.52364771 </i>
   </energy>
  </scstep>
  <scstep>
   <time name="total">   51.24   51.85</time>
   <energy>
    <i name="e_fr_energy">   -192.52579984 </i>
    <i name="e_wo_entrp">   -192.52414575 </i>
    <i name="e_0_energy">   -192.52497279 </i>
   </energy>
  </scstep>
  <scstep>
   <time name="total">   52.32   53.95</time>
   <energy>
    <i name="e_fr_energy">   -192.52631713 </i>
    <i name="e_wo_entrp">   -192.52466027 </i>
    <i name="e_0_energy">   -192.52548870 </i>
   </energy>
  </scstep>
  <scstep>
   <time name="total">   53.10   53.56</time>
   <energy>
    <i name="e_fr_energy">   -192.52654238 </i>
    <i name="e_wo_entrp">   -192.52488286 </i>
    <i name="e_0_energy">   -192.52571262 </i>
   </energy>
  </scstep>
  <scstep>
   <time name="total">   53.40   53.89</time>
   <energy>
    <i name="e_fr_energy">   -192.52664017 </i>
    <i name="e_wo_entrp">   -192.52497899 </i>
    <i name="e_0_energy">   -192.52580958 </i>
   </energy>
  </scstep>
  <scstep>
   <time name="total">   53.40   54.02</time>
   <energy>
    <i name="e_fr_energy">   -192.52667911 </i>
    <i name="e_wo_entrp">   -192.52501698 </i>
    <i name="e_0_energy">   -192.52584805 </i>
   </energy>
  </scstep>
  <scstep>
   <time name="total">   53.04   53.49</time>
   <energy>
    <i name="e_fr_energy">   -192.52669726 </i>
    <i name="e_wo_entrp">   -192.52503510 </i>
    <i name="e_0_energy">   -192.52586618 </i>
   </energy>
  </scstep>
  <scstep>
   <time name="total">   51.55   52.06</time>
   <energy>
    <i name="e_fr_energy">   -192.52670476 </i>
    <i name="e_wo_entrp">   -192.52504269 </i>
    <i name="e_0_energy">   -192.52587373 </i>
   </energy>
  </scstep>
  <scstep>
   <time name="total">   51.37   52.04</time>
   <energy>
    <i name="e_fr_energy">   -192.52670790 </i>
    <i name="e_wo_entrp">   -192.52504578 </i>
    <i name="e_0_energy">   -192.52587684 </i>
   </energy>
  </scstep>
  <scstep>
   <time name="total">   49.95   50.78</time>
   <energy>
    <i name="e_fr_energy">   -192.52670933 </i>
    <i name="e_wo_entrp">   -192.52504714 </i>
    <i name="e_0_energy">   -192.52587824 </i>
   </energy>
  </scstep>
  <scstep>
   <time name="total">   48.95   49.65</time>
   <energy>
    <i name="e_fr_energy">   -192.52670998 </i>
    <i name="e_wo_entrp">   -192.52504780 </i>
    <i name="e_0_energy">   -192.52587889 </i>
   </energy>
  </scstep>
  <scstep>
   <time name="total">   46.16   46.68</time>
   <energy>
    <i name="e_fr_energy">   -192.52671013 </i>
    <i name="e_wo_entrp">   -192.52504796 </i>
    <i name="e_0_energy">   -192.52587904 </i>
   </energy>
  </scstep>
  <scstep>
   <time name="total">   83.43   84.65</time>
   <energy>
    <i name="e_fr_energy">   -192.52671023 </i>
    <i name="e_wo_entrp">   -192.52504799 </i>
    <i name="e_0_energy">   -192.52587911 </i>
   </energy>
  </scstep>
  <scstep>
   <time name="total">   50.87   51.57</time>
   <energy>
    <i name="e_fr_energy">   -192.52670940 </i>
    <i name="e_wo_entrp">   -192.52504723 </i>
    <i name="e_0_energy">   -192.52587831 </i>
   </energy>
  </scstep>
  <scstep>
   <time name="total">   48.26   48.80</time>
   <energy>
    <i name="e_fr_energy">   -192.52671001 </i>
    <i name="e_wo_entrp">   -192.52504789 </i>
    <i name="e_0_energy">   -192.52587895 </i>
   </energy>
  </scstep>
  <scstep>
   <time name="total">   48.89   49.32</time>
   <energy>
    <i name="e_fr_energy">   -192.52671027 </i>
    <i name="e_wo_entrp">   -192.52504809 </i>
    <i name="e_0_energy">   -192.52587918 </i>
   </energy>
  </scstep>
  <scstep>
   <time name="total">   51.25   51.68</time>
   <energy>
    <i name="e_fr_energy">   -192.52671011 </i>
    <i name="e_wo_entrp">   -192.52504800 </i>
    <i name="e_0_energy">   -192.52587906 </i>
   </energy>
  </scstep>
  <scstep>
   <time name="total">   47.16   47.59</time>
   <energy>
    <i name="e_fr_energy">   -192.52671031 </i>
    <i name="e_wo_entrp">   -192.52504822 </i>
    <i name="e_0_energy">   -192.52587927 </i>
   </energy>
  </scstep>
  <scstep>
   <time name="total">   46.11   46.50</time>
   <energy>
    <i name="e_fr_energy">   -192.52671031 </i>
    <i name="e_wo_entrp">   -192.52504822 </i>
    <i name="e_0_energy">   -192.52587927 </i>
   </energy>
  </scstep>
  <scstep>
   <time name="total">   46.07   46.58</time>
   <energy>
    <i name="e_fr_energy">   -192.52671033 </i>
    <i name="e_wo_entrp">   -192.52504819 </i>
    <i name="e_0_energy">   -192.52587926 </i>
   </energy>
  </scstep>
  <scstep>
   <time name="total">   49.23   49.65</time>
   <energy>
    <i name="e_fr_energy">   -192.52671039 </i>
    <i name="e_wo_entrp">   -192.52504826 </i>
    <i name="e_0_energy">   -192.52587932 </i>
   </energy>
  </scstep>
  <scstep>
   <time name="total">   45.63   46.24</time>
   <energy>
    <i name="e_fr_energy">   -192.52671039 </i>
    <i name="e_wo_entrp">   -192.52504825 </i>
    <i name="e_0_energy">   -192.52587932 </i>
   </energy>
  </scstep>
  <scstep>
   <time name="total">   46.77   47.18</time>
   <energy>
    <i name="e_fr_energy">   -192.52671039 </i>
    <i name="e_wo_entrp">   -192.52504825 </i>
    <i name="e_0_energy">   -192.52587932 </i>
   </energy>
  </scstep>
  <scstep>
   <time name="total">   45.64   46.27</time>
   <energy>
    <i name="e_fr_energy">   -192.52671038 </i>
    <i name="e_wo_entrp">   -192.52504825 </i>
    <i name="e_0_energy">   -192.52587932 </i>
   </energy>
  </scstep>
  <scstep>
   <time name="total">   47.61   48.11</time>
   <energy>
    <i name="e_fr_energy">   -192.52671038 </i>
    <i name="e_wo_entrp">   -192.52504825 </i>
    <i name="e_0_energy">   -192.52587932 </i>
   </energy>
  </scstep>
  <scstep>
   <time name="total">   55.83   56.37</time>
   <energy>
    <i name="alphaZ">    473.40441854 </i>
    <i name="ewald">  -8368.59802549 </i>
    <i name="hartreedc">  -2932.08640261 </i>
    <i name="XCdc">    486.90036688 </i>
    <i name="pawpsdc">  12787.59944382 </i>
    <i name="pawaedc"> -12765.90976977 </i>
    <i name="eentropy">     -0.00166213 </i>
    <i name="bandstr">  -1538.34172634 </i>
    <i name="atom">  11664.50664672 </i>
    <i name="e_fr_energy">   -192.52671038 </i>
    <i name="e_wo_entrp">   -192.52504825 </i>
    <i name="e_0_energy">   -192.52587932 </i>
   </energy>
  </scstep>
  <structure>
   <crystal>
    <varray name="basis" >
     <v>       5.66935469       0.00000000      -3.22823718 </v>
     <v>      -1.91591948       5.33580689      -3.22823718 </v>
     <v>       0.00000000       0.00000000       6.52404000 </v>
    </varray>
    <i name="volume">    197.35600566 </i>
    <varray name="rec_basis" >
     <v>       0.17638692       0.06333496       0.00000000 </v>
     <v>       0.00000000       0.18741308       0.00000000 </v>
     <v>       0.08728009       0.12407560       0.15327926 </v>
    </varray>
   </crystal>
   <varray name="positions" >
    <v>       0.50000000       0.00000000       0.00000000 </v>
    <v>       0.00000000       0.00000000       0.50000000 </v>
    <v>       0.00000000       0.50000000       0.00000000 </v>
    <v>       0.50000000       0.50000000       0.50000000 </v>
    <v>       0.25000000       0.25000000       0.00000000 </v>
    <v>       0.75001000       0.25001000       0.00002000 </v>
    <v>       0.75000000       0.75000000       0.00000000 </v>
    <v>       0.24999000       0.74999000       0.99998000 </v>
    <v>       0.25001000       0.24999000       0.50000000 </v>
    <v>       0.74999000       0.75001000       0.50000000 </v>
    <v>       0.00000000       0.00000000       0.00000000 </v>
    <v>       0.50000000       0.50000000       0.00000000 </v>
   </varray>
  </structure>
  <varray name="forces" >
   <v>       0.00000000       0.00000000       0.00000000 </v>
   <v>       0.00000000       0.00000000       0.00000000 </v>
   <v>       0.00000000       0.00000000       0.00000000 </v>
   <v>       0.00000000       0.00000000       0.00000000 </v>
   <v>       0.00000000       0.00000000       0.00000000 </v>
   <v>       0.00000000       0.00000000       0.00000000 </v>
   <v>       0.00000000       0.00000000       0.00000000 </v>
   <v>       0.00000000       0.00000000       0.00000000 </v>
   <v>       0.00000000       0.00000000       0.00000000 </v>
   <v>       0.00000000       0.00000000       0.00000000 </v>
   <v>       0.00000000       0.00000000       0.00000000 </v>
   <v>       0.00000000       0.00000000       0.00000000 </v>
  </varray>
  <varray name="stress" >
   <v>       0.00000000       0.00000000       0.00000000 </v>
   <v>       0.00000000       0.00000000       0.00000000 </v>
   <v>       0.00000000       0.00000000       0.00000000 </v>
  </varray>
  <energy>
   <i name="e_fr_energy">   -192.52671038 </i>
   <i name="e_wo_entrp">   -192.52504825 </i>
   <i name="e_0_energy">   -192.52587932 </i>
  </energy>
  <time name="totalsc"> 2022.19 2046.82</time>
  <eigenvalues>
   <array>
    <dimension dim="1">band</dimension>
    <dimension dim="2">kpoint</dimension>
    <dimension dim="3">spin</dimension>
    <field>eigene</field>
    <field>occ</field>
    <set>
     <set comment="spin 1">
      <set comment="kpoint 1">
       <r>  -56.0844    1.0000 </r>
       <r>  -56.0826    1.0000 </r>
       <r>  -55.6946    1.0000 </r>
       <r>  -55.6814    1.0000 </r>
       <r>  -55.6812    1.0000 </r>
       <r>  -55.6676    1.0000 </r>
       <r>  -29.7472    1.0000 </r>
       <r>  -29.6793    1.0000 </r>
       <r>  -29.4792    1.0000 </r>
       <r>  -29.4790    1.0000 </r>
       <r>  -29.4758    1.0000 </r>
       <r>  -29.4757    1.0000 </r>
       <r>  -29.2660    1.0000 </r>
       <r>  -29.2001    1.0000 </r>
       <r>  -29.1999    1.0000 </r>
       <r>  -29.1518    1.0000 </r>
       <r>  -29.1487    1.0000 </r>
       <r>  -29.1220    1.0000 </r>
       <r>  -29.1218    1.0000 </r>
       <r>  -29.1056    1.0000 </r>
       <r>  -28.9914    1.0000 </r>
       <r>  -28.8717    1.0000 </r>
       <r>  -28.8717    1.0000 </r>
       <r>  -28.7997    1.0000 </r>
       <r>   -3.9534    1.0000 </r>
       <r>   -1.2847    1.0000 </r>
       <r>   -0.3076    1.0000 </r>
       <r>   -0.0399    1.0000 </r>
       <r>    0.6488    1.0000 </r>
       <r>    0.9652    1.0000 </r>
       <r>    0.9653    1.0000 </r>
       <r>    1.3398    1.0000 </r>
       <r>    1.3400    1.0000 </r>
       <r>    2.9348    1.0000 </r>
       <r>    3.2051    1.0000 </r>
       <r>    3.4956    1.0000 </r>
       <r>    3.4958    1.0000 </r>
       <r>    3.5233    1.0000 </r>
       <r>    3.6915    1.0000 </r>
       <r>    3.6916    1.0000 </r>
       <r>    4.1031    1.0000 </r>
       <r>    4.7986    1.0000 </r>
       <r>    4.8775    1.0000 </r>
       <r>    4.8775    1.0000 </r>
       <r>    5.0195    1.0000 </r>
       <r>    6.2912    1.0000 </r>
       <r>    6.5508    1.0000 </r>
       <r>    6.5509    1.0000 </r>
       <r>    6.5549    1.0000 </r>
       <r>    7.1065    0.9862 </r>
       <r>    7.3372    0.0000 </r>
       <r>    7.5486    0.0000 </r>
       <r>    7.5487    0.0000 </r>
       <r>    7.9097    0.0000 </r>
       <r>    8.3109    0.0000 </r>
       <r>    8.3332    0.0000 </r>
       <r>    8.5112    0.0000 </r>
       <r>    8.5255    0.0000 </r>
       <r>    8.6055    0.0000 </r>
       <r>    8.6057    0.0000 </r>
       <r>    8.8082    0.0000 </r>
       <r>    8.8082    0.0000 </r>
       <r>    9.2543    0.0000 </r>
       <r>    9.7624    0.0000 </r>
       <r>    9.7689    0.0000 </r>
       <r>    9.8903    0.0000 </r>
      </set>
      <set comment="kpoint 2">
       <r>  -56.0843    1.0000 </r>
       <r>  -56.0827    1.0000 </r>
       <r>  -55.6940    1.0000 </r>
       <r>  -55.6820    1.0000 </r>
       <r>  -55.6806    1.0000 </r>
       <r>  -55.6683    1.0000 </r>
       <r>  -29.7384    1.0000 </r>
       <r>  -29.6768    1.0000 </r>
       <r>  -29.4753    1.0000 </r>
       <r>  -29.4751    1.0000 </r>
       <r>  -29.4729    1.0000 </r>
       <r>  -29.4712    1.0000 </r>
       <r>  -29.2681    1.0000 </r>
       <r>  -29.2081    1.0000 </r>
       <r>  -29.1973    1.0000 </r>
       <r>  -29.1526    1.0000 </r>
       <r>  -29.1511    1.0000 </r>
       <r>  -29.1266    1.0000 </r>
       <r>  -29.1255    1.0000 </r>
       <r>  -29.1113    1.0000 </r>
       <r>  -28.9866    1.0000 </r>
       <r>  -28.8788    1.0000 </r>
       <r>  -28.8691    1.0000 </r>
       <r>  -28.8043    1.0000 </r>
       <r>   -3.8353    1.0000 </r>
       <r>   -1.2061    1.0000 </r>
       <r>   -0.5714    1.0000 </r>
       <r>   -0.2634    1.0000 </r>
       <r>    0.6823    1.0000 </r>
       <r>    0.8814    1.0000 </r>
       <r>    1.0431    1.0000 </r>
       <r>    1.4325    1.0000 </r>
       <r>    1.6329    1.0000 </r>
       <r>    3.0675    1.0000 </r>
       <r>    3.3089    1.0000 </r>
       <r>    3.5852    1.0000 </r>
       <r>    3.6225    1.0000 </r>
       <r>    3.6727    1.0000 </r>
       <r>    3.6771    1.0000 </r>
       <r>    3.7166    1.0000 </r>
       <r>    4.0980    1.0000 </r>
       <r>    4.4895    1.0000 </r>
       <r>    4.6259    1.0000 </r>
       <r>    4.7475    1.0000 </r>
       <r>    5.1538    1.0000 </r>
       <r>    6.0403    1.0000 </r>
       <r>    6.2825    1.0000 </r>
       <r>    6.4742    1.0000 </r>
       <r>    6.6250    1.0000 </r>
       <r>    6.9979    1.0000 </r>
       <r>    7.2953    0.0000 </r>
       <r>    7.4602    0.0000 </r>
       <r>    7.4738    0.0000 </r>
       <r>    7.5936    0.0000 </r>
       <r>    7.7468    0.0000 </r>
       <r>    8.0610    0.0000 </r>
       <r>    8.3700    0.0000 </r>
       <r>    8.5979    0.0000 </r>
       <r>    8.6223    0.0000 </r>
       <r>    8.8249    0.0000 </r>
       <r>    8.9436    0.0000 </r>
       <r>    9.0561    0.0000 </r>
       <r>    9.2225    0.0000 </r>
       <r>    9.2924    0.0000 </r>
       <r>    9.8502    0.0000 </r>
       <r>   10.2164    0.0000 </r>
      </set>
      <set comment="kpoint 3">
       <r>  -56.0839    1.0000 </r>
       <r>  -56.0828    1.0000 </r>
       <r>  -55.6923    1.0000 </r>
       <r>  -55.6840    1.0000 </r>
       <r>  -55.6787    1.0000 </r>
       <r>  -55.6702    1.0000 </r>
       <r>  -29.7165    1.0000 </r>
       <r>  -29.6731    1.0000 </r>
       <r>  -29.4653    1.0000 </r>
       <r>  -29.4651    1.0000 </r>
       <r>  -29.4647    1.0000 </r>
       <r>  -29.4610    1.0000 </r>
       <r>  -29.2733    1.0000 </r>
       <r>  -29.2315    1.0000 </r>
       <r>  -29.1896    1.0000 </r>
       <r>  -29.1541    1.0000 </r>
       <r>  -29.1523    1.0000 </r>
       <r>  -29.1377    1.0000 </r>
       <r>  -29.1375    1.0000 </r>
       <r>  -29.1241    1.0000 </r>
       <r>  -28.9724    1.0000 </r>
       <r>  -28.8979    1.0000 </r>
       <r>  -28.8612    1.0000 </r>
       <r>  -28.8167    1.0000 </r>
       <r>   -3.4894    1.0000 </r>
       <r>   -1.4111    1.0000 </r>
       <r>   -0.9763    1.0000 </r>
       <r>   -0.1334    1.0000 </r>
       <r>    0.3380    1.0000 </r>
       <r>    0.6373    1.0000 </r>
       <r>    1.3524    1.0000 </r>
       <r>    1.7726    1.0000 </r>
       <r>    2.2870    1.0000 </r>
       <r>    3.3603    1.0000 </r>
       <r>    3.5085    1.0000 </r>
       <r>    3.5677    1.0000 </r>
       <r>    3.6426    1.0000 </r>
       <r>    3.6539    1.0000 </r>
       <r>    3.8251    1.0000 </r>
       <r>    3.9434    1.0000 </r>
       <r>    4.0797    1.0000 </r>
       <r>    4.1186    1.0000 </r>
       <r>    4.3291    1.0000 </r>
       <r>    4.5283    1.0000 </r>
       <r>    5.2660    1.0000 </r>
       <r>    5.6128    1.0000 </r>
       <r>    5.6782    1.0000 </r>
       <r>    6.2608    1.0000 </r>
       <r>    6.6094    1.0000 </r>
       <r>    6.8278    1.0000 </r>
       <r>    6.9458    1.0000 </r>
       <r>    7.1236    0.8406 </r>
       <r>    7.2174    0.0000 </r>
       <r>    7.4375    0.0000 </r>
       <r>    7.5194    0.0000 </r>
       <r>    7.8685    0.0000 </r>
       <r>    7.9636    0.0000 </r>
       <r>    8.2793    0.0000 </r>
       <r>    8.6581    0.0000 </r>
       <r>    8.8555    0.0000 </r>
       <r>    9.0110    0.0000 </r>
       <r>    9.0149    0.0000 </r>
       <r>    9.2997    0.0000 </r>
       <r>    9.6574    0.0000 </r>
       <r>    9.7971    0.0000 </r>
       <r>   10.0511    0.0000 </r>
      </set>
      <set comment="kpoint 4">
       <r>  -56.0834    1.0000 </r>
       <r>  -56.0830    1.0000 </r>
       <r>  -55.6898    1.0000 </r>
       <r>  -55.6868    1.0000 </r>
       <r>  -55.6760    1.0000 </r>
       <r>  -55.6729    1.0000 </r>
       <r>  -29.6922    1.0000 </r>
       <r>  -29.6766    1.0000 </r>
       <r>  -29.4557    1.0000 </r>
       <r>  -29.4556    1.0000 </r>
       <r>  -29.4552    1.0000 </r>
       <r>  -29.4537    1.0000 </r>
       <r>  -29.2745    1.0000 </r>
       <r>  -29.2596    1.0000 </r>
       <r>  -29.1767    1.0000 </r>
       <r>  -29.1579    1.0000 </r>
       <r>  -29.1533    1.0000 </r>
       <r>  -29.1478    1.0000 </r>
       <r>  -29.1469    1.0000 </r>
       <r>  -29.1366    1.0000 </r>
       <r>  -28.9504    1.0000 </r>
       <r>  -28.9239    1.0000 </r>
       <r>  -28.8486    1.0000 </r>
       <r>  -28.8328    1.0000 </r>
       <r>   -2.9409    1.0000 </r>
       <r>   -2.2297    1.0000 </r>
       <r>   -0.6143    1.0000 </r>
       <r>   -0.1548    1.0000 </r>
       <r>    0.0741    1.0000 </r>
       <r>    0.3425    1.0000 </r>
       <r>    1.9494    1.0000 </r>
       <r>    2.3369    1.0000 </r>
       <r>    2.7251    1.0000 </r>
       <r>    2.8733    1.0000 </r>
       <r>    3.0457    1.0000 </r>
       <r>    3.3105    1.0000 </r>
       <r>    3.7313    1.0000 </r>
       <r>    3.8477    1.0000 </r>
       <r>    3.9842    1.0000 </r>
       <r>    4.1223    1.0000 </r>
       <r>    4.1787    1.0000 </r>
       <r>    4.3901    1.0000 </r>
       <r>    4.4503    1.0000 </r>
       <r>    4.5317    1.0000 </r>
       <r>    4.9095    1.0000 </r>
       <r>    4.9888    1.0000 </r>
       <r>    5.7305    1.0000 </r>
       <r>    5.9845    1.0000 </r>
       <r>    6.2674    1.0000 </r>
       <r>    6.4086    1.0000 </r>
       <r>    7.0190    1.0000 </r>
       <r>    7.0343    1.0000 </r>
       <r>    7.2142    0.0000 </r>
       <r>    7.3390    0.0000 </r>
       <r>    7.5193    0.0000 </r>
       <r>    7.6689    0.0000 </r>
       <r>    7.6744    0.0000 </r>
       <r>    7.8686    0.0000 </r>
       <r>    8.7575    0.0000 </r>
       <r>    8.8108    0.0000 </r>
       <r>    8.8631    0.0000 </r>
       <r>    8.8800    0.0000 </r>
       <r>    9.5098    0.0000 </r>
       <r>    9.6556    0.0000 </r>
       <r>   10.2870    0.0000 </r>
       <r>   10.5297    0.0000 </r>
      </set>
      <set comment="kpoint 5">
       <r>  -56.0840    1.0000 </r>
       <r>  -56.0828    1.0000 </r>
       <r>  -55.6935    1.0000 </r>
       <r>  -55.6814    1.0000 </r>
       <r>  -55.6813    1.0000 </r>
       <r>  -55.6690    1.0000 </r>
       <r>  -29.7234    1.0000 </r>
       <r>  -29.6741    1.0000 </r>
       <r>  -29.4715    1.0000 </r>
       <r>  -29.4679    1.0000 </r>
       <r>  -29.4650    1.0000 </r>
       <r>  -29.4633    1.0000 </r>
       <r>  -29.2765    1.0000 </r>
       <r>  -29.2135    1.0000 </r>
       <r>  -29.2043    1.0000 </r>
       <r>  -29.1546    1.0000 </r>
       <r>  -29.1524    1.0000 </r>
       <r>  -29.1364    1.0000 </r>
       <r>  -29.1301    1.0000 </r>
       <r>  -29.1161    1.0000 </r>
       <r>  -28.9819    1.0000 </r>
       <r>  -28.8762    1.0000 </r>
       <r>  -28.8757    1.0000 </r>
       <r>  -28.8092    1.0000 </r>
       <r>   -3.6363    1.0000 </r>
       <r>   -1.0837    1.0000 </r>
       <r>   -1.0802    1.0000 </r>
       <r>   -0.1457    1.0000 </r>
       <r>    0.5596    1.0000 </r>
       <r>    0.5725    1.0000 </r>
       <r>    1.2386    1.0000 </r>
       <r>    1.5897    1.0000 </r>
       <r>    2.0942    1.0000 </r>
       <r>    3.2287    1.0000 </r>
       <r>    3.3834    1.0000 </r>
       <r>    3.6227    1.0000 </r>
       <r>    3.6894    1.0000 </r>
       <r>    3.8239    1.0000 </r>
       <r>    3.8281    1.0000 </r>
       <r>    3.8460    1.0000 </r>
       <r>    3.9259    1.0000 </r>
       <r>    4.1633    1.0000 </r>
       <r>    4.4432    1.0000 </r>
       <r>    4.7022    1.0000 </r>
       <r>    5.1671    1.0000 </r>
       <r>    5.5459    1.0000 </r>
       <r>    6.0548    1.0000 </r>
       <r>    6.4349    1.0000 </r>
       <r>    6.6684    1.0000 </r>
       <r>    6.7591    1.0000 </r>
       <r>    7.0771    1.0000 </r>
       <r>    7.2017    0.0000 </r>
       <r>    7.3258    0.0000 </r>
       <r>    7.4343    0.0000 </r>
       <r>    7.4791    0.0000 </r>
       <r>    8.0569    0.0000 </r>
       <r>    8.0726    0.0000 </r>
       <r>    8.5562    0.0000 </r>
       <r>    8.6818    0.0000 </r>
       <r>    8.8452    0.0000 </r>
       <r>    8.8736    0.0000 </r>
       <r>    9.1837    0.0000 </r>
       <r>    9.2734    0.0000 </r>
       <r>    9.4510    0.0000 </r>
       <r>    9.8425    0.0000 </r>
       <r>   10.2048    0.0000 </r>
      </set>
      <set comment="kpoint 6">
       <r>  -56.0835    1.0000 </r>
       <r>  -56.0830    1.0000 </r>
       <r>  -55.6918    1.0000 </r>
       <r>  -55.6833    1.0000 </r>
       <r>  -55.6794    1.0000 </r>
       <r>  -55.6709    1.0000 </r>
       <r>  -29.7001    1.0000 </r>
       <r>  -29.6734    1.0000 </r>
       <r>  -29.4618    1.0000 </r>
       <r>  -29.4586    1.0000 </r>
       <r>  -29.4551    1.0000 </r>
       <r>  -29.4551    1.0000 </r>
       <r>  -29.2826    1.0000 </r>
       <r>  -29.2336    1.0000 </r>
       <r>  -29.2002    1.0000 </r>
       <r>  -29.1572    1.0000 </r>
       <r>  -29.1496    1.0000 </r>
       <r>  -29.1480    1.0000 </r>
       <r>  -29.1409    1.0000 </r>
       <r>  -29.1284    1.0000 </r>
       <r>  -28.9681    1.0000 </r>
       <r>  -28.8947    1.0000 </r>
       <r>  -28.8678    1.0000 </r>
       <r>  -28.8219    1.0000 </r>
       <r>   -3.2254    1.0000 </r>
       <r>   -1.7835    1.0000 </r>
       <r>   -0.8302    1.0000 </r>
       <r>    0.0468    1.0000 </r>
       <r>    0.1457    1.0000 </r>
       <r>    0.2954    1.0000 </r>
       <r>    1.7010    1.0000 </r>
       <r>    1.9466    1.0000 </r>
       <r>    2.6581    1.0000 </r>
       <r>    3.0213    1.0000 </r>
       <r>    3.3589    1.0000 </r>
       <r>    3.5183    1.0000 </r>
       <r>    3.6023    1.0000 </r>
       <r>    3.6118    1.0000 </r>
       <r>    4.0757    1.0000 </r>
       <r>    4.0795    1.0000 </r>
       <r>    4.2214    1.0000 </r>
       <r>    4.2445    1.0000 </r>
       <r>    4.2903    1.0000 </r>
       <r>    4.5902    1.0000 </r>
       <r>    4.8573    1.0000 </r>
       <r>    5.4084    1.0000 </r>
       <r>    5.4921    1.0000 </r>
       <r>    6.2480    1.0000 </r>
       <r>    6.3236    1.0000 </r>
       <r>    6.7818    1.0000 </r>
       <r>    6.8506    1.0000 </r>
       <r>    6.8796    1.0000 </r>
       <r>    7.2398    0.0000 </r>
       <r>    7.2743    0.0000 </r>
       <r>    7.5652    0.0000 </r>
       <r>    7.6987    0.0000 </r>
       <r>    7.8743    0.0000 </r>
       <r>    8.3051    0.0000 </r>
       <r>    8.5824    0.0000 </r>
       <r>    8.8143    0.0000 </r>
       <r>    8.8864    0.0000 </r>
       <r>    9.1854    0.0000 </r>
       <r>    9.4356    0.0000 </r>
       <r>    9.7456    0.0000 </r>
       <r>    9.8992    0.0000 </r>
       <r>   10.6330    0.0000 </r>
      </set>
      <set comment="kpoint 7">
       <r>  -56.0833    1.0000 </r>
       <r>  -56.0831    1.0000 </r>
       <r>  -55.6893    1.0000 </r>
       <r>  -55.6860    1.0000 </r>
       <r>  -55.6767    1.0000 </r>
       <r>  -55.6736    1.0000 </r>
       <r>  -29.6816    1.0000 </r>
       <r>  -29.6797    1.0000 </r>
       <r>  -29.4559    1.0000 </r>
       <r>  -29.4540    1.0000 </r>
       <r>  -29.4524    1.0000 </r>
       <r>  -29.4505    1.0000 </r>
       <r>  -29.2757    1.0000 </r>
       <r>  -29.2532    1.0000 </r>
       <r>  -29.1838    1.0000 </r>
       <r>  -29.1602    1.0000 </r>
       <r>  -29.1564    1.0000 </r>
       <r>  -29.1514    1.0000 </r>
       <r>  -29.1424    1.0000 </r>
       <r>  -29.1423    1.0000 </r>
       <r>  -28.9466    1.0000 </r>
       <r>  -28.9202    1.0000 </r>
       <r>  -28.8547    1.0000 </r>
       <r>  -28.8385    1.0000 </r>
       <r>   -2.6349    1.0000 </r>
       <r>   -2.4932    1.0000 </r>
       <r>   -0.4785    1.0000 </r>
       <r>   -0.3121    1.0000 </r>
       <r>    0.0635    1.0000 </r>
       <r>    0.3008    1.0000 </r>
       <r>    2.2323    1.0000 </r>
       <r>    2.2707    1.0000 </r>
       <r>    2.6072    1.0000 </r>
       <r>    2.7452    1.0000 </r>
       <r>    3.1458    1.0000 </r>
       <r>    3.2764    1.0000 </r>
       <r>    3.8123    1.0000 </r>
       <r>    3.8603    1.0000 </r>
       <r>    3.9844    1.0000 </r>
       <r>    4.0586    1.0000 </r>
       <r>    4.2715    1.0000 </r>
       <r>    4.2848    1.0000 </r>
       <r>    4.4739    1.0000 </r>
       <r>    4.6283    1.0000 </r>
       <r>    4.8253    1.0000 </r>
       <r>    4.8964    1.0000 </r>
       <r>    5.7230    1.0000 </r>
       <r>    6.0005    1.0000 </r>
       <r>    6.0562    1.0000 </r>
       <r>    6.4769    1.0000 </r>
       <r>    6.8576    1.0000 </r>
       <r>    7.0365    1.0000 </r>
       <r>    7.2034    0.0000 </r>
       <r>    7.2881    0.0000 </r>
       <r>    7.5765    0.0000 </r>
       <r>    7.6632    0.0000 </r>
       <r>    7.6745    0.0000 </r>
       <r>    7.8942    0.0000 </r>
       <r>    8.6504    0.0000 </r>
       <r>    8.7354    0.0000 </r>
       <r>    8.9625    0.0000 </r>
       <r>    9.0273    0.0000 </r>
       <r>    9.6100    0.0000 </r>
       <r>    9.6622    0.0000 </r>
       <r>   10.1588    0.0000 </r>
       <r>   10.5014    0.0000 </r>
      </set>
      <set comment="kpoint 8">
       <r>  -56.0837    1.0000 </r>
       <r>  -56.0828    1.0000 </r>
       <r>  -55.6889    1.0000 </r>
       <r>  -55.6862    1.0000 </r>
       <r>  -55.6767    1.0000 </r>
       <r>  -55.6736    1.0000 </r>
       <r>  -29.7001    1.0000 </r>
       <r>  -29.6705    1.0000 </r>
       <r>  -29.4653    1.0000 </r>
       <r>  -29.4622    1.0000 </r>
       <r>  -29.4517    1.0000 </r>
       <r>  -29.4517    1.0000 </r>
       <r>  -29.2609    1.0000 </r>
       <r>  -29.2517    1.0000 </r>
       <r>  -29.1746    1.0000 </r>
       <r>  -29.1594    1.0000 </r>
       <r>  -29.1542    1.0000 </r>
       <r>  -29.1525    1.0000 </r>
       <r>  -29.1499    1.0000 </r>
       <r>  -29.1332    1.0000 </r>
       <r>  -28.9464    1.0000 </r>
       <r>  -28.9205    1.0000 </r>
       <r>  -28.8549    1.0000 </r>
       <r>  -28.8384    1.0000 </r>
       <r>   -3.1056    1.0000 </r>
       <r>   -1.9166    1.0000 </r>
       <r>   -0.7150    1.0000 </r>
       <r>   -0.1261    1.0000 </r>
       <r>   -0.0914    1.0000 </r>
       <r>    0.5934    1.0000 </r>
       <r>    1.6988    1.0000 </r>
       <r>    2.0523    1.0000 </r>
       <r>    2.7917    1.0000 </r>
       <r>    2.9010    1.0000 </r>
       <r>    3.3259    1.0000 </r>
       <r>    3.5250    1.0000 </r>
       <r>    3.5984    1.0000 </r>
       <r>    3.7742    1.0000 </r>
       <r>    3.9486    1.0000 </r>
       <r>    4.0005    1.0000 </r>
       <r>    4.1476    1.0000 </r>
       <r>    4.2880    1.0000 </r>
       <r>    4.4284    1.0000 </r>
       <r>    4.4930    1.0000 </r>
       <r>    4.7017    1.0000 </r>
       <r>    5.5172    1.0000 </r>
       <r>    5.7822    1.0000 </r>
       <r>    5.9595    1.0000 </r>
       <r>    6.3827    1.0000 </r>
       <r>    6.5053    1.0000 </r>
       <r>    6.8599    1.0000 </r>
       <r>    7.1339    0.6051 </r>
       <r>    7.1377    0.4994 </r>
       <r>    7.3687    0.0000 </r>
       <r>    7.5408    0.0000 </r>
       <r>    7.7824    0.0000 </r>
       <r>    7.8434    0.0000 </r>
       <r>    7.8538    0.0000 </r>
       <r>    8.6412    0.0000 </r>
       <r>    8.7181    0.0000 </r>
       <r>    8.9684    0.0000 </r>
       <r>    9.1668    0.0000 </r>
       <r>    9.5200    0.0000 </r>
       <r>    9.6616    0.0000 </r>
       <r>    9.7445    0.0000 </r>
       <r>   10.4387    0.0000 </r>
      </set>
      <set comment="kpoint 9">
       <r>  -56.0841    1.0000 </r>
       <r>  -56.0827    1.0000 </r>
       <r>  -55.6915    1.0000 </r>
       <r>  -55.6834    1.0000 </r>
       <r>  -55.6794    1.0000 </r>
       <r>  -55.6708    1.0000 </r>
       <r>  -29.7224    1.0000 </r>
       <r>  -29.6717    1.0000 </r>
       <r>  -29.4752    1.0000 </r>
       <r>  -29.4709    1.0000 </r>
       <r>  -29.4613    1.0000 </r>
       <r>  -29.4599    1.0000 </r>
       <r>  -29.2610    1.0000 </r>
       <r>  -29.2229    1.0000 </r>
       <r>  -29.1879    1.0000 </r>
       <r>  -29.1567    1.0000 </r>
       <r>  -29.1515    1.0000 </r>
       <r>  -29.1410    1.0000 </r>
       <r>  -29.1333    1.0000 </r>
       <r>  -29.1252    1.0000 </r>
       <r>  -28.9680    1.0000 </r>
       <r>  -28.8950    1.0000 </r>
       <r>  -28.8679    1.0000 </r>
       <r>  -28.8218    1.0000 </r>
       <r>   -3.5573    1.0000 </r>
       <r>   -1.1570    1.0000 </r>
       <r>   -1.0148    1.0000 </r>
       <r>   -0.2516    1.0000 </r>
       <r>    0.2156    1.0000 </r>
       <r>    0.8808    1.0000 </r>
       <r>    1.3931    1.0000 </r>
       <r>    1.5146    1.0000 </r>
       <r>    2.1969    1.0000 </r>
       <r>    3.3662    1.0000 </r>
       <r>    3.4852    1.0000 </r>
       <r>    3.6264    1.0000 </r>
       <r>    3.6510    1.0000 </r>
       <r>    3.6518    1.0000 </r>
       <r>    3.7712    1.0000 </r>
       <r>    3.7734    1.0000 </r>
       <r>    4.0881    1.0000 </r>
       <r>    4.0978    1.0000 </r>
       <r>    4.4798    1.0000 </r>
       <r>    4.6185    1.0000 </r>
       <r>    5.1714    1.0000 </r>
       <r>    5.4396    1.0000 </r>
       <r>    6.1731    1.0000 </r>
       <r>    6.2473    1.0000 </r>
       <r>    6.8232    1.0000 </r>
       <r>    6.8455    1.0000 </r>
       <r>    6.9675    1.0000 </r>
       <r>    7.0067    1.0000 </r>
       <r>    7.3399    0.0000 </r>
       <r>    7.4574    0.0000 </r>
       <r>    7.6819    0.0000 </r>
       <r>    7.8959    0.0000 </r>
       <r>    8.1346    0.0000 </r>
       <r>    8.1705    0.0000 </r>
       <r>    8.5358    0.0000 </r>
       <r>    8.6498    0.0000 </r>
       <r>    8.9978    0.0000 </r>
       <r>    9.2784    0.0000 </r>
       <r>    9.3129    0.0000 </r>
       <r>    9.4730    0.0000 </r>
       <r>    9.8862    0.0000 </r>
       <r>   10.0591    0.0000 </r>
      </set>
      <set comment="kpoint 10">
       <r>  -56.0843    1.0000 </r>
       <r>  -56.0826    1.0000 </r>
       <r>  -55.6933    1.0000 </r>
       <r>  -55.6815    1.0000 </r>
       <r>  -55.6812    1.0000 </r>
       <r>  -55.6689    1.0000 </r>
       <r>  -29.7378    1.0000 </r>
       <r>  -29.6760    1.0000 </r>
       <r>  -29.4791    1.0000 </r>
       <r>  -29.4748    1.0000 </r>
       <r>  -29.4712    1.0000 </r>
       <r>  -29.4690    1.0000 </r>
       <r>  -29.2626    1.0000 </r>
       <r>  -29.2057    1.0000 </r>
       <r>  -29.1969    1.0000 </r>
       <r>  -29.1545    1.0000 </r>
       <r>  -29.1497    1.0000 </r>
       <r>  -29.1302    1.0000 </r>
       <r>  -29.1218    1.0000 </r>
       <r>  -29.1173    1.0000 </r>
       <r>  -28.9818    1.0000 </r>
       <r>  -28.8763    1.0000 </r>
       <r>  -28.8758    1.0000 </r>
       <r>  -28.8091    1.0000 </r>
       <r>   -3.8078    1.0000 </r>
       <r>   -1.1831    1.0000 </r>
       <r>   -0.5680    1.0000 </r>
       <r>   -0.2991    1.0000 </r>
       <r>    0.3946    1.0000 </r>
       <r>    1.0205    1.0000 </r>
       <r>    1.2496    1.0000 </r>
       <r>    1.4245    1.0000 </r>
       <r>    1.5910    1.0000 </r>
       <r>    3.1709    1.0000 </r>
       <r>    3.2989    1.0000 </r>
       <r>    3.5077    1.0000 </r>
       <r>    3.5856    1.0000 </r>
       <r>    3.7072    1.0000 </r>
       <r>    3.7227    1.0000 </r>
       <r>    3.7691    1.0000 </r>
       <r>    4.0992    1.0000 </r>
       <r>    4.2618    1.0000 </r>
       <r>    4.7011    1.0000 </r>
       <r>    4.8204    1.0000 </r>
       <r>    5.1924    1.0000 </r>
       <r>    5.7874    1.0000 </r>
       <r>    6.4182    1.0000 </r>
       <r>    6.4347    1.0000 </r>
       <r>    6.6617    1.0000 </r>
       <r>    7.0253    1.0000 </r>
       <r>    7.1721    0.0075 </r>
       <r>    7.4771    0.0000 </r>
       <r>    7.5310    0.0000 </r>
       <r>    7.5794    0.0000 </r>
       <r>    7.9021    0.0000 </r>
       <r>    8.1662    0.0000 </r>
       <r>    8.2256    0.0000 </r>
       <r>    8.4310    0.0000 </r>
       <r>    8.4710    0.0000 </r>
       <r>    8.5587    0.0000 </r>
       <r>    8.9520    0.0000 </r>
       <r>    9.1554    0.0000 </r>
       <r>    9.2470    0.0000 </r>
       <r>    9.6398    0.0000 </r>
       <r>    9.7155    0.0000 </r>
       <r>   10.0329    0.0000 </r>
      </set>
      <set comment="kpoint 11">
       <r>  -56.0832    1.0000 </r>
       <r>  -56.0832    1.0000 </r>
       <r>  -55.6901    1.0000 </r>
       <r>  -55.6814    1.0000 </r>
       <r>  -55.6812    1.0000 </r>
       <r>  -55.6728    1.0000 </r>
       <r>  -29.6808    1.0000 </r>
       <r>  -29.6765    1.0000 </r>
       <r>  -29.4560    1.0000 </r>
       <r>  -29.4535    1.0000 </r>
       <r>  -29.4528    1.0000 </r>
       <r>  -29.4494    1.0000 </r>
       <r>  -29.2803    1.0000 </r>
       <r>  -29.2242    1.0000 </r>
       <r>  -29.2142    1.0000 </r>
       <r>  -29.1616    1.0000 </r>
       <r>  -29.1545    1.0000 </r>
       <r>  -29.1497    1.0000 </r>
       <r>  -29.1433    1.0000 </r>
       <r>  -29.1411    1.0000 </r>
       <r>  -28.9552    1.0000 </r>
       <r>  -28.8863    1.0000 </r>
       <r>  -28.8850    1.0000 </r>
       <r>  -28.8356    1.0000 </r>
       <r>   -2.7861    1.0000 </r>
       <r>   -2.2332    1.0000 </r>
       <r>   -0.6054    1.0000 </r>
       <r>   -0.1639    1.0000 </r>
       <r>   -0.0032    1.0000 </r>
       <r>    0.2764    1.0000 </r>
       <r>    2.0916    1.0000 </r>
       <r>    2.3692    1.0000 </r>
       <r>    2.3932    1.0000 </r>
       <r>    2.8884    1.0000 </r>
       <r>    3.0681    1.0000 </r>
       <r>    3.5553    1.0000 </r>
       <r>    3.6528    1.0000 </r>
       <r>    3.8275    1.0000 </r>
       <r>    3.8816    1.0000 </r>
       <r>    4.1769    1.0000 </r>
       <r>    4.2658    1.0000 </r>
       <r>    4.2976    1.0000 </r>
       <r>    4.3640    1.0000 </r>
       <r>    4.7319    1.0000 </r>
       <r>    4.8558    1.0000 </r>
       <r>    4.8670    1.0000 </r>
       <r>    5.6161    1.0000 </r>
       <r>    5.9861    1.0000 </r>
       <r>    6.1334    1.0000 </r>
       <r>    6.6105    1.0000 </r>
       <r>    6.6388    1.0000 </r>
       <r>    6.9547    1.0000 </r>
       <r>    7.2306    0.0000 </r>
       <r>    7.2547    0.0000 </r>
       <r>    7.5479    0.0000 </r>
       <r>    7.7080    0.0000 </r>
       <r>    7.8025    0.0000 </r>
       <r>    8.1308    0.0000 </r>
       <r>    8.4463    0.0000 </r>
       <r>    8.6975    0.0000 </r>
       <r>    9.0382    0.0000 </r>
       <r>    9.2122    0.0000 </r>
       <r>    9.6796    0.0000 </r>
       <r>    9.8091    0.0000 </r>
       <r>   10.2379    0.0000 </r>
       <r>   10.3041    0.0000 </r>
      </set>
      <set comment="kpoint 12">
       <r>  -56.0835    1.0000 </r>
       <r>  -56.0828    1.0000 </r>
       <r>  -55.6875    1.0000 </r>
       <r>  -55.6840    1.0000 </r>
       <r>  -55.6785    1.0000 </r>
       <r>  -55.6756    1.0000 </r>
       <r>  -29.6861    1.0000 </r>
       <r>  -29.6680    1.0000 </r>
       <r>  -29.4655    1.0000 </r>
       <r>  -29.4608    1.0000 </r>
       <r>  -29.4442    1.0000 </r>
       <r>  -29.4416    1.0000 </r>
       <r>  -29.2634    1.0000 </r>
       <r>  -29.2344    1.0000 </r>
       <r>  -29.1958    1.0000 </r>
       <r>  -29.1638    1.0000 </r>
       <r>  -29.1636    1.0000 </r>
       <r>  -29.1575    1.0000 </r>
       <r>  -29.1523    1.0000 </r>
       <r>  -29.1342    1.0000 </r>
       <r>  -28.9350    1.0000 </r>
       <r>  -28.9100    1.0000 </r>
       <r>  -28.8714    1.0000 </r>
       <r>  -28.8537    1.0000 </r>
       <r>   -2.7094    1.0000 </r>
       <r>   -2.2192    1.0000 </r>
       <r>   -0.4840    1.0000 </r>
       <r>   -0.3591    1.0000 </r>
       <r>   -0.1866    1.0000 </r>
       <r>    0.5392    1.0000 </r>
       <r>    1.8828    1.0000 </r>
       <r>    2.2669    1.0000 </r>
       <r>    2.4182    1.0000 </r>
       <r>    3.0505    1.0000 </r>
       <r>    3.3352    1.0000 </r>
       <r>    3.4611    1.0000 </r>
       <r>    3.6735    1.0000 </r>
       <r>    3.8140    1.0000 </r>
       <r>    3.8752    1.0000 </r>
       <r>    4.0999    1.0000 </r>
       <r>    4.1674    1.0000 </r>
       <r>    4.2712    1.0000 </r>
       <r>    4.2960    1.0000 </r>
       <r>    4.4118    1.0000 </r>
       <r>    4.7395    1.0000 </r>
       <r>    5.5603    1.0000 </r>
       <r>    5.7566    1.0000 </r>
       <r>    5.9427    1.0000 </r>
       <r>    5.9626    1.0000 </r>
       <r>    6.3910    1.0000 </r>
       <r>    6.5930    1.0000 </r>
       <r>    7.1111    0.9697 </r>
       <r>    7.2607    0.0000 </r>
       <r>    7.4047    0.0000 </r>
       <r>    7.5953    0.0000 </r>
       <r>    7.6695    0.0000 </r>
       <r>    7.7710    0.0000 </r>
       <r>    7.9076    0.0000 </r>
       <r>    8.3720    0.0000 </r>
       <r>    8.6835    0.0000 </r>
       <r>    9.1181    0.0000 </r>
       <r>    9.3296    0.0000 </r>
       <r>    9.5355    0.0000 </r>
       <r>    9.7229    0.0000 </r>
       <r>    9.9524    0.0000 </r>
       <r>   10.6763    0.0000 </r>
      </set>
      <set comment="kpoint 13">
       <r>  -56.0838    1.0000 </r>
       <r>  -56.0827    1.0000 </r>
       <r>  -55.6869    1.0000 </r>
       <r>  -55.6844    1.0000 </r>
       <r>  -55.6787    1.0000 </r>
       <r>  -55.6755    1.0000 </r>
       <r>  -29.7014    1.0000 </r>
       <r>  -29.6651    1.0000 </r>
       <r>  -29.4754    1.0000 </r>
       <r>  -29.4690    1.0000 </r>
       <r>  -29.4439    1.0000 </r>
       <r>  -29.4426    1.0000 </r>
       <r>  -29.2440    1.0000 </r>
       <r>  -29.2387    1.0000 </r>
       <r>  -29.1790    1.0000 </r>
       <r>  -29.1695    1.0000 </r>
       <r>  -29.1636    1.0000 </r>
       <r>  -29.1599    1.0000 </r>
       <r>  -29.1514    1.0000 </r>
       <r>  -29.1256    1.0000 </r>
       <r>  -28.9348    1.0000 </r>
       <r>  -28.9103    1.0000 </r>
       <r>  -28.8716    1.0000 </r>
       <r>  -28.8536    1.0000 </r>
       <r>   -3.1322    1.0000 </r>
       <r>   -1.6194    1.0000 </r>
       <r>   -0.7539    1.0000 </r>
       <r>   -0.2801    1.0000 </r>
       <r>   -0.1678    1.0000 </r>
       <r>    0.8193    1.0000 </r>
       <r>    1.5029    1.0000 </r>
       <r>    1.7570    1.0000 </r>
       <r>    2.8399    1.0000 </r>
       <r>    2.9229    1.0000 </r>
       <r>    3.4841    1.0000 </r>
       <r>    3.6189    1.0000 </r>
       <r>    3.6379    1.0000 </r>
       <r>    3.7748    1.0000 </r>
       <r>    3.8903    1.0000 </r>
       <r>    4.0443    1.0000 </r>
       <r>    4.0631    1.0000 </r>
       <r>    4.1940    1.0000 </r>
       <r>    4.2932    1.0000 </r>
       <r>    4.4540    1.0000 </r>
       <r>    4.5467    1.0000 </r>
       <r>    5.6850    1.0000 </r>
       <r>    5.9507    1.0000 </r>
       <r>    6.1885    1.0000 </r>
       <r>    6.3510    1.0000 </r>
       <r>    6.4172    1.0000 </r>
       <r>    6.7516    1.0000 </r>
       <r>    7.1934    0.0000 </r>
       <r>    7.2315    0.0000 </r>
       <r>    7.3866    0.0000 </r>
       <r>    7.5438    0.0000 </r>
       <r>    7.8621    0.0000 </r>
       <r>    7.8759    0.0000 </r>
       <r>    7.9495    0.0000 </r>
       <r>    8.2550    0.0000 </r>
       <r>    8.6872    0.0000 </r>
       <r>    9.0705    0.0000 </r>
       <r>    9.2837    0.0000 </r>
       <r>    9.3696    0.0000 </r>
       <r>    9.7164    0.0000 </r>
       <r>    9.9285    0.0000 </r>
       <r>   10.6104    0.0000 </r>
      </set>
      <set comment="kpoint 14">
       <r>  -56.0840    1.0000 </r>
       <r>  -56.0826    1.0000 </r>
       <r>  -55.6896    1.0000 </r>
       <r>  -55.6817    1.0000 </r>
       <r>  -55.6812    1.0000 </r>
       <r>  -55.6727    1.0000 </r>
       <r>  -29.7160    1.0000 </r>
       <r>  -29.6682    1.0000 </r>
       <r>  -29.4793    1.0000 </r>
       <r>  -29.4728    1.0000 </r>
       <r>  -29.4519    1.0000 </r>
       <r>  -29.4518    1.0000 </r>
       <r>  -29.2511    1.0000 </r>
       <r>  -29.2202    1.0000 </r>
       <r>  -29.1898    1.0000 </r>
       <r>  -29.1624    1.0000 </r>
       <r>  -29.1502    1.0000 </r>
       <r>  -29.1500    1.0000 </r>
       <r>  -29.1479    1.0000 </r>
       <r>  -29.1219    1.0000 </r>
       <r>  -28.9551    1.0000 </r>
       <r>  -28.8866    1.0000 </r>
       <r>  -28.8853    1.0000 </r>
       <r>  -28.8356    1.0000 </r>
       <r>   -3.4305    1.0000 </r>
       <r>   -1.1866    1.0000 </r>
       <r>   -0.9380    1.0000 </r>
       <r>   -0.3010    1.0000 </r>
       <r>   -0.0205    1.0000 </r>
       <r>    1.0934    1.0000 </r>
       <r>    1.1515    1.0000 </r>
       <r>    1.5959    1.0000 </r>
       <r>    2.4670    1.0000 </r>
       <r>    3.2897    1.0000 </r>
       <r>    3.3798    1.0000 </r>
       <r>    3.5474    1.0000 </r>
       <r>    3.7393    1.0000 </r>
       <r>    3.7452    1.0000 </r>
       <r>    3.7723    1.0000 </r>
       <r>    3.7961    1.0000 </r>
       <r>    4.0959    1.0000 </r>
       <r>    4.2377    1.0000 </r>
       <r>    4.4562    1.0000 </r>
       <r>    4.6154    1.0000 </r>
       <r>    4.6856    1.0000 </r>
       <r>    5.4788    1.0000 </r>
       <r>    6.1715    1.0000 </r>
       <r>    6.4190    1.0000 </r>
       <r>    6.6530    1.0000 </r>
       <r>    6.7614    1.0000 </r>
       <r>    6.9241    1.0000 </r>
       <r>    6.9502    1.0000 </r>
       <r>    7.3148    0.0000 </r>
       <r>    7.4831    0.0000 </r>
       <r>    7.8409    0.0000 </r>
       <r>    7.9460    0.0000 </r>
       <r>    7.9639    0.0000 </r>
       <r>    8.0551    0.0000 </r>
       <r>    8.1501    0.0000 </r>
       <r>    8.5540    0.0000 </r>
       <r>    9.0764    0.0000 </r>
       <r>    9.2237    0.0000 </r>
       <r>    9.2529    0.0000 </r>
       <r>    9.8404    0.0000 </r>
       <r>    9.9511    0.0000 </r>
       <r>   10.2683    0.0000 </r>
      </set>
      <set comment="kpoint 15">
       <r>  -56.0837    1.0000 </r>
       <r>  -56.0827    1.0000 </r>
       <r>  -55.6847    1.0000 </r>
       <r>  -55.6814    1.0000 </r>
       <r>  -55.6810    1.0000 </r>
       <r>  -55.6784    1.0000 </r>
       <r>  -29.6916    1.0000 </r>
       <r>  -29.6620    1.0000 </r>
       <r>  -29.4755    1.0000 </r>
       <r>  -29.4681    1.0000 </r>
       <r>  -29.4361    1.0000 </r>
       <r>  -29.4337    1.0000 </r>
       <r>  -29.2459    1.0000 </r>
       <r>  -29.2226    1.0000 </r>
       <r>  -29.1996    1.0000 </r>
       <r>  -29.1748    1.0000 </r>
       <r>  -29.1692    1.0000 </r>
       <r>  -29.1675    1.0000 </r>
       <r>  -29.1514    1.0000 </r>
       <r>  -29.1257    1.0000 </r>
       <r>  -28.9166    1.0000 </r>
       <r>  -28.8950    1.0000 </r>
       <r>  -28.8929    1.0000 </r>
       <r>  -28.8739    1.0000 </r>
       <r>   -2.8962    1.0000 </r>
       <r>   -1.7850    1.0000 </r>
       <r>   -0.6274    1.0000 </r>
       <r>   -0.3384    1.0000 </r>
       <r>   -0.3071    1.0000 </r>
       <r>    0.7876    1.0000 </r>
       <r>    1.5563    1.0000 </r>
       <r>    1.8579    1.0000 </r>
       <r>    2.6078    1.0000 </r>
       <r>    3.3581    1.0000 </r>
       <r>    3.4001    1.0000 </r>
       <r>    3.5235    1.0000 </r>
       <r>    3.6441    1.0000 </r>
       <r>    3.7546    1.0000 </r>
       <r>    3.8391    1.0000 </r>
       <r>    3.9009    1.0000 </r>
       <r>    4.1006    1.0000 </r>
       <r>    4.1772    1.0000 </r>
       <r>    4.2831    1.0000 </r>
       <r>    4.4954    1.0000 </r>
       <r>    4.6612    1.0000 </r>
       <r>    5.8082    1.0000 </r>
       <r>    5.8328    1.0000 </r>
       <r>    5.9250    1.0000 </r>
       <r>    6.1789    1.0000 </r>
       <r>    6.1984    1.0000 </r>
       <r>    6.7558    1.0000 </r>
       <r>    7.2135    0.0000 </r>
       <r>    7.3162    0.0000 </r>
       <r>    7.5008    0.0000 </r>
       <r>    7.5303    0.0000 </r>
       <r>    7.5683    0.0000 </r>
       <r>    7.7890    0.0000 </r>
       <r>    7.9812    0.0000 </r>
       <r>    8.0736    0.0000 </r>
       <r>    8.8657    0.0000 </r>
       <r>    9.1005    0.0000 </r>
       <r>    9.2346    0.0000 </r>
       <r>    9.3491    0.0000 </r>
[...]
       <r>    4.2805    1.0000 </r>
       <r>    4.3484    1.0000 </r>
       <r>    4.3643    1.0000 </r>
       <r>    4.5244    1.0000 </r>
       <r>    5.1781    1.0000 </r>
       <r>    6.1997    1.0000 </r>
       <r>    6.2454    1.0000 </r>
       <r>    6.5123    1.0000 </r>
       <r>    6.5786    1.0000 </r>
       <r>    6.6018    1.0000 </r>
       <r>    6.9209    1.0000 </r>
       <r>    6.9575    1.0000 </r>
       <r>    7.4526    0.0000 </r>
       <r>    8.0585    0.0000 </r>
       <r>    8.7940    0.0000 </r>
       <r>    9.2453    0.0000 </r>
       <r>    9.3044    0.0000 </r>
       <r>    9.5237    0.0000 </r>
       <r>    9.5681    0.0000 </r>
       <r>    9.9133    0.0000 </r>
       <r>   10.1306    0.0000 </r>
       <r>   10.1838    0.0000 </r>
       <r>   10.3763    0.0000 </r>
       <r>   10.7677    0.0000 </r>
      </set>
      <set comment="kpoint 116">
       <r>  -56.0832    1.0000 </r>
       <r>  -56.0826    1.0000 </r>
       <r>  -55.6956    1.0000 </r>
       <r>  -55.6813    1.0000 </r>
       <r>  -55.6812    1.0000 </r>
       <r>  -55.6680    1.0000 </r>
       <r>  -29.6583    1.0000 </r>
       <r>  -29.6431    1.0000 </r>
       <r>  -29.4362    1.0000 </r>
       <r>  -29.4345    1.0000 </r>
       <r>  -29.4323    1.0000 </r>
       <r>  -29.4316    1.0000 </r>
       <r>  -29.3570    1.0000 </r>
       <r>  -29.2442    1.0000 </r>
       <r>  -29.2428    1.0000 </r>
       <r>  -29.1877    1.0000 </r>
       <r>  -29.1700    1.0000 </r>
       <r>  -29.1691    1.0000 </r>
       <r>  -29.1520    1.0000 </r>
       <r>  -29.1083    1.0000 </r>
       <r>  -28.9895    1.0000 </r>
       <r>  -28.8725    1.0000 </r>
       <r>  -28.8725    1.0000 </r>
       <r>  -28.8024    1.0000 </r>
       <r>   -2.6639    1.0000 </r>
       <r>   -1.8380    1.0000 </r>
       <r>   -0.9596    1.0000 </r>
       <r>   -0.2422    1.0000 </r>
       <r>   -0.2173    1.0000 </r>
       <r>    0.8158    1.0000 </r>
       <r>    2.2075    1.0000 </r>
       <r>    2.2252    1.0000 </r>
       <r>    2.5559    1.0000 </r>
       <r>    3.1421    1.0000 </r>
       <r>    3.3557    1.0000 </r>
       <r>    3.5090    1.0000 </r>
       <r>    3.6112    1.0000 </r>
       <r>    3.7497    1.0000 </r>
       <r>    3.7873    1.0000 </r>
       <r>    3.8338    1.0000 </r>
       <r>    3.8355    1.0000 </r>
       <r>    3.9280    1.0000 </r>
       <r>    4.1806    1.0000 </r>
       <r>    4.3417    1.0000 </r>
       <r>    4.3543    1.0000 </r>
       <r>    4.5433    1.0000 </r>
       <r>    5.1811    1.0000 </r>
       <r>    6.1276    1.0000 </r>
       <r>    6.2027    1.0000 </r>
       <r>    6.5080    1.0000 </r>
       <r>    6.5698    1.0000 </r>
       <r>    6.5751    1.0000 </r>
       <r>    6.9209    1.0000 </r>
       <r>    6.9329    1.0000 </r>
       <r>    7.3985    0.0000 </r>
       <r>    8.1161    0.0000 </r>
       <r>    8.8309    0.0000 </r>
       <r>    9.2545    0.0000 </r>
       <r>    9.4950    0.0000 </r>
       <r>    9.5946    0.0000 </r>
       <r>    9.8452    0.0000 </r>
       <r>    9.9820    0.0000 </r>
       <r>   10.1597    0.0000 </r>
       <r>   10.1732    0.0000 </r>
       <r>   10.2654    0.0000 </r>
       <r>   10.6865    0.0000 </r>
      </set>
     </set>
    </set>
   </array>
  </eigenvalues>
  <separator name="orbital magnetization" >
   <v name="MAGDIPOLOUT">      0.00000000      0.00000000      0.00000000</v>
  </separator>
  <dos>
   <i name="efermi">      7.13766657 </i>
   <total>
    <array>
     <dimension dim="1">gridpoints</dimension>
     <dimension dim="2">spin</dimension>
     <field>energy</field>
     <field>total</field>
     <field>integrated</field>
     <set>
      <set comment="spin 1">
       <r>   -59.4427     0.0000     0.0000 </r>
       <r>   -59.1964     0.0000     0.0000 </r>
       <r>   -58.9502     0.0000     0.0000 </r>
       <r>   -58.7039     0.0000     0.0000 </r>
       <r>   -58.4576     0.0000     0.0000 </r>
       <r>   -58.2113     0.0000     0.0000 </r>
       <r>   -57.9651     0.0000     0.0000 </r>
       <r>   -57.7188     0.0000     0.0000 </r>
       <r>   -57.4725     0.0000     0.0000 </r>
       <r>   -57.2262     0.0000     0.0000 </r>
       <r>   -56.9800     0.0000     0.0000 </r>
       <r>   -56.7337     0.0000     0.0000 </r>
       <r>   -56.4874     0.0000     0.0000 </r>
       <r>   -56.2411     0.0000     0.0000 </r>
       <r>   -55.9949    16.2420     4.0000 </r>
       <r>   -55.7486     0.0002     4.0001 </r>
       <r>   -55.5023     0.0000    12.0000 </r>
       <r>   -55.2560     0.0000    12.0000 </r>
       <r>   -55.0098     0.0000    12.0000 </r>
       <r>   -54.7635     0.0000    12.0000 </r>
       <r>   -54.5172     0.0000    12.0000 </r>
       <r>   -54.2709     0.0000    12.0000 </r>
       <r>   -54.0247     0.0000    12.0000 </r>
       <r>   -53.7784     0.0000    12.0000 </r>
       <r>   -53.5321     0.0000    12.0000 </r>
       <r>   -53.2858     0.0000    12.0000 </r>
       <r>   -53.0396     0.0000    12.0000 </r>
       <r>   -52.7933     0.0000    12.0000 </r>
       <r>   -52.5470     0.0000    12.0000 </r>
       <r>   -52.3007     0.0000    12.0000 </r>
       <r>   -52.0545     0.0000    12.0000 </r>
       <r>   -51.8082     0.0000    12.0000 </r>
       <r>   -51.5619     0.0000    12.0000 </r>
       <r>   -51.3156     0.0000    12.0000 </r>
       <r>   -51.0694     0.0000    12.0000 </r>
       <r>   -50.8231     0.0000    12.0000 </r>
       <r>   -50.5768     0.0000    12.0000 </r>
       <r>   -50.3306     0.0000    12.0000 </r>
       <r>   -50.0843     0.0000    12.0000 </r>
       <r>   -49.8380     0.0000    12.0000 </r>
       <r>   -49.5917     0.0000    12.0000 </r>
       <r>   -49.3455     0.0000    12.0000 </r>
       <r>   -49.0992     0.0000    12.0000 </r>
       <r>   -48.8529     0.0000    12.0000 </r>
       <r>   -48.6066     0.0000    12.0000 </r>
       <r>   -48.3604     0.0000    12.0000 </r>
       <r>   -48.1141     0.0000    12.0000 </r>
       <r>   -47.8678     0.0000    12.0000 </r>
       <r>   -47.6215     0.0000    12.0000 </r>
       <r>   -47.3753     0.0000    12.0000 </r>
       <r>   -47.1290     0.0000    12.0000 </r>
       <r>   -46.8827     0.0000    12.0000 </r>
       <r>   -46.6364     0.0000    12.0000 </r>
       <r>   -46.3902     0.0000    12.0000 </r>
       <r>   -46.1439     0.0000    12.0000 </r>
       <r>   -45.8976     0.0000    12.0000 </r>
       <r>   -45.6513     0.0000    12.0000 </r>
       <r>   -45.4051     0.0000    12.0000 </r>
       <r>   -45.1588     0.0000    12.0000 </r>
       <r>   -44.9125     0.0000    12.0000 </r>
       <r>   -44.6662     0.0000    12.0000 </r>
       <r>   -44.4200     0.0000    12.0000 </r>
       <r>   -44.1737     0.0000    12.0000 </r>
       <r>   -43.9274     0.0000    12.0000 </r>
       <r>   -43.6811     0.0000    12.0000 </r>
       <r>   -43.4349     0.0000    12.0000 </r>
       <r>   -43.1886     0.0000    12.0000 </r>
       <r>   -42.9423     0.0000    12.0000 </r>
       <r>   -42.6960     0.0000    12.0000 </r>
       <r>   -42.4498     0.0000    12.0000 </r>
       <r>   -42.2035     0.0000    12.0000 </r>
       <r>   -41.9572     0.0000    12.0000 </r>
       <r>   -41.7109     0.0000    12.0000 </r>
       <r>   -41.4647     0.0000    12.0000 </r>
       <r>   -41.2184     0.0000    12.0000 </r>
       <r>   -40.9721     0.0000    12.0000 </r>
       <r>   -40.7258     0.0000    12.0000 </r>
       <r>   -40.4796     0.0000    12.0000 </r>
       <r>   -40.2333     0.0000    12.0000 </r>
       <r>   -39.9870     0.0000    12.0000 </r>
       <r>   -39.7407     0.0000    12.0000 </r>
       <r>   -39.4945     0.0000    12.0000 </r>
       <r>   -39.2482     0.0000    12.0000 </r>
       <r>   -39.0019     0.0000    12.0000 </r>
       <r>   -38.7556     0.0000    12.0000 </r>
       <r>   -38.5094     0.0000    12.0000 </r>
       <r>   -38.2631     0.0000    12.0000 </r>
       <r>   -38.0168     0.0000    12.0000 </r>
       <r>   -37.7705     0.0000    12.0000 </r>
       <r>   -37.5243     0.0000    12.0000 </r>
       <r>   -37.2780     0.0000    12.0000 </r>
       <r>   -37.0317     0.0000    12.0000 </r>
       <r>   -36.7854     0.0000    12.0000 </r>
       <r>   -36.5392     0.0000    12.0000 </r>
       <r>   -36.2929     0.0000    12.0000 </r>
       <r>   -36.0466     0.0000    12.0000 </r>
       <r>   -35.8003     0.0000    12.0000 </r>
       <r>   -35.5541     0.0000    12.0000 </r>
       <r>   -35.3078     0.0000    12.0000 </r>
       <r>   -35.0615     0.0000    12.0000 </r>
       <r>   -34.8152     0.0000    12.0000 </r>
       <r>   -34.5690     0.0000    12.0000 </r>
       <r>   -34.3227     0.0000    12.0000 </r>
       <r>   -34.0764     0.0000    12.0000 </r>
       <r>   -33.8301     0.0000    12.0000 </r>
       <r>   -33.5839     0.0000    12.0000 </r>
       <r>   -33.3376     0.0000    12.0000 </r>
       <r>   -33.0913     0.0000    12.0000 </r>
       <r>   -32.8450     0.0000    12.0000 </r>
       <r>   -32.5988     0.0000    12.0000 </r>
       <r>   -32.3525     0.0000    12.0000 </r>
       <r>   -32.1062     0.0000    12.0000 </r>
       <r>   -31.8599     0.0000    12.0000 </r>
       <r>   -31.6137     0.0000    12.0000 </r>
       <r>   -31.3674     0.0000    12.0000 </r>
       <r>   -31.1211     0.0000    12.0000 </r>
       <r>   -30.8748     0.0000    12.0000 </r>
       <r>   -30.6286     0.0000    12.0000 </r>
       <r>   -30.3823     0.0000    12.0000 </r>
       <r>   -30.1360     0.0000    12.0000 </r>
       <r>   -29.8897     0.0000    12.0000 </r>
       <r>   -29.6435    15.6424    15.8523 </r>
       <r>   -29.3972    32.4699    23.9965 </r>
       <r>   -29.1509    43.5153    34.9208 </r>
       <r>   -28.9046    11.6109    42.8595 </r>
       <r>   -28.6584     2.0510    48.0000 </r>
       <r>   -28.4121     0.0000    48.0000 </r>
       <r>   -28.1658     0.0000    48.0000 </r>
       <r>   -27.9195     0.0000    48.0000 </r>
       <r>   -27.6733     0.0000    48.0000 </r>
       <r>   -27.4270     0.0000    48.0000 </r>
       <r>   -27.1807     0.0000    48.0000 </r>
       <r>   -26.9344     0.0000    48.0000 </r>
       <r>   -26.6882     0.0000    48.0000 </r>
       <r>   -26.4419     0.0000    48.0000 </r>
       <r>   -26.1956     0.0000    48.0000 </r>
       <r>   -25.9493     0.0000    48.0000 </r>
       <r>   -25.7031     0.0000    48.0000 </r>
       <r>   -25.4568     0.0000    48.0000 </r>
       <r>   -25.2105     0.0000    48.0000 </r>
       <r>   -24.9642     0.0000    48.0000 </r>
       <r>   -24.7180     0.0000    48.0000 </r>
       <r>   -24.4717     0.0000    48.0000 </r>
       <r>   -24.2254     0.0000    48.0000 </r>
       <r>   -23.9791     0.0000    48.0000 </r>
       <r>   -23.7329     0.0000    48.0000 </r>
       <r>   -23.4866     0.0000    48.0000 </r>
       <r>   -23.2403     0.0000    48.0000 </r>
       <r>   -22.9940     0.0000    48.0000 </r>
       <r>   -22.7478     0.0000    48.0000 </r>
       <r>   -22.5015     0.0000    48.0000 </r>
       <r>   -22.2552     0.0000    48.0000 </r>
       <r>   -22.0089     0.0000    48.0000 </r>
       <r>   -21.7627     0.0000    48.0000 </r>
       <r>   -21.5164     0.0000    48.0000 </r>
       <r>   -21.2701     0.0000    48.0000 </r>
       <r>   -21.0238     0.0000    48.0000 </r>
       <r>   -20.7776     0.0000    48.0000 </r>
       <r>   -20.5313     0.0000    48.0000 </r>
       <r>   -20.2850     0.0000    48.0000 </r>
       <r>   -20.0387     0.0000    48.0000 </r>
       <r>   -19.7925     0.0000    48.0000 </r>
       <r>   -19.5462     0.0000    48.0000 </r>
       <r>   -19.2999     0.0000    48.0000 </r>
       <r>   -19.0536     0.0000    48.0000 </r>
       <r>   -18.8074     0.0000    48.0000 </r>
       <r>   -18.5611     0.0000    48.0000 </r>
       <r>   -18.3148     0.0000    48.0000 </r>
       <r>   -18.0685     0.0000    48.0000 </r>
       <r>   -17.8223     0.0000    48.0000 </r>
       <r>   -17.5760     0.0000    48.0000 </r>
       <r>   -17.3297     0.0000    48.0000 </r>
       <r>   -17.0834     0.0000    48.0000 </r>
       <r>   -16.8372     0.0000    48.0000 </r>
       <r>   -16.5909     0.0000    48.0000 </r>
       <r>   -16.3446     0.0000    48.0000 </r>
       <r>   -16.0983     0.0000    48.0000 </r>
       <r>   -15.8521     0.0000    48.0000 </r>
       <r>   -15.6058     0.0000    48.0000 </r>
       <r>   -15.3595     0.0000    48.0000 </r>
       <r>   -15.1132     0.0000    48.0000 </r>
       <r>   -14.8670     0.0000    48.0000 </r>
       <r>   -14.6207     0.0000    48.0000 </r>
       <r>   -14.3744     0.0000    48.0000 </r>
       <r>   -14.1281     0.0000    48.0000 </r>
       <r>   -13.8819     0.0000    48.0000 </r>
       <r>   -13.6356     0.0000    48.0000 </r>
       <r>   -13.3893     0.0000    48.0000 </r>
       <r>   -13.1430     0.0000    48.0000 </r>
       <r>   -12.8968     0.0000    48.0000 </r>
       <r>   -12.6505     0.0000    48.0000 </r>
       <r>   -12.4042     0.0000    48.0000 </r>
       <r>   -12.1579     0.0000    48.0000 </r>
       <r>   -11.9117     0.0000    48.0000 </r>
       <r>   -11.6654     0.0000    48.0000 </r>
       <r>   -11.4191     0.0000    48.0000 </r>
       <r>   -11.1728     0.0000    48.0000 </r>
       <r>   -10.9266     0.0000    48.0000 </r>
       <r>   -10.6803     0.0000    48.0000 </r>
       <r>   -10.4340     0.0000    48.0000 </r>
       <r>   -10.1877     0.0000    48.0000 </r>
       <r>    -9.9415     0.0000    48.0000 </r>
       <r>    -9.6952     0.0000    48.0000 </r>
       <r>    -9.4489     0.0000    48.0000 </r>
       <r>    -9.2026     0.0000    48.0000 </r>
       <r>    -8.9564     0.0000    48.0000 </r>
       <r>    -8.7101     0.0000    48.0000 </r>
       <r>    -8.4638     0.0000    48.0000 </r>
       <r>    -8.2175     0.0000    48.0000 </r>
       <r>    -7.9713     0.0000    48.0000 </r>
       <r>    -7.7250     0.0000    48.0000 </r>
       <r>    -7.4787     0.0000    48.0000 </r>
       <r>    -7.2324     0.0000    48.0000 </r>
       <r>    -6.9862     0.0000    48.0000 </r>
       <r>    -6.7399     0.0000    48.0000 </r>
       <r>    -6.4936     0.0000    48.0000 </r>
       <r>    -6.2473     0.0000    48.0000 </r>
       <r>    -6.0011     0.0000    48.0000 </r>
       <r>    -5.7548     0.0000    48.0000 </r>
       <r>    -5.5085     0.0000    48.0000 </r>
       <r>    -5.2622     0.0000    48.0000 </r>
       <r>    -5.0160     0.0000    48.0000 </r>
       <r>    -4.7697     0.0000    48.0000 </r>
       <r>    -4.5234     0.0000    48.0000 </r>
       <r>    -4.2771     0.0000    48.0000 </r>
       <r>    -4.0309     0.0000    48.0000 </r>
       <r>    -3.7846     0.2614    48.0695 </r>
       <r>    -3.5383     0.6488    48.2465 </r>
       <r>    -3.2920     0.6128    48.4621 </r>
       <r>    -3.0458     0.8694    48.8009 </r>
       <r>    -2.7995     1.3902    49.3118 </r>
       <r>    -2.5532     1.6539    49.8869 </r>
       <r>    -2.3069     1.2603    50.3206 </r>
       <r>    -2.0607     1.3476    50.8013 </r>
       <r>    -1.8144     0.9072    51.1520 </r>
       <r>    -1.5681     0.6569    51.5087 </r>
       <r>    -1.3218     0.4794    51.7048 </r>
       <r>    -1.0756     0.9909    51.9889 </r>
       <r>    -0.8293     1.7628    52.6178 </r>
       <r>    -0.5830     2.4041    53.4594 </r>
       <r>    -0.3367     2.8434    54.4707 </r>
       <r>    -0.0905     5.2403    56.5967 </r>
       <r>     0.1558     2.7403    57.6392 </r>
       <r>     0.4021     2.4746    58.4411 </r>
       <r>     0.6484     2.3320    59.0896 </r>
       <r>     0.8946     2.2706    59.7225 </r>
       <r>     1.1409     0.6412    60.0355 </r>
       <r>     1.3872     0.8813    60.2936 </r>
       <r>     1.6335     2.1334    60.9642 </r>
       <r>     1.8797     2.5175    61.8955 </r>
       <r>     2.1260     2.3580    62.8409 </r>
       <r>     2.3723     3.6917    64.2408 </r>
       <r>     2.6186     2.8476    65.2880 </r>
       <r>     2.8648     2.7657    66.4260 </r>
       <r>     3.1111     3.2948    67.5920 </r>
       <r>     3.3574     4.3948    69.1282 </r>
       <r>     3.6037     9.2940    72.1001 </r>
       <r>     3.8499    10.8713    76.7692 </r>
       <r>     4.0962    10.5630    80.7392 </r>
       <r>     4.3425    11.2707    84.8318 </r>
       <r>     4.5888     6.3283    87.7014 </r>
       <r>     4.8350     4.2803    89.4827 </r>
       <r>     5.0813     1.7656    90.3277 </r>
       <r>     5.3276     2.5799    91.1354 </r>
       <r>     5.5739     3.1474    92.1731 </r>
       <r>     5.8201     4.0108    93.5184 </r>
       <r>     6.0664     6.1273    95.4018 </r>
       <r>     6.3127     4.4250    96.9622 </r>
       <r>     6.5590     5.2740    98.8958 </r>
       <r>     6.8052     5.3114   101.0172 </r>
       <r>     7.0515     5.1005   103.0980 </r>
       <r>     7.2978     7.4686   105.8444 </r>
       <r>     7.5441     6.6530   108.3068 </r>
       <r>     7.7903     8.7580   111.7538 </r>
       <r>     8.0366     6.0594   114.2117 </r>
       <r>     8.2829     2.7410   115.2924 </r>
       <r>     8.5292     2.6846   116.3193 </r>
       <r>     8.7754     5.0888   118.4114 </r>
       <r>     9.0217     5.9339   120.5787 </r>
       <r>     9.2680     5.0330   122.6120 </r>
       <r>     9.5143     4.5041   124.5276 </r>
       <r>     9.7605     7.0508   126.7874 </r>
       <r>    10.0068     4.8700   128.9647 </r>
       <r>    10.2531     2.8708   130.0795 </r>
       <r>    10.4994     2.5610   131.0338 </r>
       <r>    10.7456     1.9706   131.7251 </r>
       <r>    10.9919     0.4060   131.9826 </r>
       <r>    11.2382     0.0414   132.0000 </r>
       <r>    11.4845     0.0000   132.0000 </r>
       <r>    11.7307     0.0000   132.0000 </r>
       <r>    11.9770     0.0000   132.0000 </r>
       <r>    12.2233     0.0000   132.0000 </r>
       <r>    12.4695     0.0000   132.0000 </r>
       <r>    12.7158     0.0000   132.0000 </r>
       <r>    12.9621     0.0000   132.0000 </r>
       <r>    13.2084     0.0000   132.0000 </r>
       <r>    13.4546     0.0000   132.0000 </r>
       <r>    13.7009     0.0000   132.0000 </r>
       <r>    13.9472     0.0000   132.0000 </r>
       <r>    14.1935     0.0000   132.0000 </r>
       <r>    14.4397     0.0000   132.0000 </r>
      </set>
     </set>
    </array>
   </total>
  </dos>
 </calculation>
 <structure name="finalpos" >
  <crystal>
   <varray name="basis" >
    <v>       5.66935469       0.00000000      -3.22823718 </v>
    <v>      -1.91591948       5.33580689      -3.22823718 </v>
    <v>       0.00000000       0.00000000       6.52404000 </v>
   </varray>
   <i name="volume">    197.35600566 </i>
   <varray name="rec_basis" >
    <v>       0.17638692       0.06333496       0.00000000 </v>
    <v>       0.00000000       0.18741308       0.00000000 </v>
    <v>       0.08728009       0.12407560       0.15327926 </v>
   </varray>
  </crystal>
  <varray name="positions" >
   <v>       0.50000000       0.00000000       0.00000000 </v>
   <v>       0.00000000       0.00000000       0.50000000 </v>
   <v>       0.00000000       0.50000000       0.00000000 </v>
   <v>       0.50000000       0.50000000       0.50000000 </v>
   <v>       0.25000000       0.25000000       0.00000000 </v>
   <v>       0.75001000       0.25001000       0.00002000 </v>
   <v>       0.75000000       0.75000000       0.00000000 </v>
   <v>       0.24999000       0.74999000       0.99998000 </v>
   <v>       0.25001000       0.24999000       0.50000000 </v>
   <v>       0.74999000       0.75001000       0.50000000 </v>
   <v>       0.00000000       0.00000000       0.00000000 </v>
   <v>       0.50000000       0.50000000       0.00000000 </v>
  </varray>
 </structure>
</modeling>
