<?xml version="1.0" encoding="ISO-8859-1"?>
<modeling>
 <generator>
  <i name="program" type="string">vasp </i>
  <i name="version" type="string">6.2.0  </i>
  <i name="subversion" type="string">18Jan21 (build Jan 05 2022 15:41:44) complex                          parallel </i>
  <i name="platform" type="string">LinuxIFC </i>
  <i name="date" type="string">2025 05 07 </i>
  <i name="time" type="string">20:00:51 </i>
 </generator>
 <incar>
  <i type="string" name="SYSTEM">routine with relax: pwdword</i>
  <i type="string" name="PREC">Acc</i>
  <i type="int" name="IALGO">    38</i>
  <i type="string" name="ALGO">A</i>
  <i type="logical" name="ADDGRID"> T  </i>
  <i type="int" name="ICHARG">     2</i>
  <i type="int" name="NELM">   100</i>
  <i type="int" name="NELMIN">     6</i>
  <i name="EDIFF">      0.00000000</i>
  <i type="int" name="NSW">     0</i>
  <i type="int" name="ISIF">    -1</i>
  <i name="ENCUT">    600.00000000</i>
  <i type="logical" name="LREAL"> F  </i>
  <i type="int" name="ISMEAR">     0</i>
  <i name="SIGMA">      0.02000000</i>
  <i type="logical" name="LASPH"> T  </i>
  <i type="string" name="METAGGA">R2SCAN</i>
  <i type="logical" name="LMIXTAU"> F  </i>
 </incar>
 <primitive_cell>
  <structure name="primitive_cell" >
   <crystal>
    <varray name="basis" >
     <v>      -3.89268115       2.64103130      -0.00000000 </v>
     <v>       1.79183602       2.64103130       3.45576502 </v>
     <v>       1.79183602       2.64103130      -2.94745498 </v>
    </varray>
    <i name="volume">     96.13146351 </i>
    <varray name="rec_basis" >
     <v>      -0.17591644       0.11935239       0.00000000 </v>
     <v>       0.08097579       0.11935221       0.15617143 </v>
     <v>       0.09494065       0.13993536      -0.15617143 </v>
    </varray>
   </crystal>
   <varray name="positions" >
    <v>       0.50000000       0.50000000       0.50000000 </v>
    <v>       0.00000000       1.00000000       0.50000000 </v>
    <v>       0.50000000       1.00000000       0.50000000 </v>
    <v>       0.00000000       0.50000000       0.50000000 </v>
    <v>       0.00000000       0.00000000       0.00000000 </v>
   </varray>
  </structure>
  <varray name="primitive_index" >
   <v type="int" >        1 </v>
   <v type="int" >        3 </v>
   <v type="int" >        4 </v>
   <v type="int" >        6 </v>
   <v type="int" >        9 </v>
  </varray>
 </primitive_cell>
 <kpoints>
  <generation param="Gamma">
   <v type="int" name="divisions">       7        7        8 </v>
   <v name="usershift">      0.00000000       0.00000000       0.00000000 </v>
   <v name="genvec1">      0.14285714       0.00000000       0.00000000 </v>
   <v name="genvec2">      0.00000000       0.14285714       0.00000000 </v>
   <v name="genvec3">      0.00000000      -0.00000000       0.12500000 </v>
   <v name="shift">      0.00000000       0.00000000       0.00000000 </v>
  </generation>
  <varray name="kpointlist" >
   <v>       0.00000000       0.00000000       0.00000000 </v>
   <v>       0.14285714       0.00000000       0.00000000 </v>
   <v>       0.28571429       0.00000000       0.00000000 </v>
   <v>       0.42857143      -0.00000000       0.00000000 </v>
   <v>       0.14285714       0.14285714       0.00000000 </v>
   <v>       0.28571429       0.14285714       0.00000000 </v>
   <v>       0.42857143       0.14285714       0.00000000 </v>
   <v>      -0.42857143       0.14285714       0.00000000 </v>
   <v>      -0.28571429       0.14285714       0.00000000 </v>
   <v>      -0.14285714       0.14285714       0.00000000 </v>
   <v>       0.28571429       0.28571429       0.00000000 </v>
   <v>       0.42857143       0.28571429       0.00000000 </v>
   <v>      -0.42857143       0.28571429       0.00000000 </v>
   <v>      -0.28571429       0.28571429       0.00000000 </v>
   <v>       0.42857143       0.42857143       0.00000000 </v>
   <v>      -0.42857143       0.42857143       0.00000000 </v>
   <v>      -0.00000000      -0.00000000       0.12500000 </v>
   <v>       0.14285714      -0.00000000       0.12500000 </v>
   <v>       0.28571429      -0.00000000       0.12500000 </v>
   <v>       0.42857143       0.00000000       0.12500000 </v>
   <v>      -0.42857143       0.00000000       0.12500000 </v>
   <v>      -0.28571429       0.00000000       0.12500000 </v>
   <v>      -0.14285714      -0.00000000       0.12500000 </v>
   <v>       0.14285714       0.14285714       0.12500000 </v>
   <v>       0.28571429       0.14285714       0.12500000 </v>
   <v>       0.42857143       0.14285714       0.12500000 </v>
   <v>      -0.42857143       0.14285714       0.12500000 </v>
   <v>      -0.28571429       0.14285714       0.12500000 </v>
   <v>      -0.14285714       0.14285714       0.12500000 </v>
   <v>       0.28571429       0.28571429       0.12500000 </v>
   <v>       0.42857143       0.28571429       0.12500000 </v>
   <v>      -0.42857143       0.28571429       0.12500000 </v>
   <v>      -0.28571429       0.28571429       0.12500000 </v>
   <v>      -0.14285714       0.28571429       0.12500000 </v>
   <v>       0.42857143       0.42857143       0.12500000 </v>
   <v>      -0.42857143       0.42857143       0.12500000 </v>
   <v>      -0.28571429       0.42857143       0.12500000 </v>
   <v>      -0.14285714       0.42857143       0.12500000 </v>
   <v>      -0.42857143      -0.42857143       0.12500000 </v>
   <v>      -0.28571429      -0.42857143       0.12500000 </v>
   <v>      -0.14285714      -0.42857143       0.12500000 </v>
   <v>      -0.28571429      -0.28571429       0.12500000 </v>
   <v>      -0.14285714      -0.28571429       0.12500000 </v>
   <v>      -0.14285714      -0.14285714       0.12500000 </v>
   <v>      -0.00000000      -0.00000000       0.25000000 </v>
   <v>       0.14285714      -0.00000000       0.25000000 </v>
   <v>       0.28571429      -0.00000000       0.25000000 </v>
   <v>       0.42857143      -0.00000000       0.25000000 </v>
   <v>      -0.42857143       0.00000000       0.25000000 </v>
   <v>      -0.28571429      -0.00000000       0.25000000 </v>
   <v>      -0.14285714      -0.00000000       0.25000000 </v>
   <v>       0.14285714       0.14285714       0.25000000 </v>
   <v>       0.28571429       0.14285714       0.25000000 </v>
   <v>       0.42857143       0.14285714       0.25000000 </v>
   <v>      -0.42857143       0.14285714       0.25000000 </v>
   <v>      -0.28571429       0.14285714       0.25000000 </v>
   <v>      -0.14285714       0.14285714       0.25000000 </v>
   <v>       0.28571429       0.28571429       0.25000000 </v>
   <v>       0.42857143       0.28571429       0.25000000 </v>
   <v>      -0.42857143       0.28571429       0.25000000 </v>
   <v>      -0.28571429       0.28571429       0.25000000 </v>
   <v>      -0.14285714       0.28571429       0.25000000 </v>
   <v>       0.42857143       0.42857143       0.25000000 </v>
   <v>      -0.42857143       0.42857143       0.25000000 </v>
   <v>      -0.28571429       0.42857143       0.25000000 </v>
   <v>      -0.14285714       0.42857143       0.25000000 </v>
   <v>      -0.42857143      -0.42857143       0.25000000 </v>
   <v>      -0.28571429      -0.42857143       0.25000000 </v>
   <v>      -0.14285714      -0.42857143       0.25000000 </v>
   <v>      -0.28571429      -0.28571429       0.25000000 </v>
   <v>      -0.14285714      -0.28571429       0.25000000 </v>
   <v>      -0.14285714      -0.14285714       0.25000000 </v>
   <v>       0.00000000       0.00000000       0.37500000 </v>
   <v>       0.14285714       0.00000000       0.37500000 </v>
   <v>       0.28571429      -0.00000000       0.37500000 </v>
   <v>       0.42857143       0.00000000       0.37500000 </v>
   <v>      -0.42857143       0.00000000       0.37500000 </v>
   <v>      -0.28571429       0.00000000       0.37500000 </v>
   <v>      -0.14285714      -0.00000000       0.37500000 </v>
   <v>       0.14285714       0.14285714       0.37500000 </v>
   <v>       0.28571429       0.14285714       0.37500000 </v>
   <v>       0.42857143       0.14285714       0.37500000 </v>
   <v>      -0.42857143       0.14285714       0.37500000 </v>
   <v>      -0.28571429       0.14285714       0.37500000 </v>
   <v>      -0.14285714       0.14285714       0.37500000 </v>
   <v>       0.28571429       0.28571429       0.37500000 </v>
   <v>       0.42857143       0.28571429       0.37500000 </v>
   <v>      -0.42857143       0.28571429       0.37500000 </v>
   <v>      -0.28571429       0.28571429       0.37500000 </v>
   <v>      -0.14285714       0.28571429       0.37500000 </v>
   <v>       0.42857143       0.42857143       0.37500000 </v>
   <v>      -0.42857143       0.42857143       0.37500000 </v>
   <v>      -0.28571429       0.42857143       0.37500000 </v>
   <v>      -0.14285714       0.42857143       0.37500000 </v>
   <v>      -0.42857143      -0.42857143       0.37500000 </v>
   <v>      -0.28571429      -0.42857143       0.37500000 </v>
   <v>      -0.14285714      -0.42857143       0.37500000 </v>
   <v>      -0.28571429      -0.28571429       0.37500000 </v>
   <v>      -0.14285714      -0.28571429       0.37500000 </v>
   <v>      -0.14285714      -0.14285714       0.37500000 </v>
   <v>      -0.00000000      -0.00000000       0.50000000 </v>
   <v>       0.14285714      -0.00000000       0.50000000 </v>
   <v>       0.28571429      -0.00000000       0.50000000 </v>
   <v>       0.42857143       0.00000000       0.50000000 </v>
   <v>       0.14285714       0.14285714       0.50000000 </v>
   <v>       0.28571429       0.14285714       0.50000000 </v>
   <v>       0.42857143       0.14285714       0.50000000 </v>
   <v>      -0.42857143       0.14285714       0.50000000 </v>
   <v>      -0.28571429       0.14285714       0.50000000 </v>
   <v>      -0.14285714       0.14285714       0.50000000 </v>
   <v>       0.28571429       0.28571429       0.50000000 </v>
   <v>       0.42857143       0.28571429       0.50000000 </v>
   <v>      -0.42857143       0.28571429       0.50000000 </v>
   <v>      -0.28571429       0.28571429       0.50000000 </v>
   <v>       0.42857143       0.42857143       0.50000000 </v>
   <v>      -0.42857143       0.42857143       0.50000000 </v>
  </varray>
  <varray name="weights" >
   <v>       0.00255102 </v>
   <v>       0.01020408 </v>
   <v>       0.01020408 </v>
   <v>       0.01020408 </v>
   <v>       0.00510204 </v>
   <v>       0.01020408 </v>
   <v>       0.01020408 </v>
   <v>       0.01020408 </v>
   <v>       0.01020408 </v>
   <v>       0.00510204 </v>
   <v>       0.00510204 </v>
   <v>       0.01020408 </v>
   <v>       0.01020408 </v>
   <v>       0.00510204 </v>
   <v>       0.00510204 </v>
   <v>       0.00510204 </v>
   <v>       0.00510204 </v>
   <v>       0.01020408 </v>
   <v>       0.01020408 </v>
   <v>       0.01020408 </v>
   <v>       0.01020408 </v>
   <v>       0.01020408 </v>
   <v>       0.01020408 </v>
   <v>       0.00510204 </v>
   <v>       0.01020408 </v>
   <v>       0.01020408 </v>
   <v>       0.01020408 </v>
   <v>       0.01020408 </v>
   <v>       0.01020408 </v>
   <v>       0.00510204 </v>
   <v>       0.01020408 </v>
   <v>       0.01020408 </v>
   <v>       0.01020408 </v>
   <v>       0.01020408 </v>
   <v>       0.00510204 </v>
   <v>       0.01020408 </v>
   <v>       0.01020408 </v>
   <v>       0.01020408 </v>
   <v>       0.00510204 </v>
   <v>       0.01020408 </v>
   <v>       0.01020408 </v>
   <v>       0.00510204 </v>
   <v>       0.01020408 </v>
   <v>       0.00510204 </v>
   <v>       0.00510204 </v>
   <v>       0.01020408 </v>
   <v>       0.01020408 </v>
   <v>       0.01020408 </v>
   <v>       0.01020408 </v>
   <v>       0.01020408 </v>
   <v>       0.01020408 </v>
   <v>       0.00510204 </v>
   <v>       0.01020408 </v>
   <v>       0.01020408 </v>
   <v>       0.01020408 </v>
   <v>       0.01020408 </v>
   <v>       0.01020408 </v>
   <v>       0.00510204 </v>
   <v>       0.01020408 </v>
   <v>       0.01020408 </v>
   <v>       0.01020408 </v>
   <v>       0.01020408 </v>
   <v>       0.00510204 </v>
   <v>       0.01020408 </v>
   <v>       0.01020408 </v>
   <v>       0.01020408 </v>
   <v>       0.00510204 </v>
   <v>       0.01020408 </v>
   <v>       0.01020408 </v>
   <v>       0.00510204 </v>
   <v>       0.01020408 </v>
   <v>       0.00510204 </v>
   <v>       0.00510204 </v>
   <v>       0.01020408 </v>
   <v>       0.01020408 </v>
   <v>       0.01020408 </v>
   <v>       0.01020408 </v>
   <v>       0.01020408 </v>
   <v>       0.01020408 </v>
   <v>       0.00510204 </v>
   <v>       0.01020408 </v>
   <v>       0.01020408 </v>
   <v>       0.01020408 </v>
   <v>       0.01020408 </v>
   <v>       0.01020408 </v>
   <v>       0.00510204 </v>
   <v>       0.01020408 </v>
   <v>       0.01020408 </v>
   <v>       0.01020408 </v>
   <v>       0.01020408 </v>
   <v>       0.00510204 </v>
   <v>       0.01020408 </v>
   <v>       0.01020408 </v>
   <v>       0.01020408 </v>
   <v>       0.00510204 </v>
   <v>       0.01020408 </v>
   <v>       0.01020408 </v>
   <v>       0.00510204 </v>
   <v>       0.01020408 </v>
   <v>       0.00510204 </v>
   <v>       0.00255102 </v>
   <v>       0.01020408 </v>
   <v>       0.01020408 </v>
   <v>       0.01020408 </v>
   <v>       0.00510204 </v>
   <v>       0.01020408 </v>
   <v>       0.01020408 </v>
   <v>       0.01020408 </v>
   <v>       0.01020408 </v>
   <v>       0.00510204 </v>
   <v>       0.00510204 </v>
   <v>       0.01020408 </v>
   <v>       0.01020408 </v>
   <v>       0.00510204 </v>
   <v>       0.00510204 </v>
   <v>       0.00510204 </v>
  </varray>
 </kpoints>
 <parameters>
  <separator name="general" >
   <i type="string" name="SYSTEM">routine with relax: pwdword</i>
   <i type="logical" name="LCOMPAT"> F  </i>
  </separator>
  <separator name="electronic" >
   <i type="string" name="PREC">acc</i>
   <i name="ENMAX">    600.00000000</i>
   <i name="ENAUG">    535.51400000</i>
   <i name="EDIFF">      0.00000000</i>
   <i type="int" name="IALGO">    58</i>
   <i type="int" name="IWAVPR">    10</i>
   <i type="int" name="NBANDS">    60</i>
   <i type="int" name="NBANDSLOW">    -1</i>
   <i type="int" name="NBANDSHIGH">    -1</i>
   <i name="NELECT">     98.00000000</i>
   <i type="int" name="TURBO">     0</i>
   <i type="int" name="IRESTART">     0</i>
   <i type="int" name="NREBOOT">     0</i>
   <i type="int" name="NMIN">     0</i>
   <i name="EREF">      0.00000000</i>
   <separator name="electronic smearing" >
    <i type="int" name="ISMEAR">     0</i>
    <i name="SIGMA">      0.02000000</i>
    <i name="KSPACING">      0.50000000</i>
    <i type="logical" name="KGAMMA"> T  </i>
    <i type="logical" name="KBLOWUP"> F  </i>
   </separator>
   <separator name="electronic projectors" >
    <i type="logical" name="LREAL"> F  </i>
    <v name="ROPT">      0.00000000      0.00000000      0.00000000</v>
    <i type="int" name="LMAXPAW">  -100</i>
    <i type="int" name="LMAXMIX">     2</i>
    <i type="logical" name="NLSPLINE"> F  </i>
   </separator>
   <separator name="electronic startup" >
    <i type="int" name="ISTART">     0</i>
    <i type="int" name="ICHARG">     2</i>
    <i type="int" name="INIWAV">     1</i>
   </separator>
   <separator name="electronic spin" >
    <i type="int" name="ISPIN">     1</i>
    <i type="logical" name="LNONCOLLINEAR"> F  </i>
    <v name="MAGMOM">      1.00000000      1.00000000      1.00000000      1.00000000      1.00000000      1.00000000      1.00000000      1.00000000      1.00000000      1.00000000</v>
    <i name="NUPDOWN">     -1.00000000</i>
    <i type="logical" name="LSORBIT"> F  </i>
    <v name="SAXIS">      0.00000000      0.00000000      1.00000000</v>
    <i type="logical" name="LSPIRAL"> F  </i>
    <v name="QSPIRAL">      0.00000000      0.00000000      0.00000000</v>
    <i type="logical" name="LZEROZ"> F  </i>
   </separator>
   <separator name="electronic exchange-correlation" >
    <i type="logical" name="LASPH"> T  </i>
    <i type="logical" name="LMETAGGA"> F  </i>
   </separator>
   <separator name="electronic convergence" >
    <i type="int" name="NELM">   100</i>
    <i type="int" name="NELMDL">    -5</i>
    <i type="int" name="NELMIN">     6</i>
    <i name="ENINI">    600.00000000</i>
    <separator name="electronic convergence detail" >
     <i type="logical" name="LDIAG"> T  </i>
     <i type="logical" name="LSUBROT"> F  </i>
     <i name="WEIMIN">      0.00000000</i>
     <i name="EBREAK">      0.00000000</i>
     <i name="DEPER">      0.30000000</i>
     <i type="int" name="NRMM">     4</i>
     <i name="TIME">      0.40000000</i>
    </separator>
   </separator>
   <separator name="electronic mixer" >
    <i name="AMIX">      0.40000000</i>
    <i name="BMIX">      1.00000000</i>
    <i name="AMIN">      0.10000000</i>
    <i name="AMIX_MAG">      1.60000000</i>
    <i name="BMIX_MAG">      1.00000000</i>
    <separator name="electronic mixer details" >
     <i type="int" name="IMIX">     4</i>
     <i type="logical" name="MIXFIRST"> F  </i>
     <i type="int" name="MAXMIX">   -45</i>
     <i name="WC">    100.00000000</i>
     <i type="int" name="INIMIX">     1</i>
     <i type="int" name="MIXPRE">     1</i>
     <i type="int" name="MREMOVE">     5</i>
    </separator>
   </separator>
   <separator name="electronic dipolcorrection" >
    <i type="logical" name="LDIPOL"> F  </i>
    <i type="logical" name="LMONO"> F  </i>
    <i type="int" name="IDIPOL">     0</i>
    <i name="EPSILON">      1.00000000</i>
    <v name="DIPOL">   -100.00000000   -100.00000000   -100.00000000</v>
    <i name="EFIELD">      0.00000000</i>
   </separator>
  </separator>
  <separator name="grids" >
   <i type="int" name="NGX">    54</i>
   <i type="int" name="NGY">    54</i>
   <i type="int" name="NGZ">    54</i>
   <i type="int" name="NGXF">   108</i>
   <i type="int" name="NGYF">   108</i>
   <i type="int" name="NGZF">   108</i>
   <i type="logical" name="ADDGRID"> T  </i>
  </separator>
  <separator name="ionic" >
   <i type="int" name="NSW">     0</i>
   <i type="int" name="IBRION">    -1</i>
   <i type="int" name="MDALGO">     0</i>
   <i type="int" name="ISIF">    -1</i>
   <i name="PSTRESS">      0.00000000</i>
   <i name="EDIFFG">      0.00000001</i>
   <i type="int" name="NFREE">     0</i>
   <i name="POTIM">      0.50000000</i>
   <i name="SMASS">     -3.00000000</i>
   <i name="SCALEE">      1.00000000</i>
  </separator>
  <separator name="ionic md" >
   <i name="TEBEG">      0.00010000</i>
   <i name="TEEND">      0.00010000</i>
   <i type="int" name="NBLOCK">     1</i>
   <i type="int" name="KBLOCK">     1</i>
   <i type="int" name="NPACO">   256</i>
   <i name="APACO">     16.00000000</i>
  </separator>
  <separator name="symmetry" >
   <i type="int" name="ISYM">     2</i>
   <i name="SYMPREC">      0.00001000</i>
  </separator>
  <separator name="dos" >
   <i type="int" name="LORBIT">     0</i>
   <v name="RWIGS">     -1.00000000     -1.00000000     -1.00000000</v>
   <i type="int" name="NEDOS">   301</i>
   <i name="EMIN">     10.00000000</i>
   <i name="EMAX">    -10.00000000</i>
   <i name="EFERMI">      0.00000000</i>
  </separator>
  <separator name="writing" >
   <i type="int" name="NWRITE">     2</i>
   <i type="logical" name="LWAVE"> T  </i>
   <i type="logical" name="LDOWNSAMPLE"> F  </i>
   <i type="logical" name="LCHARG"> T  </i>
   <i type="logical" name="LPARD"> F  </i>
   <i type="logical" name="LVTOT"> F  </i>
   <i type="logical" name="LVHAR"> F  </i>
   <i type="logical" name="LELF"> F  </i>
   <i type="logical" name="LOPTICS"> F  </i>
   <v name="STM">      0.00000000      0.00000000      0.00000000      0.00000000      0.00000000      0.00000000      0.00000000</v>
  </separator>
  <separator name="performance" >
   <i type="int" name="NPAR">     6</i>
   <i type="int" name="NSIM">     4</i>
   <i type="int" name="NBLK">    -1</i>
   <i type="logical" name="LPLANE"> T  </i>
   <i type="logical" name="LSCALAPACK"> T  </i>
   <i type="logical" name="LSCAAWARE"> F  </i>
   <i type="logical" name="LSCALU"> F  </i>
   <i type="logical" name="LASYNC"> F  </i>
   <i type="logical" name="LORBITALREAL"> F  </i>
  </separator>
  <separator name="miscellaneous" >
   <i type="int" name="IDIOT">     3</i>
   <i type="int" name="PHON_NSTRUCT">    -1</i>
   <i type="logical" name="LMUSIC"> F  </i>
   <v name="POMASS">     10.81100000     95.94000000     28.08500000</v>
   <v name="DARWINR">      0.00000000      0.00000000      0.00000000</v>
   <v name="DARWINV">      1.00000000      1.00000000      1.00000000</v>
   <i type="logical" name="LCORR"> T  </i>
  </separator>
  <i type="logical" name="GGA_COMPAT"> T  </i>
  <i type="logical" name="LBERRY"> F  </i>
  <i type="int" name="ICORELEVEL">     0</i>
  <i type="logical" name="LDAU"> F  </i>
  <i type="int" name="I_CONSTRAINED_M">     0</i>
  <separator name="electronic exchange-correlation" >
   <i type="string" name="GGA">--</i>
   <i type="int" name="VOSKOWN">     0</i>
   <i type="logical" name="LHFCALC"> F  </i>
   <i type="string" name="PRECFOCK"></i>
   <i type="logical" name="LSYMGRAD"> F  </i>
   <i type="logical" name="LHFONE"> F  </i>
   <i type="logical" name="LRHFCALC"> F  </i>
   <i type="logical" name="LTHOMAS"> F  </i>
   <i type="logical" name="LMODELHF"> F  </i>
   <i type="logical" name="LFOCKACE"> F  </i>
   <i name="ENCUT4O">     -1.00000000</i>
   <i type="int" name="EXXOEP">     0</i>
   <i type="int" name="FOURORBIT">     0</i>
   <i name="AEXX">      0.00000000</i>
   <i name="HFALPHA">      0.00000000</i>
   <i name="MCALPHA">      0.00000000</i>
   <i name="ALDAX">      1.00000000</i>
   <i name="AGGAX">      1.00000000</i>
   <i name="ALDAC">      1.00000000</i>
   <i name="AGGAC">      1.00000000</i>
   <i type="int" name="NKREDX">     1</i>
   <i type="int" name="NKREDY">     1</i>
   <i type="int" name="NKREDZ">     1</i>
   <i type="logical" name="SHIFTRED"> F  </i>
   <i type="logical" name="ODDONLY"> F  </i>
   <i type="logical" name="EVENONLY"> F  </i>
   <i type="int" name="LMAXFOCK">     0</i>
   <i type="int" name="NMAXFOCKAE">     0</i>
   <i type="logical" name="LFOCKAEDFT"> F  </i>
   <i name="HFSCREEN">      0.00000000</i>
   <i name="HFSCREENC">      0.00000000</i>
   <i type="int" name="NBANDSGWLOW">     0</i>
  </separator>
  <separator name="vdW DFT" >
   <i type="logical" name="LUSE_VDW"> F  </i>
   <i name="Zab_VDW">     -0.84910000</i>
   <i name="PARAM1">      0.12340000</i>
   <i name="PARAM2">      1.00000000</i>
   <i name="PARAM3">      0.00000000</i>
  </separator>
  <separator name="model GW" >
   <i type="int" name="MODEL_GW">     0</i>
   <i name="MODEL_EPS0">     11.53577562</i>
   <i name="MODEL_ALPHA">      1.00000000</i>
  </separator>
  <separator name="linear response parameters" >
   <i type="logical" name="LEPSILON"> F  </i>
   <i type="logical" name="LRPA"> F  </i>
   <i type="logical" name="LNABLA"> F  </i>
   <i type="logical" name="LVEL"> F  </i>
   <i type="int" name="KINTER">     0</i>
   <i name="CSHIFT">      0.10000000</i>
   <i name="OMEGAMAX">     -1.00000000</i>
   <i name="DEG_THRESHOLD">      0.00200000</i>
   <i name="RTIME">     -0.10000000</i>
   <i name="WPLASMAI">      0.00000000</i>
   <v name="DFIELD">      0.00000000      0.00000000      0.00000000</v>
   <v name="WPLASMA">      0.00000000      0.00000000      0.00000000      0.00000000      0.00000000      0.00000000      0.00000000      0.00000000      0.00000000</v>
  </separator>
  <separator name="orbital magnetization" >
   <i type="logical" name="NUCIND"> F  </i>
   <v name="MAGPOS">      0.00000000      0.00000000      0.00000000</v>
   <i type="logical" name="LNICSALL"> T  </i>
   <i type="logical" name="ORBITALMAG"> F  </i>
   <i type="logical" name="LMAGBLOCH"> F  </i>
   <i type="logical" name="LCHIMAG"> F  </i>
   <i type="logical" name="LGAUGE"> T  </i>
   <i type="int" name="MAGATOM">     0</i>
   <v name="MAGDIPOL">      0.00000000      0.00000000      0.00000000</v>
   <v name="AVECCONST">      0.00000000      0.00000000      0.00000000</v>
  </separator>
  <separator name="response functions" >
   <i type="logical" name="LFINITE_TEMPERATURE"> F  </i>
   <i type="logical" name="LADDER"> F  </i>
   <i type="logical" name="LRPAFORCE"> F  </i>
   <i type="logical" name="LFXC"> F  </i>
   <i type="logical" name="LHARTREE"> T  </i>
   <i type="int" name="IBSE">     0</i>
   <v type="int" name="KPOINT">    -1     0     0     0</v>
   <i type="logical" name="LTCTC"> F  </i>
   <i type="logical" name="LTCTE"> F  </i>
   <i type="logical" name="LTETE"> F  </i>
   <i type="logical" name="LTRIPLET"> F  </i>
   <i type="logical" name="LFXCEPS"> F  </i>
   <i type="logical" name="LFXHEG"> F  </i>
   <i type="int" name="NATURALO">     2</i>
   <i type="logical" name="LHOLEGF"> F  </i>
   <i type="logical" name="L2ORDER"> F  </i>
   <i type="logical" name="LDMP1"> F  </i>
   <i type="logical" name="LMP2LT"> F  </i>
   <i type="logical" name="LSMP2LT"> F  </i>
   <i type="logical" name="LGWLF"> F  </i>
   <i name="ENCUTGW">     -2.00000000</i>
   <i name="ENCUTGWSOFT">     -2.00000000</i>
   <i name="ENCUTLF">     -1.00000000</i>
   <i type="logical" name="LESF_SPLINES"> F  </i>
   <i type="int" name="LMAXMP2">    -1</i>
   <i name="SCISSOR">      0.00000000</i>
   <i type="int" name="NOMEGA">     0</i>
   <i type="int" name="NOMEGAR">     0</i>
   <i type="int" name="NBANDSGW">    -1</i>
   <i type="int" name="NBANDSO">    -1</i>
   <i type="int" name="NBANDSV">    -1</i>
   <i type="int" name="NELM">   100</i>
   <i type="int" name="NELMHF">     1</i>
   <i type="int" name="DIM">     3</i>
   <i type="int" name="IESPILON">     4</i>
   <i type="int" name="ANTIRES">     0</i>
   <i name="OMEGAMAX">    -30.00000000</i>
   <i name="OMEGAMIN">    -30.00000000</i>
   <i name="OMEGATL">   -200.00000000</i>
   <i type="int" name="OMEGAGRID">     0</i>
   <i name="CSHIFT">     -0.10000000</i>
   <i type="logical" name="LSELFENERGY"> F  </i>
   <i type="logical" name="LSPECTRAL"> F  </i>
   <i type="logical" name="LSPECTRALGW"> F  </i>
   <i type="logical" name="LSINGLES"> F  </i>
   <i type="logical" name="LFERMIGW"> F  </i>
   <i type="logical" name="ODDONLYGW"> F  </i>
   <i type="logical" name="EVENONLYGW"> F  </i>
   <i type="int" name="NKREDLFX">     1</i>
   <i type="int" name="NKREDLFY">     1</i>
   <i type="int" name="NKREDLFZ">     1</i>
   <i type="int" name="MAXMEM">  2800</i>
   <i type="int" name="TELESCOPE">     0</i>
   <i type="int" name="NTAUPAR">    -1</i>
   <i type="int" name="NOMEGAPAR">    -1</i>
   <i name="DAMP_NEWTON">      0.80000001</i>
   <i name="LAMBDA">      1.00000000</i>
  </separator>
  <separator name="External order field" >
   <i name="OFIELD_KAPPA">      0.00000000</i>
   <v name="OFIELD_K">      0.00000000      0.00000000      0.00000000</v>
   <i name="OFIELD_Q6_NEAR">      0.00000000</i>
   <i name="OFIELD_Q6_FAR">      0.00000000</i>
   <i name="OFIELD_A">      0.00000000</i>
  </separator>
 </parameters>
 <atominfo>
  <atoms>      10 </atoms>
  <types>       3 </types>
  <array name="atoms" >
   <dimension dim="1">ion</dimension>
   <field type="string">element</field>
   <field type="int">atomtype</field>
   <set>
    <rc><c>B </c><c>   1</c></rc>
    <rc><c>B </c><c>   1</c></rc>
    <rc><c>Mo</c><c>   2</c></rc>
    <rc><c>Mo</c><c>   2</c></rc>
    <rc><c>Mo</c><c>   2</c></rc>
    <rc><c>Mo</c><c>   2</c></rc>
    <rc><c>Mo</c><c>   2</c></rc>
    <rc><c>Mo</c><c>   2</c></rc>
    <rc><c>Si</c><c>   3</c></rc>
    <rc><c>Si</c><c>   3</c></rc>
   </set>
  </array>
  <array name="atomtypes" >
   <dimension dim="1">type</dimension>
   <field type="int">atomspertype</field>
   <field type="string">element</field>
   <field>mass</field>
   <field>valence</field>
   <field type="string">pseudopotential</field>
   <set>
    <rc><c>   2</c><c>B </c><c>     10.81100000</c><c>      3.00000000</c><c>  PAW_PBE B 06Sep2000                   </c></rc>
    <rc><c>   6</c><c>Mo</c><c>     95.94000000</c><c>     14.00000000</c><c>  PAW_PBE Mo_sv 02Feb2006               </c></rc>
    <rc><c>   2</c><c>Si</c><c>     28.08500000</c><c>      4.00000000</c><c>  PAW_PBE Si 05Jan2001                  </c></rc>
   </set>
  </array>
 </atominfo>
 <structure name="initialpos" >
  <crystal>
   <varray name="basis" >
    <v>       5.68451717       0.00000000      -2.94745498 </v>
    <v>      -2.10084513       5.28206259      -2.94745498 </v>
    <v>       0.00000000       0.00000000       6.40322000 </v>
   </varray>
   <i name="volume">    192.26292702 </i>
   <varray name="rec_basis" >
    <v>       0.17591644       0.06996759       0.00000000 </v>
    <v>       0.00000000       0.18931998       0.00000000 </v>
    <v>       0.08097579       0.11935221       0.15617143 </v>
   </varray>
  </crystal>
  <varray name="positions" >
   <v>       0.25000000       0.75000000       0.50000000 </v>
   <v>       0.75000000       0.25000000       0.50000000 </v>
   <v>       0.25000000       0.25000000       0.00000000 </v>
   <v>       0.50000000       0.00000000       0.00000000 </v>
   <v>       0.75000000       0.75000000       0.00000000 </v>
   <v>       0.00000000       0.00000000       0.50000000 </v>
   <v>       0.00000000       0.50000000       0.00000000 </v>
   <v>       0.50000000       0.50000000       0.50000000 </v>
   <v>       0.00000000       0.00000000       0.00000000 </v>
   <v>       0.50000000       0.50000000       0.00000000 </v>
  </varray>
 </structure>
 <calculation>
  <scstep>
   <time name="total">   31.89   32.24</time>
   <energy>
    <i name="alphaZ">    434.53226759 </i>
    <i name="ewald">  -7370.62993559 </i>
    <i name="hartreedc">  -3746.80355615 </i>
    <i name="XCdc">    462.28196572 </i>
    <i name="pawpsdc">   9166.97638771 </i>
    <i name="pawaedc">  -9126.13493418 </i>
    <i name="eentropy">     -0.00065984 </i>
    <i name="bandstr">   -281.14518329 </i>
    <i name="atom">  11522.16744521 </i>
    <i name="e_fr_energy">   1061.24379720 </i>
    <i name="e_wo_entrp">   1061.24445704 </i>
    <i name="e_0_energy">   1061.24412712 </i>
   </energy>
  </scstep>
  <scstep>
   <time name="total">   33.93   34.28</time>
   <energy>
    <i name="e_fr_energy">   -161.32042613 </i>
    <i name="e_wo_entrp">   -161.31795991 </i>
    <i name="e_0_energy">   -161.31919302 </i>
   </energy>
  </scstep>
  <scstep>
   <time name="total">   38.17   38.56</time>
   <energy>
    <i name="e_fr_energy">   -212.86995725 </i>
    <i name="e_wo_entrp">   -212.86880370 </i>
    <i name="e_0_energy">   -212.86938047 </i>
   </energy>
  </scstep>
  <scstep>
   <time name="total">   37.39   37.77</time>
   <energy>
    <i name="e_fr_energy">   -214.23620938 </i>
    <i name="e_wo_entrp">   -214.23475774 </i>
    <i name="e_0_energy">   -214.23548356 </i>
   </energy>
  </scstep>
  <scstep>
   <time name="total">   39.15   39.56</time>
   <energy>
    <i name="e_fr_energy">   -214.27441639 </i>
    <i name="e_wo_entrp">   -214.27296743 </i>
    <i name="e_0_energy">   -214.27369191 </i>
   </energy>
  </scstep>
  <scstep>
   <time name="total">   37.90   38.34</time>
   <energy>
    <i name="e_fr_energy">   -140.55041328 </i>
    <i name="e_wo_entrp">   -140.54832452 </i>
    <i name="e_0_energy">   -140.54936890 </i>
   </energy>
  </scstep>
  <scstep>
   <time name="total">   39.80   40.16</time>
   <energy>
    <i name="e_fr_energy">   -164.63262749 </i>
    <i name="e_wo_entrp">   -164.63073250 </i>
    <i name="e_0_energy">   -164.63168000 </i>
   </energy>
  </scstep>
  <scstep>
   <time name="total">   45.20   45.61</time>
   <energy>
    <i name="e_fr_energy">   -168.44539666 </i>
    <i name="e_wo_entrp">   -168.44358721 </i>
    <i name="e_0_energy">   -168.44449193 </i>
   </energy>
  </scstep>
  <scstep>
   <time name="total">   43.16   43.53</time>
   <energy>
    <i name="e_fr_energy">   -169.42160187 </i>
    <i name="e_wo_entrp">   -169.41951620 </i>
    <i name="e_0_energy">   -169.42055903 </i>
   </energy>
  </scstep>
  <scstep>
   <time name="total">   45.26   45.67</time>
   <energy>
    <i name="e_fr_energy">   -169.80944534 </i>
    <i name="e_wo_entrp">   -169.80720127 </i>
    <i name="e_0_energy">   -169.80832331 </i>
   </energy>
  </scstep>
  <scstep>
   <time name="total">   46.06   46.46</time>
   <energy>
    <i name="e_fr_energy">   -169.97713605 </i>
    <i name="e_wo_entrp">   -169.97487110 </i>
    <i name="e_0_energy">   -169.97600358 </i>
   </energy>
  </scstep>
  <scstep>
   <time name="total">   43.95   44.35</time>
   <energy>
    <i name="e_fr_energy">   -170.04259992 </i>
    <i name="e_wo_entrp">   -170.04029619 </i>
    <i name="e_0_energy">   -170.04144805 </i>
   </energy>
  </scstep>
  <scstep>
   <time name="total">   45.36   45.76</time>
   <energy>
    <i name="e_fr_energy">   -170.07750128 </i>
    <i name="e_wo_entrp">   -170.07516249 </i>
    <i name="e_0_energy">   -170.07633188 </i>
   </energy>
  </scstep>
  <scstep>
   <time name="total">   45.68   46.07</time>
   <energy>
    <i name="e_fr_energy">   -170.09878141 </i>
    <i name="e_wo_entrp">   -170.09649680 </i>
    <i name="e_0_energy">   -170.09763911 </i>
   </energy>
  </scstep>
  <scstep>
   <time name="total">   44.20   44.60</time>
   <energy>
    <i name="e_fr_energy">   -170.11114984 </i>
    <i name="e_wo_entrp">   -170.10898833 </i>
    <i name="e_0_energy">   -170.11006909 </i>
   </energy>
  </scstep>
  <scstep>
   <time name="total">   46.24   46.64</time>
   <energy>
    <i name="e_fr_energy">   -170.11735777 </i>
    <i name="e_wo_entrp">   -170.11526318 </i>
    <i name="e_0_energy">   -170.11631048 </i>
   </energy>
  </scstep>
  <scstep>
   <time name="total">   45.50   45.89</time>
   <energy>
    <i name="e_fr_energy">   -170.11990128 </i>
    <i name="e_wo_entrp">   -170.11789632 </i>
    <i name="e_0_energy">   -170.11889880 </i>
   </energy>
  </scstep>
  <scstep>
   <time name="total">   45.95   46.36</time>
   <energy>
    <i name="e_fr_energy">   -170.12102762 </i>
    <i name="e_wo_entrp">   -170.11908411 </i>
    <i name="e_0_energy">   -170.12005586 </i>
   </energy>
  </scstep>
  <scstep>
   <time name="total">   46.57   46.97</time>
   <energy>
    <i name="e_fr_energy">   -170.12160443 </i>
    <i name="e_wo_entrp">   -170.11970462 </i>
    <i name="e_0_energy">   -170.12065453 </i>
   </energy>
  </scstep>
  <scstep>
   <time name="total">   45.50   45.89</time>
   <energy>
    <i name="e_fr_energy">   -170.12191593 </i>
    <i name="e_wo_entrp">   -170.12003331 </i>
    <i name="e_0_energy">   -170.12097462 </i>
   </energy>
  </scstep>
  <scstep>
   <time name="total">   42.58   42.98</time>
   <energy>
    <i name="e_fr_energy">   -170.12205629 </i>
    <i name="e_wo_entrp">   -170.12016542 </i>
    <i name="e_0_energy">   -170.12111086 </i>
   </energy>
  </scstep>
  <scstep>
   <time name="total">   46.60   47.01</time>
   <energy>
    <i name="e_fr_energy">   -170.12211840 </i>
    <i name="e_wo_entrp">   -170.12022115 </i>
    <i name="e_0_energy">   -170.12116977 </i>
   </energy>
  </scstep>
  <scstep>
   <time name="total">   48.71   49.11</time>
   <energy>
    <i name="e_fr_energy">   -170.12214519 </i>
    <i name="e_wo_entrp">   -170.12023629 </i>
    <i name="e_0_energy">   -170.12119074 </i>
   </energy>
  </scstep>
  <scstep>
   <time name="total">   45.03   45.42</time>
   <energy>
    <i name="e_fr_energy">   -170.12215719 </i>
    <i name="e_wo_entrp">   -170.12023967 </i>
    <i name="e_0_energy">   -170.12119843 </i>
   </energy>
  </scstep>
  <scstep>
   <time name="total">   48.23   48.64</time>
   <energy>
    <i name="e_fr_energy">   -170.12216341 </i>
    <i name="e_wo_entrp">   -170.12024035 </i>
    <i name="e_0_energy">   -170.12120188 </i>
   </energy>
  </scstep>
  <scstep>
   <time name="total">   46.76   47.16</time>
   <energy>
    <i name="e_fr_energy">   -170.12216644 </i>
    <i name="e_wo_entrp">   -170.12024115 </i>
    <i name="e_0_energy">   -170.12120379 </i>
   </energy>
  </scstep>
  <scstep>
   <time name="total">   45.03   45.42</time>
   <energy>
    <i name="e_fr_energy">   -170.12216746 </i>
    <i name="e_wo_entrp">   -170.12024233 </i>
    <i name="e_0_energy">   -170.12120489 </i>
   </energy>
  </scstep>
  <scstep>
   <time name="total">   47.07   47.46</time>
   <energy>
    <i name="e_fr_energy">   -170.12216806 </i>
    <i name="e_wo_entrp">   -170.12024360 </i>
    <i name="e_0_energy">   -170.12120583 </i>
   </energy>
  </scstep>
  <scstep>
   <time name="total">   45.70   46.10</time>
   <energy>
    <i name="e_fr_energy">   -170.12216836 </i>
    <i name="e_wo_entrp">   -170.12024454 </i>
    <i name="e_0_energy">   -170.12120645 </i>
   </energy>
  </scstep>
  <scstep>
   <time name="total">   44.60   44.99</time>
   <energy>
    <i name="e_fr_energy">   -170.12216842 </i>
    <i name="e_wo_entrp">   -170.12024515 </i>
    <i name="e_0_energy">   -170.12120679 </i>
   </energy>
  </scstep>
  <scstep>
   <time name="total">   46.84   47.22</time>
   <energy>
    <i name="e_fr_energy">   -170.12216848 </i>
    <i name="e_wo_entrp">   -170.12024554 </i>
    <i name="e_0_energy">   -170.12120701 </i>
   </energy>
  </scstep>
  <scstep>
   <time name="total">   43.86   44.23</time>
   <energy>
    <i name="e_fr_energy">   -170.12216855 </i>
    <i name="e_wo_entrp">   -170.12024587 </i>
    <i name="e_0_energy">   -170.12120721 </i>
   </energy>
  </scstep>
  <scstep>
   <time name="total">   45.90   46.29</time>
   <energy>
    <i name="e_fr_energy">   -170.12216859 </i>
    <i name="e_wo_entrp">   -170.12024595 </i>
    <i name="e_0_energy">   -170.12120727 </i>
   </energy>
  </scstep>
  <scstep>
   <time name="total">   46.14   46.55</time>
   <energy>
    <i name="e_fr_energy">   -170.12216859 </i>
    <i name="e_wo_entrp">   -170.12024594 </i>
    <i name="e_0_energy">   -170.12120726 </i>
   </energy>
  </scstep>
  <scstep>
   <time name="total">   45.00   45.40</time>
   <energy>
    <i name="e_fr_energy">   -170.12216859 </i>
    <i name="e_wo_entrp">   -170.12024592 </i>
    <i name="e_0_energy">   -170.12120726 </i>
   </energy>
  </scstep>
  <scstep>
   <time name="total">   45.64   46.04</time>
   <energy>
    <i name="e_fr_energy">   -170.12216859 </i>
    <i name="e_wo_entrp">   -170.12024591 </i>
    <i name="e_0_energy">   -170.12120725 </i>
   </energy>
  </scstep>
  <scstep>
   <time name="total">   52.66   53.12</time>
   <energy>
    <i name="alphaZ">    434.53226759 </i>
    <i name="ewald">  -7370.62993559 </i>
    <i name="hartreedc">  -3675.54370942 </i>
    <i name="XCdc">    472.81173658 </i>
    <i name="pawpsdc">  12511.44380701 </i>
    <i name="pawaedc"> -12489.02242985 </i>
    <i name="eentropy">     -0.00192269 </i>
    <i name="bandstr">  -1575.87942744 </i>
    <i name="atom">  11522.16744521 </i>
    <i name="e_fr_energy">   -170.12216859 </i>
    <i name="e_wo_entrp">   -170.12024590 </i>
    <i name="e_0_energy">   -170.12120724 </i>
   </energy>
  </scstep>
  <structure>
   <crystal>
    <varray name="basis" >
     <v>       5.68451717       0.00000000      -2.94745498 </v>
     <v>      -2.10084513       5.28206259      -2.94745498 </v>
     <v>       0.00000000       0.00000000       6.40322000 </v>
    </varray>
    <i name="volume">    192.26292702 </i>
    <varray name="rec_basis" >
     <v>       0.17591644       0.06996759       0.00000000 </v>
     <v>       0.00000000       0.18931998       0.00000000 </v>
     <v>       0.08097579       0.11935221       0.15617143 </v>
    </varray>
   </crystal>
   <varray name="positions" >
    <v>       0.25000000       0.75000000       0.50000000 </v>
    <v>       0.75000000       0.25000000       0.50000000 </v>
    <v>       0.25000000       0.25000000       0.00000000 </v>
    <v>       0.50000000       0.00000000       0.00000000 </v>
    <v>       0.75000000       0.75000000       0.00000000 </v>
    <v>       0.00000000       0.00000000       0.50000000 </v>
    <v>       0.00000000       0.50000000       0.00000000 </v>
    <v>       0.50000000       0.50000000       0.50000000 </v>
    <v>       0.00000000       0.00000000       0.00000000 </v>
    <v>       0.50000000       0.50000000       0.00000000 </v>
   </varray>
  </structure>
  <varray name="forces" >
   <v>       0.00000000       0.00000000       0.00000000 </v>
   <v>       0.00000000       0.00000000       0.00000000 </v>
   <v>       0.00000000       0.00000000       0.00000000 </v>
   <v>       0.00000000       0.00000000       0.00000000 </v>
   <v>       0.00000000       0.00000000       0.00000000 </v>
   <v>       0.00000000       0.00000000       0.00000000 </v>
   <v>       0.00000000       0.00000000       0.00000000 </v>
   <v>       0.00000000       0.00000000       0.00000000 </v>
   <v>       0.00000000       0.00000000       0.00000000 </v>
   <v>       0.00000000       0.00000000       0.00000000 </v>
  </varray>
  <varray name="stress" >
   <v>       0.00000000       0.00000000       0.00000000 </v>
   <v>       0.00000000       0.00000000       0.00000000 </v>
   <v>       0.00000000       0.00000000       0.00000000 </v>
  </varray>
  <energy>
   <i name="e_fr_energy">   -170.12216859 </i>
   <i name="e_wo_entrp">   -170.12024590 </i>
   <i name="e_0_energy">   -170.12120724 </i>
  </energy>
  <time name="totalsc"> 1639.18 1653.85</time>
  <eigenvalues>
   <array>
    <dimension dim="1">band</dimension>
    <dimension dim="2">kpoint</dimension>
    <dimension dim="3">spin</dimension>
    <field>eigene</field>
    <field>occ</field>
    <set>
     <set comment="spin 1">
      <set comment="kpoint 1">
       <r>  -56.5232    1.0000 </r>
       <r>  -56.3275    1.0000 </r>
       <r>  -56.3275    1.0000 </r>
       <r>  -56.3106    1.0000 </r>
       <r>  -55.6570    1.0000 </r>
       <r>  -55.4451    1.0000 </r>
       <r>  -31.2630    1.0000 </r>
       <r>  -31.2629    1.0000 </r>
       <r>  -29.9892    1.0000 </r>
       <r>  -29.9355    1.0000 </r>
       <r>  -29.8954    1.0000 </r>
       <r>  -29.7097    1.0000 </r>
       <r>  -29.7097    1.0000 </r>
       <r>  -29.6875    1.0000 </r>
       <r>  -29.6745    1.0000 </r>
       <r>  -29.5573    1.0000 </r>
       <r>  -29.5573    1.0000 </r>
       <r>  -29.4707    1.0000 </r>
       <r>  -29.3706    1.0000 </r>
       <r>  -29.3679    1.0000 </r>
       <r>  -29.3679    1.0000 </r>
       <r>  -29.1481    1.0000 </r>
       <r>  -27.8693    1.0000 </r>
       <r>  -27.8693    1.0000 </r>
       <r>   -2.8316    1.0000 </r>
       <r>   -0.9028    1.0000 </r>
       <r>   -0.3874    1.0000 </r>
       <r>    1.0746    1.0000 </r>
       <r>    1.5030    1.0000 </r>
       <r>    1.8623    1.0000 </r>
       <r>    2.1588    1.0000 </r>
       <r>    2.4094    1.0000 </r>
       <r>    2.5819    1.0000 </r>
       <r>    2.5819    1.0000 </r>
       <r>    2.6381    1.0000 </r>
       <r>    2.6381    1.0000 </r>
       <r>    2.8335    1.0000 </r>
       <r>    2.8335    1.0000 </r>
       <r>    3.7968    1.0000 </r>
       <r>    5.3717    1.0000 </r>
       <r>    5.3717    1.0000 </r>
       <r>    5.9121    1.0000 </r>
       <r>    5.9121    1.0000 </r>
       <r>    6.0955    1.0000 </r>
       <r>    6.1602    1.0000 </r>
       <r>    6.1978    1.0000 </r>
       <r>    6.4303    1.0000 </r>
       <r>    6.4706    1.0000 </r>
       <r>    6.6374    1.0000 </r>
       <r>    6.9425    0.0000 </r>
       <r>    6.9947    0.0000 </r>
       <r>    6.9947    0.0000 </r>
       <r>    7.0080    0.0000 </r>
       <r>    7.0080    0.0000 </r>
       <r>    7.1520    0.0000 </r>
       <r>    7.5357    0.0000 </r>
       <r>    8.1900    0.0000 </r>
       <r>    8.1900    0.0000 </r>
       <r>    8.4624    0.0000 </r>
       <r>    9.2197    0.0000 </r>
      </set>
      <set comment="kpoint 2">
       <r>  -56.5154    1.0000 </r>
       <r>  -56.3400    1.0000 </r>
       <r>  -56.3267    1.0000 </r>
       <r>  -56.3115    1.0000 </r>
       <r>  -55.6437    1.0000 </r>
       <r>  -55.4537    1.0000 </r>
       <r>  -31.2265    1.0000 </r>
       <r>  -31.2251    1.0000 </r>
       <r>  -30.1525    1.0000 </r>
       <r>  -30.1115    1.0000 </r>
       <r>  -29.8890    1.0000 </r>
       <r>  -29.7245    1.0000 </r>
       <r>  -29.7086    1.0000 </r>
       <r>  -29.6885    1.0000 </r>
       <r>  -29.6722    1.0000 </r>
       <r>  -29.5634    1.0000 </r>
       <r>  -29.5534    1.0000 </r>
       <r>  -29.4811    1.0000 </r>
       <r>  -29.3539    1.0000 </r>
       <r>  -29.1903    1.0000 </r>
       <r>  -29.1776    1.0000 </r>
       <r>  -29.1563    1.0000 </r>
       <r>  -27.9169    1.0000 </r>
       <r>  -27.9154    1.0000 </r>
       <r>   -2.7311    1.0000 </r>
       <r>   -0.8468    1.0000 </r>
       <r>   -0.5444    1.0000 </r>
       <r>    0.8790    1.0000 </r>
       <r>    1.5709    1.0000 </r>
       <r>    1.9699    1.0000 </r>
       <r>    2.2874    1.0000 </r>
       <r>    2.5069    1.0000 </r>
       <r>    2.5678    1.0000 </r>
       <r>    2.5916    1.0000 </r>
       <r>    2.6051    1.0000 </r>
       <r>    2.6152    1.0000 </r>
       <r>    2.7697    1.0000 </r>
       <r>    2.8623    1.0000 </r>
       <r>    4.0051    1.0000 </r>
       <r>    5.1645    1.0000 </r>
       <r>    5.2725    1.0000 </r>
       <r>    5.2741    1.0000 </r>
       <r>    5.6151    1.0000 </r>
       <r>    5.9844    1.0000 </r>
       <r>    6.0706    1.0000 </r>
       <r>    6.1126    1.0000 </r>
       <r>    6.4989    1.0000 </r>
       <r>    6.5045    1.0000 </r>
       <r>    6.7687    0.0009 </r>
       <r>    6.7842    0.0000 </r>
       <r>    7.0104    0.0000 </r>
       <r>    7.0107    0.0000 </r>
       <r>    7.1825    0.0000 </r>
       <r>    7.3218    0.0000 </r>
       <r>    7.3909    0.0000 </r>
       <r>    7.5090    0.0000 </r>
       <r>    8.0538    0.0000 </r>
       <r>    8.1634    0.0000 </r>
       <r>    8.5915    0.0000 </r>
       <r>    9.1222    0.0000 </r>
      </set>
      <set comment="kpoint 3">
       <r>  -56.4926    1.0000 </r>
       <r>  -56.3727    1.0000 </r>
       <r>  -56.3244    1.0000 </r>
       <r>  -56.3138    1.0000 </r>
       <r>  -55.6088    1.0000 </r>
       <r>  -55.4787    1.0000 </r>
       <r>  -31.1189    1.0000 </r>
       <r>  -31.1133    1.0000 </r>
       <r>  -30.4375    1.0000 </r>
       <r>  -30.4083    1.0000 </r>
       <r>  -29.8703    1.0000 </r>
       <r>  -29.7602    1.0000 </r>
       <r>  -29.7054    1.0000 </r>
       <r>  -29.6916    1.0000 </r>
       <r>  -29.6569    1.0000 </r>
       <r>  -29.5807    1.0000 </r>
       <r>  -29.5427    1.0000 </r>
       <r>  -29.4935    1.0000 </r>
       <r>  -29.3132    1.0000 </r>
       <r>  -29.1802    1.0000 </r>
       <r>  -28.8740    1.0000 </r>
       <r>  -28.8571    1.0000 </r>
       <r>  -28.0556    1.0000 </r>
       <r>  -28.0503    1.0000 </r>
       <r>   -2.4406    1.0000 </r>
       <r>   -0.9428    1.0000 </r>
       <r>   -0.6804    1.0000 </r>
       <r>    0.4354    1.0000 </r>
       <r>    1.7585    1.0000 </r>
       <r>    2.2850    1.0000 </r>
       <r>    2.3311    1.0000 </r>
       <r>    2.4823    1.0000 </r>
       <r>    2.5551    1.0000 </r>
       <r>    2.5612    1.0000 </r>
       <r>    2.5772    1.0000 </r>
       <r>    2.8006    1.0000 </r>
       <r>    2.9123    1.0000 </r>
       <r>    3.1111    1.0000 </r>
       <r>    4.3674    1.0000 </r>
       <r>    4.4643    1.0000 </r>
       <r>    4.7688    1.0000 </r>
       <r>    4.9250    1.0000 </r>
       <r>    4.9540    1.0000 </r>
       <r>    5.6066    1.0000 </r>
       <r>    5.7983    1.0000 </r>
       <r>    5.8587    1.0000 </r>
       <r>    6.2780    1.0000 </r>
       <r>    6.4614    1.0000 </r>
       <r>    6.7621    0.0039 </r>
       <r>    6.8108    0.0000 </r>
       <r>    7.0582    0.0000 </r>
       <r>    7.1552    0.0000 </r>
       <r>    7.4868    0.0000 </r>
       <r>    7.5786    0.0000 </r>
       <r>    7.8487    0.0000 </r>
       <r>    7.8848    0.0000 </r>
       <r>    8.2195    0.0000 </r>
       <r>    8.3637    0.0000 </r>
       <r>    8.5830    0.0000 </r>
       <r>    9.2457    0.0000 </r>
      </set>
      <set comment="kpoint 4">
       <r>  -56.4577    1.0000 </r>
       <r>  -56.4152    1.0000 </r>
       <r>  -56.3210    1.0000 </r>
       <r>  -56.3172    1.0000 </r>
       <r>  -55.5630    1.0000 </r>
       <r>  -55.5170    1.0000 </r>
       <r>  -30.9447    1.0000 </r>
       <r>  -30.9327    1.0000 </r>
       <r>  -30.7127    1.0000 </r>
       <r>  -30.6927    1.0000 </r>
       <r>  -29.8404    1.0000 </r>
       <r>  -29.8020    1.0000 </r>
       <r>  -29.7010    1.0000 </r>
       <r>  -29.6960    1.0000 </r>
       <r>  -29.6327    1.0000 </r>
       <r>  -29.6055    1.0000 </r>
       <r>  -29.5270    1.0000 </r>
       <r>  -29.5096    1.0000 </r>
       <r>  -29.2641    1.0000 </r>
       <r>  -29.2175    1.0000 </r>
       <r>  -28.5551    1.0000 </r>
       <r>  -28.5401    1.0000 </r>
       <r>  -28.2742    1.0000 </r>
       <r>  -28.2638    1.0000 </r>
       <r>   -1.9960    1.0000 </r>
       <r>   -1.4639    1.0000 </r>
       <r>   -0.4065    1.0000 </r>
       <r>   -0.0280    1.0000 </r>
       <r>    2.0190    1.0000 </r>
       <r>    2.2459    1.0000 </r>
       <r>    2.3826    1.0000 </r>
       <r>    2.3990    1.0000 </r>
       <r>    2.4918    1.0000 </r>
       <r>    2.4939    1.0000 </r>
       <r>    2.8158    1.0000 </r>
       <r>    3.2738    1.0000 </r>
       <r>    3.4343    1.0000 </r>
       <r>    3.4471    1.0000 </r>
       <r>    3.6819    1.0000 </r>
       <r>    4.1478    1.0000 </r>
       <r>    4.2073    1.0000 </r>
       <r>    4.3329    1.0000 </r>
       <r>    5.0974    1.0000 </r>
       <r>    5.6054    1.0000 </r>
       <r>    5.7244    1.0000 </r>
       <r>    5.7487    1.0000 </r>
       <r>    5.8101    1.0000 </r>
       <r>    5.9401    1.0000 </r>
       <r>    6.6519    1.0000 </r>
       <r>    6.7233    0.5324 </r>
       <r>    7.1367    0.0000 </r>
       <r>    7.2295    0.0000 </r>
       <r>    7.8673    0.0000 </r>
       <r>    8.0804    0.0000 </r>
       <r>    8.2002    0.0000 </r>
       <r>    8.3266    0.0000 </r>
       <r>    8.3398    0.0000 </r>
       <r>    8.6889    0.0000 </r>
       <r>    9.0166    0.0000 </r>
       <r>    9.4599    0.0000 </r>
      </set>
      <set comment="kpoint 5">
       <r>  -56.5080    1.0000 </r>
       <r>  -56.3493    1.0000 </r>
       <r>  -56.3276    1.0000 </r>
       <r>  -56.3124    1.0000 </r>
       <r>  -55.6323    1.0000 </r>
       <r>  -55.4615    1.0000 </r>
       <r>  -31.2594    1.0000 </r>
       <r>  -31.1196    1.0000 </r>
       <r>  -30.4192    1.0000 </r>
       <r>  -29.9619    1.0000 </r>
       <r>  -29.8845    1.0000 </r>
       <r>  -29.7345    1.0000 </r>
       <r>  -29.7087    1.0000 </r>
       <r>  -29.6901    1.0000 </r>
       <r>  -29.6803    1.0000 </r>
       <r>  -29.5601    1.0000 </r>
       <r>  -29.5591    1.0000 </r>
       <r>  -29.5087    1.0000 </r>
       <r>  -29.3372    1.0000 </r>
       <r>  -29.3228    1.0000 </r>
       <r>  -29.1658    1.0000 </r>
       <r>  -28.8739    1.0000 </r>
       <r>  -28.0503    1.0000 </r>
       <r>  -27.8715    1.0000 </r>
       <r>   -2.5140    1.0000 </r>
       <r>   -0.9105    1.0000 </r>
       <r>   -0.7760    1.0000 </r>
       <r>    0.7068    1.0000 </r>
       <r>    1.6433    1.0000 </r>
       <r>    2.0069    1.0000 </r>
       <r>    2.3759    1.0000 </r>
       <r>    2.3826    1.0000 </r>
       <r>    2.4928    1.0000 </r>
       <r>    2.5368    1.0000 </r>
       <r>    2.6685    1.0000 </r>
       <r>    2.7646    1.0000 </r>
       <r>    2.9020    1.0000 </r>
       <r>    2.9697    1.0000 </r>
       <r>    4.2619    1.0000 </r>
       <r>    4.5747    1.0000 </r>
       <r>    4.9638    1.0000 </r>
       <r>    5.4667    1.0000 </r>
       <r>    5.6490    1.0000 </r>
       <r>    5.8941    1.0000 </r>
       <r>    6.0345    1.0000 </r>
       <r>    6.2059    1.0000 </r>
       <r>    6.4783    1.0000 </r>
       <r>    6.5853    1.0000 </r>
       <r>    6.6005    1.0000 </r>
       <r>    6.6788    0.9994 </r>
       <r>    6.8564    0.0000 </r>
       <r>    6.8832    0.0000 </r>
       <r>    6.9899    0.0000 </r>
       <r>    7.3166    0.0000 </r>
       <r>    7.4814    0.0000 </r>
       <r>    7.7223    0.0000 </r>
       <r>    8.0846    0.0000 </r>
       <r>    8.4235    0.0000 </r>
       <r>    8.8759    0.0000 </r>
       <r>    8.9572    0.0000 </r>
      </set>
      <set comment="kpoint 6">
       <r>  -56.4869    1.0000 </r>
       <r>  -56.3776    1.0000 </r>
       <r>  -56.3260    1.0000 </r>
       <r>  -56.3149    1.0000 </r>
       <r>  -55.6015    1.0000 </r>
       <r>  -55.4841    1.0000 </r>
       <r>  -31.2193    1.0000 </r>
       <r>  -30.9455    1.0000 </r>
       <r>  -30.6956    1.0000 </r>
       <r>  -30.1389    1.0000 </r>
       <r>  -29.8679    1.0000 </r>
       <r>  -29.7636    1.0000 </r>
       <r>  -29.7061    1.0000 </r>
       <r>  -29.6937    1.0000 </r>
       <r>  -29.6615    1.0000 </r>
       <r>  -29.5771    1.0000 </r>
       <r>  -29.5491    1.0000 </r>
       <r>  -29.5116    1.0000 </r>
       <r>  -29.3003    1.0000 </r>
       <r>  -29.1893    1.0000 </r>
       <r>  -29.1507    1.0000 </r>
       <r>  -28.5563    1.0000 </r>
       <r>  -28.2629    1.0000 </r>
       <r>  -27.9203    1.0000 </r>
       <r>   -2.1185    1.0000 </r>
       <r>   -1.3657    1.0000 </r>
       <r>   -0.6053    1.0000 </r>
       <r>    0.3300    1.0000 </r>
       <r>    1.8305    1.0000 </r>
       <r>    2.1642    1.0000 </r>
       <r>    2.1958    1.0000 </r>
       <r>    2.3626    1.0000 </r>
       <r>    2.3921    1.0000 </r>
       <r>    2.5190    1.0000 </r>
       <r>    2.7626    1.0000 </r>
       <r>    3.0788    1.0000 </r>
       <r>    3.0924    1.0000 </r>
       <r>    3.4087    1.0000 </r>
       <r>    3.8160    1.0000 </r>
       <r>    4.3781    1.0000 </r>
       <r>    4.7279    1.0000 </r>
       <r>    4.9346    1.0000 </r>
       <r>    5.5484    1.0000 </r>
       <r>    5.7303    1.0000 </r>
       <r>    5.8078    1.0000 </r>
       <r>    5.9226    1.0000 </r>
       <r>    5.9975    1.0000 </r>
       <r>    6.2964    1.0000 </r>
       <r>    6.5439    1.0000 </r>
       <r>    6.8013    0.0000 </r>
       <r>    6.8794    0.0000 </r>
       <r>    7.0055    0.0000 </r>
       <r>    7.3360    0.0000 </r>
       <r>    7.5163    0.0000 </r>
       <r>    7.6380    0.0000 </r>
       <r>    8.3889    0.0000 </r>
       <r>    8.4411    0.0000 </r>
       <r>    8.6975    0.0000 </r>
       <r>    8.9124    0.0000 </r>
       <r>    9.1556    0.0000 </r>
      </set>
      <set comment="kpoint 7">
       <r>  -56.4546    1.0000 </r>
       <r>  -56.4159    1.0000 </r>
       <r>  -56.3226    1.0000 </r>
       <r>  -56.3186    1.0000 </r>
       <r>  -55.5607    1.0000 </r>
       <r>  -55.5186    1.0000 </r>
       <r>  -31.1077    1.0000 </r>
       <r>  -30.9303    1.0000 </r>
       <r>  -30.7118    1.0000 </r>
       <r>  -30.4329    1.0000 </r>
       <r>  -29.8405    1.0000 </r>
       <r>  -29.8001    1.0000 </r>
       <r>  -29.7015    1.0000 </r>
       <r>  -29.6986    1.0000 </r>
       <r>  -29.6318    1.0000 </r>
       <r>  -29.6024    1.0000 </r>
       <r>  -29.5343    1.0000 </r>
       <r>  -29.5196    1.0000 </r>
       <r>  -29.2560    1.0000 </r>
       <r>  -29.2242    1.0000 </r>
       <r>  -28.8473    1.0000 </r>
       <r>  -28.5367    1.0000 </r>
       <r>  -28.2765    1.0000 </r>
       <r>  -28.0589    1.0000 </r>
       <r>   -1.8400    1.0000 </r>
       <r>   -1.5893    1.0000 </r>
       <r>   -0.3412    1.0000 </r>
       <r>   -0.0827    1.0000 </r>
       <r>    2.0605    1.0000 </r>
       <r>    2.1158    1.0000 </r>
       <r>    2.2790    1.0000 </r>
       <r>    2.3360    1.0000 </r>
       <r>    2.4997    1.0000 </r>
       <r>    2.5304    1.0000 </r>
       <r>    2.7507    1.0000 </r>
       <r>    3.0512    1.0000 </r>
       <r>    3.4373    1.0000 </r>
       <r>    3.4580    1.0000 </r>
       <r>    3.7385    1.0000 </r>
       <r>    4.0426    1.0000 </r>
       <r>    4.4055    1.0000 </r>
       <r>    4.7193    1.0000 </r>
       <r>    5.2914    1.0000 </r>
       <r>    5.5535    1.0000 </r>
       <r>    5.6189    1.0000 </r>
       <r>    5.6628    1.0000 </r>
       <r>    5.8296    1.0000 </r>
       <r>    6.0646    1.0000 </r>
       <r>    6.5098    1.0000 </r>
       <r>    6.9271    0.0000 </r>
       <r>    6.9679    0.0000 </r>
       <r>    7.2031    0.0000 </r>
       <r>    7.6085    0.0000 </r>
       <r>    8.0460    0.0000 </r>
       <r>    8.1622    0.0000 </r>
       <r>    8.2864    0.0000 </r>
       <r>    8.4772    0.0000 </r>
       <r>    8.7995    0.0000 </r>
       <r>    9.0380    0.0000 </r>
       <r>    9.4691    0.0000 </r>
      </set>
      <set comment="kpoint 8">
       <r>  -56.4548    1.0000 </r>
       <r>  -56.4158    1.0000 </r>
       <r>  -56.3226    1.0000 </r>
       <r>  -56.3186    1.0000 </r>
       <r>  -55.5601    1.0000 </r>
       <r>  -55.5192    1.0000 </r>
       <r>  -31.1080    1.0000 </r>
       <r>  -30.9300    1.0000 </r>
       <r>  -30.7121    1.0000 </r>
       <r>  -30.4326    1.0000 </r>
       <r>  -29.8349    1.0000 </r>
       <r>  -29.8050    1.0000 </r>
       <r>  -29.7037    1.0000 </r>
       <r>  -29.6964    1.0000 </r>
       <r>  -29.6316    1.0000 </r>
       <r>  -29.6026    1.0000 </r>
       <r>  -29.5345    1.0000 </r>
       <r>  -29.5195    1.0000 </r>
       <r>  -29.2664    1.0000 </r>
       <r>  -29.2144    1.0000 </r>
       <r>  -28.8471    1.0000 </r>
       <r>  -28.5368    1.0000 </r>
       <r>  -28.2765    1.0000 </r>
       <r>  -28.0589    1.0000 </r>
       <r>   -2.2699    1.0000 </r>
       <r>   -1.0190    1.0000 </r>
       <r>   -0.4270    1.0000 </r>
       <r>    0.0123    1.0000 </r>
       <r>    2.0460    1.0000 </r>
       <r>    2.0856    1.0000 </r>
       <r>    2.3484    1.0000 </r>
       <r>    2.4069    1.0000 </r>
       <r>    2.4896    1.0000 </r>
       <r>    2.5786    1.0000 </r>
       <r>    2.8489    1.0000 </r>
       <r>    2.8774    1.0000 </r>
       <r>    3.0967    1.0000 </r>
       <r>    3.4367    1.0000 </r>
       <r>    3.5748    1.0000 </r>
       <r>    4.0824    1.0000 </r>
       <r>    4.7453    1.0000 </r>
       <r>    4.7468    1.0000 </r>
       <r>    5.0251    1.0000 </r>
       <r>    5.3049    1.0000 </r>
       <r>    5.4161    1.0000 </r>
       <r>    5.9191    1.0000 </r>
       <r>    6.1622    1.0000 </r>
       <r>    6.3702    1.0000 </r>
       <r>    6.5589    1.0000 </r>
       <r>    7.0442    0.0000 </r>
       <r>    7.0953    0.0000 </r>
       <r>    7.0961    0.0000 </r>
       <r>    7.5070    0.0000 </r>
       <r>    7.9563    0.0000 </r>
       <r>    8.0978    0.0000 </r>
       <r>    8.2971    0.0000 </r>
       <r>    8.3766    0.0000 </r>
       <r>    8.6901    0.0000 </r>
       <r>    8.8550    0.0000 </r>
       <r>    9.0832    0.0000 </r>
      </set>
      <set comment="kpoint 9">
       <r>  -56.4870    1.0000 </r>
       <r>  -56.3775    1.0000 </r>
       <r>  -56.3260    1.0000 </r>
       <r>  -56.3149    1.0000 </r>
       <r>  -55.6010    1.0000 </r>
       <r>  -55.4846    1.0000 </r>
       <r>  -31.2195    1.0000 </r>
       <r>  -30.9458    1.0000 </r>
       <r>  -30.6954    1.0000 </r>
       <r>  -30.1387    1.0000 </r>
       <r>  -29.8631    1.0000 </r>
       <r>  -29.7669    1.0000 </r>
       <r>  -29.7079    1.0000 </r>
       <r>  -29.6920    1.0000 </r>
       <r>  -29.6613    1.0000 </r>
       <r>  -29.5772    1.0000 </r>
       <r>  -29.5492    1.0000 </r>
       <r>  -29.5115    1.0000 </r>
       <r>  -29.3092    1.0000 </r>
       <r>  -29.1817    1.0000 </r>
       <r>  -29.1506    1.0000 </r>
       <r>  -28.5562    1.0000 </r>
       <r>  -28.2629    1.0000 </r>
       <r>  -27.9203    1.0000 </r>
       <r>   -2.5913    1.0000 </r>
       <r>   -0.6724    1.0000 </r>
       <r>   -0.5635    1.0000 </r>
       <r>    0.4288    1.0000 </r>
       <r>    1.8055    1.0000 </r>
       <r>    2.1532    1.0000 </r>
       <r>    2.1612    1.0000 </r>
       <r>    2.4380    1.0000 </r>
       <r>    2.5086    1.0000 </r>
       <r>    2.5937    1.0000 </r>
       <r>    2.6457    1.0000 </r>
       <r>    2.9234    1.0000 </r>
       <r>    2.9795    1.0000 </r>
       <r>    3.0746    1.0000 </r>
       <r>    3.7707    1.0000 </r>
       <r>    4.3212    1.0000 </r>
       <r>    4.4966    1.0000 </r>
       <r>    5.0929    1.0000 </r>
       <r>    5.5425    1.0000 </r>
       <r>    5.6040    1.0000 </r>
       <r>    5.6585    1.0000 </r>
       <r>    6.0499    1.0000 </r>
       <r>    6.3991    1.0000 </r>
       <r>    6.5931    1.0000 </r>
       <r>    6.8345    0.0000 </r>
       <r>    6.8353    0.0000 </r>
       <r>    7.0712    0.0000 </r>
       <r>    7.1796    0.0000 </r>
       <r>    7.3500    0.0000 </r>
       <r>    7.4983    0.0000 </r>
       <r>    7.6912    0.0000 </r>
       <r>    7.8551    0.0000 </r>
       <r>    8.0698    0.0000 </r>
       <r>    8.4199    0.0000 </r>
       <r>    8.7376    0.0000 </r>
       <r>    9.5013    0.0000 </r>
      </set>
      <set comment="kpoint 10">
       <r>  -56.5081    1.0000 </r>
       <r>  -56.3493    1.0000 </r>
       <r>  -56.3275    1.0000 </r>
       <r>  -56.3124    1.0000 </r>
       <r>  -55.6320    1.0000 </r>
       <r>  -55.4617    1.0000 </r>
       <r>  -31.2595    1.0000 </r>
       <r>  -31.1198    1.0000 </r>
       <r>  -30.4191    1.0000 </r>
       <r>  -29.9617    1.0000 </r>
       <r>  -29.8817    1.0000 </r>
       <r>  -29.7360    1.0000 </r>
       <r>  -29.7097    1.0000 </r>
       <r>  -29.6892    1.0000 </r>
       <r>  -29.6802    1.0000 </r>
       <r>  -29.5602    1.0000 </r>
       <r>  -29.5592    1.0000 </r>
       <r>  -29.5086    1.0000 </r>
       <r>  -29.3426    1.0000 </r>
       <r>  -29.3228    1.0000 </r>
       <r>  -29.1617    1.0000 </r>
       <r>  -28.8739    1.0000 </r>
       <r>  -28.0503    1.0000 </r>
       <r>  -27.8715    1.0000 </r>
       <r>   -2.7545    1.0000 </r>
       <r>   -0.8128    1.0000 </r>
       <r>   -0.3888    1.0000 </r>
       <r>    0.7726    1.0000 </r>
       <r>    1.6308    1.0000 </r>
       <r>    2.0030    1.0000 </r>
       <r>    2.1047    1.0000 </r>
       <r>    2.5684    1.0000 </r>
       <r>    2.6552    1.0000 </r>
       <r>    2.6624    1.0000 </r>
       <r>    2.6638    1.0000 </r>
       <r>    2.6744    1.0000 </r>
       <r>    2.7011    1.0000 </r>
       <r>    2.8183    1.0000 </r>
       <r>    4.1224    1.0000 </r>
       <r>    4.5773    1.0000 </r>
       <r>    4.6868    1.0000 </r>
       <r>    5.2962    1.0000 </r>
       <r>    5.9115    1.0000 </r>
       <r>    5.9298    1.0000 </r>
       <r>    6.0871    1.0000 </r>
       <r>    6.2791    1.0000 </r>
       <r>    6.4953    1.0000 </r>
       <r>    6.5168    1.0000 </r>
       <r>    6.5678    1.0000 </r>
       <r>    6.9317    0.0000 </r>
       <r>    7.0101    0.0000 </r>
       <r>    7.1145    0.0000 </r>
       <r>    7.1819    0.0000 </r>
       <r>    7.2532    0.0000 </r>
       <r>    7.4551    0.0000 </r>
       <r>    7.6588    0.0000 </r>
       <r>    7.8561    0.0000 </r>
       <r>    8.1224    0.0000 </r>
       <r>    8.8477    0.0000 </r>
       <r>    9.3616    0.0000 </r>
      </set>
      <set comment="kpoint 11">
       <r>  -56.4706    1.0000 </r>
       <r>  -56.3936    1.0000 </r>
       <r>  -56.3276    1.0000 </r>
       <r>  -56.3179    1.0000 </r>
       <r>  -55.5813    1.0000 </r>
       <r>  -55.5000    1.0000 </r>
       <r>  -31.2512    1.0000 </r>
       <r>  -30.9264    1.0000 </r>
       <r>  -30.7159    1.0000 </r>
       <r>  -29.9628    1.0000 </r>
       <r>  -29.8558    1.0000 </r>
       <r>  -29.7779    1.0000 </r>
       <r>  -29.7065    1.0000 </r>
       <r>  -29.6980    1.0000 </r>
       <r>  -29.6963    1.0000 </r>
       <r>  -29.5687    1.0000 </r>
       <r>  -29.5666    1.0000 </r>
       <r>  -29.5515    1.0000 </r>
       <r>  -29.2747    1.0000 </r>
       <r>  -29.2611    1.0000 </r>
       <r>  -29.2079    1.0000 </r>
       <r>  -28.5318    1.0000 </r>
       <r>  -28.2800    1.0000 </r>
       <r>  -27.8765    1.0000 </r>
       <r>   -1.7691    1.0000 </r>
       <r>   -1.6465    1.0000 </r>
       <r>   -0.4532    1.0000 </r>
       <r>    0.1088    1.0000 </r>
       <r>    1.9687    1.0000 </r>
       <r>    2.0093    1.0000 </r>
       <r>    2.0943    1.0000 </r>
       <r>    2.3006    1.0000 </r>
       <r>    2.4312    1.0000 </r>
       <r>    2.4686    1.0000 </r>
       <r>    2.8744    1.0000 </r>
       <r>    3.0646    1.0000 </r>
       <r>    3.1606    1.0000 </r>
       <r>    3.4499    1.0000 </r>
       <r>    3.7055    1.0000 </r>
       <r>    4.0617    1.0000 </r>
       <r>    4.7910    1.0000 </r>
       <r>    5.0384    1.0000 </r>
       <r>    5.4497    1.0000 </r>
       <r>    5.7036    1.0000 </r>
       <r>    5.7213    1.0000 </r>
       <r>    6.0210    1.0000 </r>
       <r>    6.1669    1.0000 </r>
       <r>    6.2645    1.0000 </r>
       <r>    6.3689    1.0000 </r>
       <r>    6.5787    1.0000 </r>
       <r>    7.0679    0.0000 </r>
       <r>    7.1475    0.0000 </r>
       <r>    7.2741    0.0000 </r>
       <r>    7.3107    0.0000 </r>
       <r>    7.6739    0.0000 </r>
       <r>    8.3523    0.0000 </r>
       <r>    8.8441    0.0000 </r>
       <r>    8.8466    0.0000 </r>
       <r>    9.1153    0.0000 </r>
       <r>    9.2090    0.0000 </r>
      </set>
      <set comment="kpoint 12">
       <r>  -56.4464    1.0000 </r>
       <r>  -56.4188    1.0000 </r>
       <r>  -56.3260    1.0000 </r>
       <r>  -56.3220    1.0000 </r>
       <r>  -55.5538    1.0000 </r>
       <r>  -55.5241    1.0000 </r>
       <r>  -31.2110    1.0000 </r>
       <r>  -31.1014    1.0000 </r>
       <r>  -30.4406    1.0000 </r>
       <r>  -30.1483    1.0000 </r>
       <r>  -29.8353    1.0000 </r>
       <r>  -29.8006    1.0000 </r>
       <r>  -29.7038    1.0000 </r>
       <r>  -29.7033    1.0000 </r>
       <r>  -29.6450    1.0000 </r>
       <r>  -29.5980    1.0000 </r>
       <r>  -29.5561    1.0000 </r>
       <r>  -29.5513    1.0000 </r>
       <r>  -29.2443    1.0000 </r>
       <r>  -29.2336    1.0000 </r>
       <r>  -29.1154    1.0000 </r>
       <r>  -28.8327    1.0000 </r>
       <r>  -28.0637    1.0000 </r>
       <r>  -27.9255    1.0000 </r>
       <r>   -2.1259    1.0000 </r>
       <r>   -1.0862    1.0000 </r>
       <r>   -0.2338    1.0000 </r>
       <r>   -0.1633    1.0000 </r>
       <r>    1.8626    1.0000 </r>
       <r>    2.1836    1.0000 </r>
       <r>    2.2390    1.0000 </r>
       <r>    2.2984    1.0000 </r>
       <r>    2.3259    1.0000 </r>
       <r>    2.4661    1.0000 </r>
       <r>    2.6415    1.0000 </r>
       <r>    2.8394    1.0000 </r>
       <r>    3.0997    1.0000 </r>
       <r>    3.3486    1.0000 </r>
       <r>    3.6351    1.0000 </r>
       <r>    4.4619    1.0000 </r>
       <r>    4.9425    1.0000 </r>
       <r>    4.9775    1.0000 </r>
       <r>    5.1484    1.0000 </r>
       <r>    5.6688    1.0000 </r>
       <r>    5.7100    1.0000 </r>
       <r>    5.7245    1.0000 </r>
       <r>    5.9117    1.0000 </r>
       <r>    6.3533    1.0000 </r>
       <r>    6.4098    1.0000 </r>
       <r>    6.6146    1.0000 </r>
       <r>    7.0955    0.0000 </r>
       <r>    7.2953    0.0000 </r>
       <r>    7.6939    0.0000 </r>
       <r>    7.7124    0.0000 </r>
       <r>    7.7890    0.0000 </r>
       <r>    8.3735    0.0000 </r>
       <r>    8.4785    0.0000 </r>
       <r>    8.6827    0.0000 </r>
       <r>    8.9765    0.0000 </r>
       <r>    9.4335    0.0000 </r>
      </set>
      <set comment="kpoint 13">
       <r>  -56.4466    1.0000 </r>
       <r>  -56.4185    1.0000 </r>
       <r>  -56.3259    1.0000 </r>
       <r>  -56.3222    1.0000 </r>
       <r>  -55.5527    1.0000 </r>
       <r>  -55.5251    1.0000 </r>
       <r>  -31.2116    1.0000 </r>
       <r>  -31.1009    1.0000 </r>
       <r>  -30.4412    1.0000 </r>
       <r>  -30.1478    1.0000 </r>
       <r>  -29.8254    1.0000 </r>
       <r>  -29.8096    1.0000 </r>
       <r>  -29.7079    1.0000 </r>
       <r>  -29.6992    1.0000 </r>
       <r>  -29.6446    1.0000 </r>
       <r>  -29.5983    1.0000 </r>
       <r>  -29.5563    1.0000 </r>
       <r>  -29.5511    1.0000 </r>
       <r>  -29.2628    1.0000 </r>
       <r>  -29.2158    1.0000 </r>
       <r>  -29.1151    1.0000 </r>
       <r>  -28.8329    1.0000 </r>
       <r>  -28.0636    1.0000 </r>
       <r>  -27.9255    1.0000 </r>
       <r>   -2.4063    1.0000 </r>
       <r>   -0.5865    1.0000 </r>
       <r>   -0.4064    1.0000 </r>
       <r>    0.0418    1.0000 </r>
       <r>    1.8834    1.0000 </r>
       <r>    2.1318    1.0000 </r>
       <r>    2.2079    1.0000 </r>
       <r>    2.2458    1.0000 </r>
       <r>    2.3326    1.0000 </r>
       <r>    2.4249    1.0000 </r>
       <r>    2.5481    1.0000 </r>
       <r>    2.7066    1.0000 </r>
       <r>    3.3027    1.0000 </r>
       <r>    3.3073    1.0000 </r>
       <r>    3.6019    1.0000 </r>
       <r>    4.1767    1.0000 </r>
       <r>    4.9251    1.0000 </r>
       <r>    5.2004    1.0000 </r>
       <r>    5.2140    1.0000 </r>
       <r>    5.2531    1.0000 </r>
       <r>    5.5658    1.0000 </r>
       <r>    5.9627    1.0000 </r>
       <r>    6.2878    1.0000 </r>
       <r>    6.4780    1.0000 </r>
       <r>    6.6457    1.0000 </r>
       <r>    6.8586    0.0000 </r>
       <r>    6.9478    0.0000 </r>
       <r>    7.0421    0.0000 </r>
       <r>    7.5171    0.0000 </r>
       <r>    7.7730    0.0000 </r>
       <r>    8.0615    0.0000 </r>
       <r>    8.3105    0.0000 </r>
       <r>    8.3735    0.0000 </r>
       <r>    8.5492    0.0000 </r>
       <r>    8.9793    0.0000 </r>
       <r>    9.1422    0.0000 </r>
      </set>
      <set comment="kpoint 14">
       <r>  -56.4708    1.0000 </r>
       <r>  -56.3934    1.0000 </r>
       <r>  -56.3275    1.0000 </r>
       <r>  -56.3180    1.0000 </r>
       <r>  -55.5804    1.0000 </r>
       <r>  -55.5008    1.0000 </r>
       <r>  -31.2517    1.0000 </r>
       <r>  -30.9260    1.0000 </r>
       <r>  -30.7163    1.0000 </r>
       <r>  -29.9625    1.0000 </r>
       <r>  -29.8474    1.0000 </r>
       <r>  -29.7845    1.0000 </r>
       <r>  -29.7099    1.0000 </r>
       <r>  -29.6960    1.0000 </r>
       <r>  -29.6948    1.0000 </r>
       <r>  -29.5689    1.0000 </r>
       <r>  -29.5668    1.0000 </r>
       <r>  -29.5513    1.0000 </r>
       <r>  -29.2903    1.0000 </r>
       <r>  -29.2609    1.0000 </r>
       <r>  -29.1940    1.0000 </r>
       <r>  -28.5320    1.0000 </r>
       <r>  -28.2799    1.0000 </r>
       <r>  -27.8765    1.0000 </r>
       <r>   -2.5729    1.0000 </r>
       <r>   -0.5802    1.0000 </r>
       <r>   -0.3875    1.0000 </r>
       <r>    0.3055    1.0000 </r>
       <r>    1.9552    1.0000 </r>
       <r>    2.0126    1.0000 </r>
       <r>    2.0809    1.0000 </r>
       <r>    2.0852    1.0000 </r>
       <r>    2.4083    1.0000 </r>
       <r>    2.6019    1.0000 </r>
       <r>    2.7190    1.0000 </r>
       <r>    2.8600    1.0000 </r>
       <r>    3.2048    1.0000 </r>
       <r>    3.3239    1.0000 </r>
       <r>    3.5259    1.0000 </r>
       <r>    3.9075    1.0000 </r>
       <r>    4.8004    1.0000 </r>
       <r>    5.0926    1.0000 </r>
       <r>    5.1345    1.0000 </r>
       <r>    5.5621    1.0000 </r>
       <r>    5.9637    1.0000 </r>
       <r>    6.2690    1.0000 </r>
       <r>    6.3255    1.0000 </r>
       <r>    6.6216    1.0000 </r>
       <r>    6.7899    0.0000 </r>
       <r>    6.8501    0.0000 </r>
       <r>    7.0084    0.0000 </r>
       <r>    7.1336    0.0000 </r>
       <r>    7.1840    0.0000 </r>
       <r>    7.6001    0.0000 </r>
       <r>    7.6125    0.0000 </r>
       <r>    7.9996    0.0000 </r>
       <r>    8.2475    0.0000 </r>
       <r>    8.5179    0.0000 </r>
       <r>    9.0096    0.0000 </r>
       <r>    9.2391    0.0000 </r>
      </set>
      <set comment="kpoint 15">
       <r>  -56.4354    1.0000 </r>
       <r>  -56.4255    1.0000 </r>
       <r>  -56.3277    1.0000 </r>
       <r>  -56.3258    1.0000 </r>
       <r>  -55.5441    1.0000 </r>
       <r>  -55.5326    1.0000 </r>
       <r>  -31.2447    1.0000 </r>
       <r>  -31.2081    1.0000 </r>
       <r>  -30.1518    1.0000 </r>
       <r>  -29.9632    1.0000 </r>
       <r>  -29.8264    1.0000 </r>
       <r>  -29.8053    1.0000 </r>
       <r>  -29.7116    1.0000 </r>
       <r>  -29.7080    1.0000 </r>
       <r>  -29.7047    1.0000 </r>
       <r>  -29.6326    1.0000 </r>
       <r>  -29.5718    1.0000 </r>
       <r>  -29.5708    1.0000 </r>
       <r>  -29.2443    1.0000 </r>
       <r>  -29.2320    1.0000 </r>
       <r>  -29.2243    1.0000 </r>
       <r>  -29.1009    1.0000 </r>
       <r>  -27.9278    1.0000 </r>
       <r>  -27.8804    1.0000 </r>
       <r>   -2.3192    1.0000 </r>
       <r>   -0.5975    1.0000 </r>
       <r>   -0.2611    1.0000 </r>
       <r>   -0.0978    1.0000 </r>
       <r>    1.7455    1.0000 </r>
       <r>    2.0841    1.0000 </r>
       <r>    2.1596    1.0000 </r>
       <r>    2.2068    1.0000 </r>
       <r>    2.2726    1.0000 </r>
       <r>    2.3451    1.0000 </r>
       <r>    2.3681    1.0000 </r>
       <r>    2.7335    1.0000 </r>
       <r>    3.2177    1.0000 </r>
       <r>    3.4552    1.0000 </r>
       <r>    3.5679    1.0000 </r>
       <r>    4.4703    1.0000 </r>
       <r>    4.8161    1.0000 </r>
       <r>    4.9333    1.0000 </r>
       <r>    5.4834    1.0000 </r>
       <r>    5.8082    1.0000 </r>
       <r>    5.8830    1.0000 </r>
       <r>    6.1357    1.0000 </r>
       <r>    6.2195    1.0000 </r>
       <r>    6.2922    1.0000 </r>
       <r>    6.4233    1.0000 </r>
       <r>    6.7460    0.0637 </r>
       <r>    6.8732    0.0000 </r>
       <r>    7.0358    0.0000 </r>
       <r>    7.2785    0.0000 </r>
       <r>    7.6527    0.0000 </r>
       <r>    7.8214    0.0000 </r>
       <r>    8.3472    0.0000 </r>
       <r>    8.4269    0.0000 </r>
       <r>    8.8865    0.0000 </r>
       <r>    8.9732    0.0000 </r>
       <r>    9.1496    0.0000 </r>
      </set>
      <set comment="kpoint 16">
       <r>  -56.4357    1.0000 </r>
       <r>  -56.4251    1.0000 </r>
       <r>  -56.3275    1.0000 </r>
       <r>  -56.3260    1.0000 </r>
       <r>  -55.5428    1.0000 </r>
       <r>  -55.5339    1.0000 </r>
       <r>  -31.2454    1.0000 </r>
       <r>  -31.2073    1.0000 </r>
       <r>  -30.1524    1.0000 </r>
       <r>  -29.9627    1.0000 </r>
       <r>  -29.8170    1.0000 </r>
       <r>  -29.8145    1.0000 </r>
       <r>  -29.7111    1.0000 </r>
       <r>  -29.7100    1.0000 </r>
       <r>  -29.7028    1.0000 </r>
       <r>  -29.6331    1.0000 </r>
       <r>  -29.5722    1.0000 </r>
       <r>  -29.5705    1.0000 </r>
       <r>  -29.2548    1.0000 </r>
       <r>  -29.2240    1.0000 </r>
       <r>  -29.2219    1.0000 </r>
       <r>  -29.1011    1.0000 </r>
       <r>  -27.9278    1.0000 </r>
       <r>  -27.8804    1.0000 </r>
       <r>   -2.4169    1.0000 </r>
       <r>   -0.3811    1.0000 </r>
       <r>   -0.3487    1.0000 </r>
       <r>    0.0260    1.0000 </r>
       <r>    1.7613    1.0000 </r>
       <r>    1.9335    1.0000 </r>
       <r>    2.0663    1.0000 </r>
       <r>    2.2069    1.0000 </r>
       <r>    2.2689    1.0000 </r>
       <r>    2.2714    1.0000 </r>
       <r>    2.4533    1.0000 </r>
       <r>    2.7666    1.0000 </r>
       <r>    3.3176    1.0000 </r>
       <r>    3.3275    1.0000 </r>
       <r>    3.8832    1.0000 </r>
       <r>    3.9945    1.0000 </r>
       <r>    4.8788    1.0000 </r>
       <r>    5.0579    1.0000 </r>
       <r>    5.5065    1.0000 </r>
       <r>    5.5985    1.0000 </r>
       <r>    5.7681    1.0000 </r>
       <r>    6.3014    1.0000 </r>
       <r>    6.5000    1.0000 </r>
       <r>    6.5091    1.0000 </r>
       <r>    6.5765    1.0000 </r>
       <r>    6.6237    1.0000 </r>
       <r>    6.6755    0.9997 </r>
       <r>    7.0544    0.0000 </r>
       <r>    7.2903    0.0000 </r>
       <r>    7.5311    0.0000 </r>
       <r>    7.7969    0.0000 </r>
       <r>    8.1921    0.0000 </r>
       <r>    8.5952    0.0000 </r>
       <r>    8.7692    0.0000 </r>
       <r>    9.0605    0.0000 </r>
       <r>    9.3907    0.0000 </r>
      </set>
      <set comment="kpoint 17">
       <r>  -56.5115    1.0000 </r>
       <r>  -56.3446    1.0000 </r>
       <r>  -56.3275    1.0000 </r>
       <r>  -56.3120    1.0000 </r>
       <r>  -55.6374    1.0000 </r>
       <r>  -55.4580    1.0000 </r>
       <r>  -31.2603    1.0000 </r>
       <r>  -31.1529    1.0000 </r>
       <r>  -30.3465    1.0000 </r>
       <r>  -29.9615    1.0000 </r>
       <r>  -29.8848    1.0000 </r>
       <r>  -29.7305    1.0000 </r>
       <r>  -29.7097    1.0000 </r>
       <r>  -29.6888    1.0000 </r>
       <r>  -29.6789    1.0000 </r>
       <r>  -29.5595    1.0000 </r>
       <r>  -29.5587    1.0000 </r>
       <r>  -29.5021    1.0000 </r>
       <r>  -29.3485    1.0000 </r>
       <r>  -29.3309    1.0000 </r>
       <r>  -29.1587    1.0000 </r>
       <r>  -28.9552    1.0000 </r>
       <r>  -28.0088    1.0000 </r>
       <r>  -27.8710    1.0000 </r>
       <r>   -2.7718    1.0000 </r>
       <r>   -0.8334    1.0000 </r>
       <r>   -0.3886    1.0000 </r>
       <r>    0.8317    1.0000 </r>
       <r>    1.6017    1.0000 </r>
       <r>    1.9813    1.0000 </r>
       <r>    2.1155    1.0000 </r>
       <r>    2.5950    1.0000 </r>
       <r>    2.6237    1.0000 </r>
       <r>    2.6569    1.0000 </r>
       <r>    2.6649    1.0000 </r>
       <r>    2.6754    1.0000 </r>
       <r>    2.6884    1.0000 </r>
       <r>    2.7765    1.0000 </r>
       <r>    4.0548    1.0000 </r>
       <r>    4.7887    1.0000 </r>
       <r>    4.8025    1.0000 </r>
       <r>    5.3137    1.0000 </r>
       <r>    5.9017    1.0000 </r>
       <r>    5.9769    1.0000 </r>
       <r>    6.1533    1.0000 </r>
       <r>    6.2849    1.0000 </r>
       <r>    6.4439    1.0000 </r>
       <r>    6.5503    1.0000 </r>
       <r>    6.5755    1.0000 </r>
       <r>    6.9457    0.0000 </r>
       <r>    6.9869    0.0000 </r>
       <r>    7.0870    0.0000 </r>
       <r>    7.1651    0.0000 </r>
       <r>    7.1723    0.0000 </r>
       <r>    7.4755    0.0000 </r>
       <r>    7.6002    0.0000 </r>
       <r>    7.9000    0.0000 </r>
       <r>    8.0879    0.0000 </r>
       <r>    8.7882    0.0000 </r>
       <r>    9.3209    0.0000 </r>
      </set>
      <set comment="kpoint 18">
       <r>  -56.4917    1.0000 </r>
       <r>  -56.3719    1.0000 </r>
       <r>  -56.3260    1.0000 </r>
       <r>  -56.3143    1.0000 </r>
       <r>  -55.6075    1.0000 </r>
       <r>  -55.4796    1.0000 </r>
       <r>  -31.2206    1.0000 </r>
       <r>  -30.9948    1.0000 </r>
       <r>  -30.6299    1.0000 </r>
       <r>  -30.1375    1.0000 </r>
       <r>  -29.8674    1.0000 </r>
       <r>  -29.7608    1.0000 </r>
       <r>  -29.7080    1.0000 </r>
       <r>  -29.6913    1.0000 </r>
       <r>  -29.6630    1.0000 </r>
       <r>  -29.5753    1.0000 </r>
       <r>  -29.5493    1.0000 </r>
       <r>  -29.5065    1.0000 </r>
       <r>  -29.3158    1.0000 </r>
       <r>  -29.1776    1.0000 </r>
       <r>  -29.1555    1.0000 </r>
[...]
       <r>    0.7056    1.0000 </r>
       <r>    1.5961    1.0000 </r>
       <r>    1.6019    1.0000 </r>
       <r>    1.6248    1.0000 </r>
       <r>    1.9316    1.0000 </r>
       <r>    2.2107    1.0000 </r>
       <r>    2.2335    1.0000 </r>
       <r>    2.2549    1.0000 </r>
       <r>    2.5409    1.0000 </r>
       <r>    3.8750    1.0000 </r>
       <r>    3.9335    1.0000 </r>
       <r>    4.1747    1.0000 </r>
       <r>    4.5816    1.0000 </r>
       <r>    4.9525    1.0000 </r>
       <r>    5.0281    1.0000 </r>
       <r>    5.4578    1.0000 </r>
       <r>    5.9597    1.0000 </r>
       <r>    6.2305    1.0000 </r>
       <r>    6.4013    1.0000 </r>
       <r>    6.4736    1.0000 </r>
       <r>    6.5115    1.0000 </r>
       <r>    6.6272    1.0000 </r>
       <r>    6.7573    0.0101 </r>
       <r>    6.8337    0.0000 </r>
       <r>    6.9263    0.0000 </r>
       <r>    7.2343    0.0000 </r>
       <r>    7.3101    0.0000 </r>
       <r>    7.6336    0.0000 </r>
       <r>    7.8101    0.0000 </r>
       <r>    8.4395    0.0000 </r>
       <r>    8.4647    0.0000 </r>
       <r>    8.5491    0.0000 </r>
       <r>    9.6659    0.0000 </r>
      </set>
      <set comment="kpoint 116">
       <r>  -56.5189    1.0000 </r>
       <r>  -56.3336    1.0000 </r>
       <r>  -56.3277    1.0000 </r>
       <r>  -56.3109    1.0000 </r>
       <r>  -55.6519    1.0000 </r>
       <r>  -55.4481    1.0000 </r>
       <r>  -31.2612    1.0000 </r>
       <r>  -31.2260    1.0000 </r>
       <r>  -30.1347    1.0000 </r>
       <r>  -29.9598    1.0000 </r>
       <r>  -29.9071    1.0000 </r>
       <r>  -29.7109    1.0000 </r>
       <r>  -29.7042    1.0000 </r>
       <r>  -29.6929    1.0000 </r>
       <r>  -29.6764    1.0000 </r>
       <r>  -29.5577    1.0000 </r>
       <r>  -29.5574    1.0000 </r>
       <r>  -29.4838    1.0000 </r>
       <r>  -29.3537    1.0000 </r>
       <r>  -29.3327    1.0000 </r>
       <r>  -29.1897    1.0000 </r>
       <r>  -29.1729    1.0000 </r>
       <r>  -27.9156    1.0000 </r>
       <r>  -27.8699    1.0000 </r>
       <r>   -2.1410    1.0000 </r>
       <r>   -1.0889    1.0000 </r>
       <r>   -0.4440    1.0000 </r>
       <r>    0.6935    1.0000 </r>
       <r>    1.5638    1.0000 </r>
       <r>    1.5885    1.0000 </r>
       <r>    1.5997    1.0000 </r>
       <r>    1.9324    1.0000 </r>
       <r>    1.9604    1.0000 </r>
       <r>    2.2240    1.0000 </r>
       <r>    2.2445    1.0000 </r>
       <r>    2.5203    1.0000 </r>
       <r>    4.0659    1.0000 </r>
       <r>    4.0852    1.0000 </r>
       <r>    4.1091    1.0000 </r>
       <r>    4.5522    1.0000 </r>
       <r>    4.8665    1.0000 </r>
       <r>    4.9434    1.0000 </r>
       <r>    5.4429    1.0000 </r>
       <r>    5.9520    1.0000 </r>
       <r>    6.2262    1.0000 </r>
       <r>    6.4476    1.0000 </r>
       <r>    6.4486    1.0000 </r>
       <r>    6.4684    1.0000 </r>
       <r>    6.6810    0.9989 </r>
       <r>    6.7260    0.4568 </r>
       <r>    6.8655    0.0000 </r>
       <r>    6.9018    0.0000 </r>
       <r>    7.2787    0.0000 </r>
       <r>    7.4064    0.0000 </r>
       <r>    7.6398    0.0000 </r>
       <r>    7.7845    0.0000 </r>
       <r>    8.4260    0.0000 </r>
       <r>    8.4515    0.0000 </r>
       <r>    8.5528    0.0000 </r>
       <r>    9.6480    0.0000 </r>
      </set>
     </set>
    </set>
   </array>
  </eigenvalues>
  <separator name="orbital magnetization" >
   <v name="MAGDIPOLOUT">      0.00000000      0.00000000      0.00000000</v>
  </separator>
  <dos>
   <i name="efermi">      6.72448195 </i>
   <total>
    <array>
     <dimension dim="1">gridpoints</dimension>
     <dimension dim="2">spin</dimension>
     <field>energy</field>
     <field>total</field>
     <field>integrated</field>
     <set>
      <set comment="spin 1">
       <r>   -59.8434     0.0000     0.0000 </r>
       <r>   -59.6000     0.0000     0.0000 </r>
       <r>   -59.3565     0.0000     0.0000 </r>
       <r>   -59.1130     0.0000     0.0000 </r>
       <r>   -58.8695     0.0000     0.0000 </r>
       <r>   -58.6260     0.0000     0.0000 </r>
       <r>   -58.3825     0.0000     0.0000 </r>
       <r>   -58.1391     0.0000     0.0000 </r>
       <r>   -57.8956     0.0000     0.0000 </r>
       <r>   -57.6521     0.0000     0.0000 </r>
       <r>   -57.4086     0.0000     0.0000 </r>
       <r>   -57.1651     0.0000     0.0000 </r>
       <r>   -56.9217     0.0000     0.0000 </r>
       <r>   -56.6782     0.0000     0.0000 </r>
       <r>   -56.4347     8.0225     1.9533 </r>
       <r>   -56.1912    17.4551     8.0000 </r>
       <r>   -55.9477     0.0000     8.0000 </r>
       <r>   -55.7042     0.0001     8.0000 </r>
       <r>   -55.4608    13.7188    11.7331 </r>
       <r>   -55.2173     0.0000    12.0000 </r>
       <r>   -54.9738     0.0000    12.0000 </r>
       <r>   -54.7303     0.0000    12.0000 </r>
       <r>   -54.4868     0.0000    12.0000 </r>
       <r>   -54.2434     0.0000    12.0000 </r>
       <r>   -53.9999     0.0000    12.0000 </r>
       <r>   -53.7564     0.0000    12.0000 </r>
       <r>   -53.5129     0.0000    12.0000 </r>
       <r>   -53.2694     0.0000    12.0000 </r>
       <r>   -53.0259     0.0000    12.0000 </r>
       <r>   -52.7825     0.0000    12.0000 </r>
       <r>   -52.5390     0.0000    12.0000 </r>
       <r>   -52.2955     0.0000    12.0000 </r>
       <r>   -52.0520     0.0000    12.0000 </r>
       <r>   -51.8085     0.0000    12.0000 </r>
       <r>   -51.5651     0.0000    12.0000 </r>
       <r>   -51.3216     0.0000    12.0000 </r>
       <r>   -51.0781     0.0000    12.0000 </r>
       <r>   -50.8346     0.0000    12.0000 </r>
       <r>   -50.5911     0.0000    12.0000 </r>
       <r>   -50.3476     0.0000    12.0000 </r>
       <r>   -50.1042     0.0000    12.0000 </r>
       <r>   -49.8607     0.0000    12.0000 </r>
       <r>   -49.6172     0.0000    12.0000 </r>
       <r>   -49.3737     0.0000    12.0000 </r>
       <r>   -49.1302     0.0000    12.0000 </r>
       <r>   -48.8868     0.0000    12.0000 </r>
       <r>   -48.6433     0.0000    12.0000 </r>
       <r>   -48.3998     0.0000    12.0000 </r>
       <r>   -48.1563     0.0000    12.0000 </r>
       <r>   -47.9128     0.0000    12.0000 </r>
       <r>   -47.6694     0.0000    12.0000 </r>
       <r>   -47.4259     0.0000    12.0000 </r>
       <r>   -47.1824     0.0000    12.0000 </r>
       <r>   -46.9389     0.0000    12.0000 </r>
       <r>   -46.6954     0.0000    12.0000 </r>
       <r>   -46.4519     0.0000    12.0000 </r>
       <r>   -46.2085     0.0000    12.0000 </r>
       <r>   -45.9650     0.0000    12.0000 </r>
       <r>   -45.7215     0.0000    12.0000 </r>
       <r>   -45.4780     0.0000    12.0000 </r>
       <r>   -45.2345     0.0000    12.0000 </r>
       <r>   -44.9911     0.0000    12.0000 </r>
       <r>   -44.7476     0.0000    12.0000 </r>
       <r>   -44.5041     0.0000    12.0000 </r>
       <r>   -44.2606     0.0000    12.0000 </r>
       <r>   -44.0171     0.0000    12.0000 </r>
       <r>   -43.7736     0.0000    12.0000 </r>
       <r>   -43.5302     0.0000    12.0000 </r>
       <r>   -43.2867     0.0000    12.0000 </r>
       <r>   -43.0432     0.0000    12.0000 </r>
       <r>   -42.7997     0.0000    12.0000 </r>
       <r>   -42.5562     0.0000    12.0000 </r>
       <r>   -42.3128     0.0000    12.0000 </r>
       <r>   -42.0693     0.0000    12.0000 </r>
       <r>   -41.8258     0.0000    12.0000 </r>
       <r>   -41.5823     0.0000    12.0000 </r>
       <r>   -41.3388     0.0000    12.0000 </r>
       <r>   -41.0953     0.0000    12.0000 </r>
       <r>   -40.8519     0.0000    12.0000 </r>
       <r>   -40.6084     0.0000    12.0000 </r>
       <r>   -40.3649     0.0000    12.0000 </r>
       <r>   -40.1214     0.0000    12.0000 </r>
       <r>   -39.8779     0.0000    12.0000 </r>
       <r>   -39.6345     0.0000    12.0000 </r>
       <r>   -39.3910     0.0000    12.0000 </r>
       <r>   -39.1475     0.0000    12.0000 </r>
       <r>   -38.9040     0.0000    12.0000 </r>
       <r>   -38.6605     0.0000    12.0000 </r>
       <r>   -38.4170     0.0000    12.0000 </r>
       <r>   -38.1736     0.0000    12.0000 </r>
       <r>   -37.9301     0.0000    12.0000 </r>
       <r>   -37.6866     0.0000    12.0000 </r>
       <r>   -37.4431     0.0000    12.0000 </r>
       <r>   -37.1996     0.0000    12.0000 </r>
       <r>   -36.9562     0.0000    12.0000 </r>
       <r>   -36.7127     0.0000    12.0000 </r>
       <r>   -36.4692     0.0000    12.0000 </r>
       <r>   -36.2257     0.0000    12.0000 </r>
       <r>   -35.9822     0.0000    12.0000 </r>
       <r>   -35.7387     0.0000    12.0000 </r>
       <r>   -35.4953     0.0000    12.0000 </r>
       <r>   -35.2518     0.0000    12.0000 </r>
       <r>   -35.0083     0.0000    12.0000 </r>
       <r>   -34.7648     0.0000    12.0000 </r>
       <r>   -34.5213     0.0000    12.0000 </r>
       <r>   -34.2779     0.0000    12.0000 </r>
       <r>   -34.0344     0.0000    12.0000 </r>
       <r>   -33.7909     0.0000    12.0000 </r>
       <r>   -33.5474     0.0000    12.0000 </r>
       <r>   -33.3039     0.0000    12.0000 </r>
       <r>   -33.0604     0.0000    12.0000 </r>
       <r>   -32.8170     0.0000    12.0000 </r>
       <r>   -32.5735     0.0000    12.0000 </r>
       <r>   -32.3300     0.0000    12.0000 </r>
       <r>   -32.0865     0.0000    12.0000 </r>
       <r>   -31.8430     0.0000    12.0000 </r>
       <r>   -31.5996     0.0000    12.0000 </r>
       <r>   -31.3561     0.0000    12.0000 </r>
       <r>   -31.1126     9.1744    14.2338 </r>
       <r>   -30.8691     4.2952    15.9030 </r>
       <r>   -30.6256     3.9937    17.0438 </r>
       <r>   -30.3821     3.5538    18.0796 </r>
       <r>   -30.1387     2.8808    18.9157 </r>
       <r>   -29.8952     3.4557    20.1985 </r>
       <r>   -29.6517    29.0630    29.2192 </r>
       <r>   -29.4082    16.9526    36.0001 </r>
       <r>   -29.1647    18.2250    40.7895 </r>
       <r>   -28.9213     1.2449    41.8745 </r>
       <r>   -28.6778     1.8346    42.9059 </r>
       <r>   -28.4343     3.5264    43.9300 </r>
       <r>   -28.1908     4.0577    45.0594 </r>
       <r>   -27.9473     4.8927    46.4566 </r>
       <r>   -27.7038     0.0000    48.0000 </r>
       <r>   -27.4604     0.0000    48.0000 </r>
       <r>   -27.2169     0.0000    48.0000 </r>
       <r>   -26.9734     0.0000    48.0000 </r>
       <r>   -26.7299     0.0000    48.0000 </r>
       <r>   -26.4864     0.0000    48.0000 </r>
       <r>   -26.2430     0.0000    48.0000 </r>
       <r>   -25.9995     0.0000    48.0000 </r>
       <r>   -25.7560     0.0000    48.0000 </r>
       <r>   -25.5125     0.0000    48.0000 </r>
       <r>   -25.2690     0.0000    48.0000 </r>
       <r>   -25.0256     0.0000    48.0000 </r>
       <r>   -24.7821     0.0000    48.0000 </r>
       <r>   -24.5386     0.0000    48.0000 </r>
       <r>   -24.2951     0.0000    48.0000 </r>
       <r>   -24.0516     0.0000    48.0000 </r>
       <r>   -23.8081     0.0000    48.0000 </r>
       <r>   -23.5647     0.0000    48.0000 </r>
       <r>   -23.3212     0.0000    48.0000 </r>
       <r>   -23.0777     0.0000    48.0000 </r>
       <r>   -22.8342     0.0000    48.0000 </r>
       <r>   -22.5907     0.0000    48.0000 </r>
       <r>   -22.3473     0.0000    48.0000 </r>
       <r>   -22.1038     0.0000    48.0000 </r>
       <r>   -21.8603     0.0000    48.0000 </r>
       <r>   -21.6168     0.0000    48.0000 </r>
       <r>   -21.3733     0.0000    48.0000 </r>
       <r>   -21.1298     0.0000    48.0000 </r>
       <r>   -20.8864     0.0000    48.0000 </r>
       <r>   -20.6429     0.0000    48.0000 </r>
       <r>   -20.3994     0.0000    48.0000 </r>
       <r>   -20.1559     0.0000    48.0000 </r>
       <r>   -19.9124     0.0000    48.0000 </r>
       <r>   -19.6690     0.0000    48.0000 </r>
       <r>   -19.4255     0.0000    48.0000 </r>
       <r>   -19.1820     0.0000    48.0000 </r>
       <r>   -18.9385     0.0000    48.0000 </r>
       <r>   -18.6950     0.0000    48.0000 </r>
       <r>   -18.4515     0.0000    48.0000 </r>
       <r>   -18.2081     0.0000    48.0000 </r>
       <r>   -17.9646     0.0000    48.0000 </r>
       <r>   -17.7211     0.0000    48.0000 </r>
       <r>   -17.4776     0.0000    48.0000 </r>
       <r>   -17.2341     0.0000    48.0000 </r>
       <r>   -16.9907     0.0000    48.0000 </r>
       <r>   -16.7472     0.0000    48.0000 </r>
       <r>   -16.5037     0.0000    48.0000 </r>
       <r>   -16.2602     0.0000    48.0000 </r>
       <r>   -16.0167     0.0000    48.0000 </r>
       <r>   -15.7732     0.0000    48.0000 </r>
       <r>   -15.5298     0.0000    48.0000 </r>
       <r>   -15.2863     0.0000    48.0000 </r>
       <r>   -15.0428     0.0000    48.0000 </r>
       <r>   -14.7993     0.0000    48.0000 </r>
       <r>   -14.5558     0.0000    48.0000 </r>
       <r>   -14.3124     0.0000    48.0000 </r>
       <r>   -14.0689     0.0000    48.0000 </r>
       <r>   -13.8254     0.0000    48.0000 </r>
       <r>   -13.5819     0.0000    48.0000 </r>
       <r>   -13.3384     0.0000    48.0000 </r>
       <r>   -13.0949     0.0000    48.0000 </r>
       <r>   -12.8515     0.0000    48.0000 </r>
       <r>   -12.6080     0.0000    48.0000 </r>
       <r>   -12.3645     0.0000    48.0000 </r>
       <r>   -12.1210     0.0000    48.0000 </r>
       <r>   -11.8775     0.0000    48.0000 </r>
       <r>   -11.6341     0.0000    48.0000 </r>
       <r>   -11.3906     0.0000    48.0000 </r>
       <r>   -11.1471     0.0000    48.0000 </r>
       <r>   -10.9036     0.0000    48.0000 </r>
       <r>   -10.6601     0.0000    48.0000 </r>
       <r>   -10.4166     0.0000    48.0000 </r>
       <r>   -10.1732     0.0000    48.0000 </r>
       <r>    -9.9297     0.0000    48.0000 </r>
       <r>    -9.6862     0.0000    48.0000 </r>
       <r>    -9.4427     0.0000    48.0000 </r>
       <r>    -9.1992     0.0000    48.0000 </r>
       <r>    -8.9558     0.0000    48.0000 </r>
       <r>    -8.7123     0.0000    48.0000 </r>
       <r>    -8.4688     0.0000    48.0000 </r>
       <r>    -8.2253     0.0000    48.0000 </r>
       <r>    -7.9818     0.0000    48.0000 </r>
       <r>    -7.7383     0.0000    48.0000 </r>
       <r>    -7.4949     0.0000    48.0000 </r>
       <r>    -7.2514     0.0000    48.0000 </r>
       <r>    -7.0079     0.0000    48.0000 </r>
       <r>    -6.7644     0.0000    48.0000 </r>
       <r>    -6.5209     0.0000    48.0000 </r>
       <r>    -6.2775     0.0000    48.0000 </r>
       <r>    -6.0340     0.0000    48.0000 </r>
       <r>    -5.7905     0.0000    48.0000 </r>
       <r>    -5.5470     0.0000    48.0000 </r>
       <r>    -5.3035     0.0000    48.0000 </r>
       <r>    -5.0601     0.0000    48.0000 </r>
       <r>    -4.8166     0.0000    48.0000 </r>
       <r>    -4.5731     0.0000    48.0000 </r>
       <r>    -4.3296     0.0000    48.0000 </r>
       <r>    -4.0861     0.0000    48.0000 </r>
       <r>    -3.8426     0.0000    48.0000 </r>
       <r>    -3.5992     0.0000    48.0000 </r>
       <r>    -3.3557     0.0000    48.0000 </r>
       <r>    -3.1122     0.0000    48.0000 </r>
       <r>    -2.8687     0.0001    48.0000 </r>
       <r>    -2.6252     0.4380    48.1117 </r>
       <r>    -2.3818     1.2261    48.5281 </r>
       <r>    -2.1383     1.9934    49.2303 </r>
       <r>    -1.8948     1.1697    49.7134 </r>
       <r>    -1.6513     0.9367    50.1158 </r>
       <r>    -1.4078     1.0774    50.4868 </r>
       <r>    -1.1643     0.6764    50.7565 </r>
       <r>    -0.9209     1.4795    51.2072 </r>
       <r>    -0.6774     1.5269    51.7238 </r>
       <r>    -0.4339     3.4191    52.9090 </r>
       <r>    -0.1904     3.1107    54.1809 </r>
       <r>     0.0531     1.5980    54.8075 </r>
       <r>     0.2965     0.8054    55.3441 </r>
       <r>     0.5400     1.0934    55.6999 </r>
       <r>     0.7835     0.4934    55.8906 </r>
       <r>     1.0270     0.2067    55.9942 </r>
       <r>     1.2705     0.0000    56.0000 </r>
       <r>     1.5140     0.0344    56.0084 </r>
       <r>     1.7574     3.2582    56.9617 </r>
       <r>     2.0009     5.4566    58.7980 </r>
       <r>     2.2444    10.8622    62.4764 </r>
       <r>     2.4879    11.5725    66.7310 </r>
       <r>     2.7314     6.1075    69.3901 </r>
       <r>     2.9748     6.3141    71.5476 </r>
       <r>     3.2183     4.7307    73.2029 </r>
       <r>     3.4618     5.2787    75.0046 </r>
       <r>     3.7053     4.7759    76.7241 </r>
       <r>     3.9488     2.0433    77.6199 </r>
       <r>     4.1923     3.2870    78.6983 </r>
       <r>     4.4357     2.7486    79.6947 </r>
       <r>     4.6792     3.0267    80.8033 </r>
       <r>     4.9227     4.4598    82.5196 </r>
       <r>     5.1662     4.4860    84.2708 </r>
       <r>     5.4097     4.5195    85.9014 </r>
       <r>     5.6531     6.3893    88.0353 </r>
       <r>     5.8966     5.3155    90.1718 </r>
       <r>     6.1401     7.0368    92.6164 </r>
       <r>     6.3836     6.2569    94.6714 </r>
       <r>     6.6271     6.8576    97.1493 </r>
       <r>     6.8706     7.5191    99.7185 </r>
       <r>     7.1140     7.3637   102.2776 </r>
       <r>     7.3575     6.9543   104.8616 </r>
       <r>     7.6010     5.3554   106.8499 </r>
       <r>     7.8445     4.5081   108.6027 </r>
       <r>     8.0880     4.5330   110.4966 </r>
       <r>     8.3314     3.3594   111.9149 </r>
       <r>     8.5749     6.8565   114.3735 </r>
       <r>     8.8184     5.7460   116.4143 </r>
       <r>     9.0619     4.0844   118.1118 </r>
       <r>     9.3054     2.4498   119.1679 </r>
       <r>     9.5489     2.1354   119.9077 </r>
       <r>     9.7923     0.2453   119.9679 </r>
       <r>    10.0358     0.0838   120.0000 </r>
       <r>    10.2793     0.0000   120.0000 </r>
       <r>    10.5228     0.0000   120.0000 </r>
       <r>    10.7663     0.0000   120.0000 </r>
       <r>    11.0097     0.0000   120.0000 </r>
       <r>    11.2532     0.0000   120.0000 </r>
       <r>    11.4967     0.0000   120.0000 </r>
       <r>    11.7402     0.0000   120.0000 </r>
       <r>    11.9837     0.0000   120.0000 </r>
       <r>    12.2272     0.0000   120.0000 </r>
       <r>    12.4706     0.0000   120.0000 </r>
       <r>    12.7141     0.0000   120.0000 </r>
       <r>    12.9576     0.0000   120.0000 </r>
       <r>    13.2011     0.0000   120.0000 </r>
      </set>
     </set>
    </array>
   </total>
  </dos>
 </calculation>
 <structure name="finalpos" >
  <crystal>
   <varray name="basis" >
    <v>       5.68451717       0.00000000      -2.94745498 </v>
    <v>      -2.10084513       5.28206259      -2.94745498 </v>
    <v>       0.00000000       0.00000000       6.40322000 </v>
   </varray>
   <i name="volume">    192.26292702 </i>
   <varray name="rec_basis" >
    <v>       0.17591644       0.06996759       0.00000000 </v>
    <v>       0.00000000       0.18931998       0.00000000 </v>
    <v>       0.08097579       0.11935221       0.15617143 </v>
   </varray>
  </crystal>
  <varray name="positions" >
   <v>       0.25000000       0.75000000       0.50000000 </v>
   <v>       0.75000000       0.25000000       0.50000000 </v>
   <v>       0.25000000       0.25000000       0.00000000 </v>
   <v>       0.50000000       0.00000000       0.00000000 </v>
   <v>       0.75000000       0.75000000       0.00000000 </v>
   <v>       0.00000000       0.00000000       0.50000000 </v>
   <v>       0.00000000       0.50000000       0.00000000 </v>
   <v>       0.50000000       0.50000000       0.50000000 </v>
   <v>       0.00000000       0.00000000       0.00000000 </v>
   <v>       0.50000000       0.50000000       0.00000000 </v>
  </varray>
 </structure>
</modeling>
