 vasp.6.2.0 18Jan21 (build Jan 05 2022 15:41:44) complex                        
  
 executed on             LinuxIFC date 2025.05.07  19:51:42
 running on   24 total cores
 distrk:  each k-point on   12 cores,    2 groups
 distr:  one band on NCORE=   2 cores,    6 groups


--------------------------------------------------------------------------------------------------------


 INCAR:
   SYSTEM = routine with relax: pwdword
   ICHARG = 2
   NPAR = 6
   KPAR = 2
   NCORE = 2
   ADDGRID = T
   PREC = Acc
   ENCUT = 600
   METAGGA = R2SCAN
   LASPH = .TRUE.
   LMIXTAU = .FALSE.
   ALGO = A
   EDIFF = 1E-9
   NELM = 100
   NELMIN = 6
   IALGO = 38
   LREAL = F
   NSW = 0
   ISIF = -1
   ISMEAR = 0
   SIGMA = 0.02
   SYMPREC = 1E-4

 POTCAR:    PAW_PBE B 06Sep2000                   
 POTCAR:    PAW_PBE Mo_sv 02Feb2006               
 POTCAR:    PAW_PBE Si 05Jan2001                  
 -----------------------------------------------------------------------------
|                                                                             |
|           W    W    AA    RRRRR   N    N  II  N    N   GGGG   !!!           |
|           W    W   A  A   R    R  NN   N  II  NN   N  G    G  !!!           |
|           W    W  A    A  R    R  N N  N  II  N N  N  G       !!!           |
|           W WW W  AAAAAA  RRRRR   N  N N  II  N  N N  G  GGG   !            |
|           WW  WW  A    A  R   R   N   NN  II  N   NN  G    G                |
|           W    W  A    A  R    R  N    N  II  N    N   GGGG   !!!           |
|                                                                             |
|     For optimal performance we recommend to set                             |
|       NCORE = 2 up to number-of-cores-per-socket                            |
|     NCORE specifies how many cores store one orbital (NPAR=cpu/NCORE).      |
|     This setting can greatly improve the performance of VASP for DFT.       |
|     The default, NCORE=1 might be grossly inefficient on modern             |
|     multi-core architectures or massively parallel machines. Do your        |
|     own testing! More info at https://www.vasp.at/wiki/index.php/NCORE      |
|     Unfortunately you need to use the default for GW and RPA                |
|     calculations (for HF NCORE is supported but not extensively tested      |
|     yet).                                                                   |
|                                                                             |
 -----------------------------------------------------------------------------

 POTCAR:    PAW_PBE B 06Sep2000                   
   VRHFIN =B: s2p1                                                                                  
   LEXCH  = PE                                                                                      
   EATOM  =    71.1703 eV,    5.2309 Ry                                                             
                                                                                                    
   TITEL  = PAW_PBE B 06Sep2000                                                                     
   LULTRA =        F    use ultrasoft PP ?                                                          
   IUNSCR =        1    unscreen: 0-lin 1-nonlin 2-no                                               
   RPACOR =    1.200    partial core radius                                                         
   POMASS =   10.811; ZVAL   =    3.000    mass and valenz                                          
   RCORE  =    1.700    outmost cutoff radius                                                       
   RWIGS  =    1.710; RWIGS  =    0.905    wigner-seitz radius (au A)                               
   ENMAX  =  318.614; ENMIN  =  238.960 eV                                                          
   ICORE  =        2    local potential                                                             
   LCOR   =        T    correct aug charges                                                         
   LPAW   =        T    paw PP                                                                      
   EAUG   =  535.514                                                                                
   DEXC   =    0.000                                                                                
   RMAX   =    1.732    core radius for proj-oper                                                   
   RAUG   =    1.300    factor for augmentation sphere                                              
   RDEP   =    1.757    radius for radial grids                                                     
   RDEPT  =    1.436    core radius for aug-charge                                                  
                                                                                                    
   Atomic configuration                                                                             
    4 entries                                                                                       
     n  l   j            E        occ.                                                              
     1  0  0.50      -180.5896   2.0000                                                             
     2  0  0.50        -9.4431   2.0000                                                             
     2  1  0.50        -3.6068   1.0000                                                             
     3  2  1.50        -4.0817   0.0000                                                             
   Description                                                                                      
     l       E           TYP  RCUT    TYP  RCUT                                                     
     0     -9.4430752     23  1.500                                                                 
     0      0.8675899     23  1.500                                                                 
     1     -3.6067955     23  1.700                                                                 
     1      6.1086146     23  1.700                                                                 
     2     -4.0817478      7  1.700                                                                 
  local pseudopotential read in
  partial core-charges read in
  partial kinetic energy density read in
  atomic valenz-charges read in
  non local Contribution for L=           0  read in
    real space projection operators read in
  non local Contribution for L=           0  read in
    real space projection operators read in
  non local Contribution for L=           1  read in
    real space projection operators read in
  non local Contribution for L=           1  read in
    real space projection operators read in
    PAW grid and wavefunctions read in
 
   number of l-projection  operators is LMAX  =           4
   number of lm-projection operators is LMMAX =           8
 
 POTCAR:    PAW_PBE Mo_sv 02Feb2006               
   VRHFIN =Mo: 4p5s4d                                                                               
   LEXCH  = PE                                                                                      
   EATOM  =  1862.2866 eV,  136.8742 Ry                                                             
                                                                                                    
   TITEL  = PAW_PBE Mo_sv 02Feb2006                                                                 
   LULTRA =        F    use ultrasoft PP ?                                                          
   IUNSCR =        1    unscreen: 0-lin 1-nonlin 2-no                                               
   RPACOR =    2.200    partial core radius                                                         
   POMASS =   95.940; ZVAL   =   14.000    mass and valenz                                          
   RCORE  =    2.500    outmost cutoff radius                                                       
   RWIGS  =    2.750; RWIGS  =    1.455    wigner-seitz radius (au A)                               
   ENMAX  =  242.676; ENMIN  =  182.007 eV                                                          
   ICORE  =        3    local potential                                                             
   LCOR   =        T    correct aug charges                                                         
   LPAW   =        T    paw PP                                                                      
   EAUG   =  446.014                                                                                
   DEXC   =    0.000                                                                                
   RMAX   =    2.563    core radius for proj-oper                                                   
   RAUG   =    1.300    factor for augmentation sphere                                              
   RDEP   =    2.641    radius for radial grids                                                     
   RDEPT  =    2.031    core radius for aug-charge                                                  
                                                                                                    
   Atomic configuration                                                                             
   11 entries                                                                                       
     n  l   j            E        occ.                                                              
     1  0  0.50    -19819.0341   2.0000                                                             
     2  0  0.50     -2799.0127   2.0000                                                             
     2  1  1.50     -2502.0276   6.0000                                                             
     3  0  0.50      -476.4449   2.0000                                                             
     3  1  1.50      -379.1496   6.0000                                                             
     3  2  2.50      -220.9367  10.0000                                                             
     4  0  0.50       -64.3378   2.0000                                                             
     5  0  0.50        -4.0862   1.0000                                                             
     4  1  1.50       -38.4773   6.0000                                                             
     4  2  2.50        -3.7535   5.0000                                                             
     4  3  2.50        -1.3606   0.0000                                                             
   Description                                                                                      
     l       E           TYP  RCUT    TYP  RCUT                                                     
     0    -64.3377829     23  2.100                                                                 
     0     -4.0861640     23  2.400                                                                 
     1    -38.4772993     23  2.100                                                                 
     1     13.6058260     23  2.100                                                                 
     2     -3.7534941     23  2.400                                                                 
     2     -5.1140767     23  2.400                                                                 
     3     -4.0817478     23  2.500                                                                 
  local pseudopotential read in
  partial core-charges read in
  partial kinetic energy density read in
  atomic valenz-charges read in
  non local Contribution for L=           0  read in
    real space projection operators read in
  non local Contribution for L=           0  read in
    real space projection operators read in
  non local Contribution for L=           1  read in
    real space projection operators read in
  non local Contribution for L=           1  read in
    real space projection operators read in
  non local Contribution for L=           2  read in
    real space projection operators read in
  non local Contribution for L=           2  read in
    real space projection operators read in
    PAW grid and wavefunctions read in
 
   number of l-projection  operators is LMAX  =           6
   number of lm-projection operators is LMMAX =          18
 
 POTCAR:    PAW_PBE Si 05Jan2001                  
   VRHFIN =Si: s2p2                                                                                 
   LEXCH  = PE                                                                                      
   EATOM  =   103.0669 eV,    7.5752 Ry                                                             
                                                                                                    
   TITEL  = PAW_PBE Si 05Jan2001                                                                    
   LULTRA =        F    use ultrasoft PP ?                                                          
   IUNSCR =        1    unscreen: 0-lin 1-nonlin 2-no                                               
   RPACOR =    1.500    partial core radius                                                         
   POMASS =   28.085; ZVAL   =    4.000    mass and valenz                                          
   RCORE  =    1.900    outmost cutoff radius                                                       
   RWIGS  =    2.480; RWIGS  =    1.312    wigner-seitz radius (au A)                               
   ENMAX  =  245.345; ENMIN  =  184.009 eV                                                          
   ICORE  =        2    local potential                                                             
   LCOR   =        T    correct aug charges                                                         
   LPAW   =        T    paw PP                                                                      
   EAUG   =  322.069                                                                                
   DEXC   =    0.000                                                                                
   RMAX   =    1.950    core radius for proj-oper                                                   
   RAUG   =    1.300    factor for augmentation sphere                                              
   RDEP   =    1.993    radius for radial grids                                                     
   RDEPT  =    1.837    core radius for aug-charge                                                  
                                                                                                    
   Atomic configuration                                                                             
    6 entries                                                                                       
     n  l   j            E        occ.                                                              
     1  0  0.50     -1785.8828   2.0000                                                             
     2  0  0.50      -139.4969   2.0000                                                             
     2  1  1.50       -95.5546   6.0000                                                             
     3  0  0.50       -10.8127   2.0000                                                             
     3  1  0.50        -4.0811   2.0000                                                             
     3  2  1.50        -4.0817   0.0000                                                             
   Description                                                                                      
     l       E           TYP  RCUT    TYP  RCUT                                                     
     0    -10.8127223     23  1.900                                                                 
     0     -7.6451159     23  1.900                                                                 
     1     -4.0811372     23  1.900                                                                 
     1      2.4879257     23  1.900                                                                 
     2     -4.0817478      7  1.900                                                                 
  local pseudopotential read in
  partial core-charges read in
  partial kinetic energy density read in
  atomic valenz-charges read in
  non local Contribution for L=           0  read in
    real space projection operators read in
  non local Contribution for L=           0  read in
    real space projection operators read in
  non local Contribution for L=           1  read in
    real space projection operators read in
  non local Contribution for L=           1  read in
    real space projection operators read in
    PAW grid and wavefunctions read in
 
   number of l-projection  operators is LMAX  =           4
   number of lm-projection operators is LMMAX =           8
 
  PAW_PBE B 06Sep2000                   :
 energy of atom  1       EATOM=  -71.1703
 kinetic energy error for atom=    0.0007 (will be added to EATOM!!)
  PAW_PBE Mo_sv 02Feb2006               :
 energy of atom  2       EATOM=-1862.2866
 kinetic energy error for atom=    0.0041 (will be added to EATOM!!)
  PAW_PBE Si 05Jan2001                  :
 energy of atom  3       EATOM= -103.0669
 kinetic energy error for atom=    0.0003 (will be added to EATOM!!)
 
 
 POSCAR: EA198
  positions in direct lattice
  No initial velocities read in

 METAGGA = R2SCA    LMAXTAU =  6    LMIXTAU =  F

 exchange correlation table for  LEXCH =        8
   RHO(1)=    0.500       N(1)  =     2000
   RHO(2)=  100.500       N(2)  =     4000
 


--------------------------------------------------------------------------------------------------------


 ion  position               nearest neighbor table
   1  0.500  0.000  0.500-   7 2.20   8 2.20   5 2.23   4 2.23
   2  0.000  0.500  0.500-   4 2.20   5 2.20   7 2.23   8 2.23
   3  0.500  0.500  0.500-  12 2.21  11 2.21   7 2.22   8 2.22  10 3.13  10 3.13   6 3.13   6 3.13

   4  0.248  0.748  0.997-   2 2.20  10 2.22   6 2.22   1 2.23   8 3.13   7 3.13   7 3.13   8 3.13
                            11 3.14  12 3.14  12 3.14  11 3.14
   5  0.752  0.252  0.003-   2 2.20  10 2.22   6 2.22   1 2.23   7 3.13   8 3.13   8 3.13   7 3.13
                            12 3.14  11 3.14  11 3.14  12 3.14
   6  0.500  0.000  0.000-  11 2.21  12 2.21   4 2.22   5 2.22   9 3.13   9 3.13   3 3.13   3 3.13

   7  0.748  0.752  0.500-   1 2.20   3 2.22   9 2.22   2 2.23   5 3.13   4 3.13   4 3.13   5 3.13
                            11 3.14  11 3.14  12 3.14  12 3.14
   8  0.252  0.248  0.500-   1 2.20   3 2.22   9 2.22   2 2.23   5 3.13   4 3.13   5 3.13   4 3.13
                            12 3.14  12 3.14  11 3.14  11 3.14
   9  0.000  0.000  0.500-  11 2.21  12 2.21   7 2.22   8 2.22   6 3.13   6 3.13  10 3.13  10 3.13

  10  0.000  0.500  0.000-  11 2.21  12 2.21   4 2.22   5 2.22   3 3.13   3 3.13   9 3.13   9 3.13

  11  0.250  0.250  0.000-   3 2.21   9 2.21  10 2.21   6 2.21   7 3.14   7 3.14   4 3.14   5 3.14
                             8 3.14   8 3.14   5 3.14   4 3.14
  12  0.750  0.750  0.000-   9 2.21   3 2.21  10 2.21   6 2.21   8 3.14   8 3.14   5 3.14   4 3.14
                             7 3.14   7 3.14   4 3.14   5 3.14
 
  LATTYP: Found a body centered tetragonal cell.
 ALAT       =     6.2600814319
 C/A-ratio  =     1.4192561197
  
  Lattice vectors:
  
 A1 = (   5.4246098163,   0.0000000000,  -3.1468135873)
 A2 = (  -1.7997020558,   5.1173688718,  -3.1468135873)
 A3 = (   0.0000000000,   0.0000000000,   6.2712700000)


Analysis of symmetry for initial positions (statically):
=====================================================================
 Subroutine PRICEL returns:
 Original cell was already a primitive cell.
 

 Routine SETGRP: Setting up the symmetry group for a 
 body centered tetragonal supercell.


 Subroutine GETGRP returns: Found 16 space group operations
 (whereof  8 operations were pure point group operations)
 out of a pool of 16 trial point group operations.


The static configuration has the point symmetry C_4h.
 The point group associated with its full space group is D_4h.


Analysis of symmetry for dynamics (positions and initial velocities):
=====================================================================
 Subroutine PRICEL returns:
 Original cell was already a primitive cell.
 

 Routine SETGRP: Setting up the symmetry group for a 
 body centered tetragonal supercell.


 Subroutine GETGRP returns: Found 16 space group operations
 (whereof  8 operations were pure point group operations)
 out of a pool of 16 trial point group operations.


The dynamic configuration has the point symmetry C_4h.
 The point group associated with its full space group is D_4h.


 Subroutine INISYM returns: Found 16 space group operations
 (whereof  8 operations are pure point group operations),
 and found     1 'primitive' translations


----------------------------------------------------------------------------------------

                                     Primitive cell                                     

  volume of cell :     174.0888

  direct lattice vectors                    reciprocal lattice vectors
     5.424609816  0.000000000 -3.146813587     0.184345056  0.064831398  0.000000000
    -1.799702056  5.117368872 -3.146813587     0.000000000  0.195412921  0.000000000
     0.000000000  0.000000000  6.271270000     0.092501124  0.130586047  0.159457335

  length of vectors
     6.271270000  6.271270000  6.271270000     0.195412921  0.195412921  0.225911078

  position of ions in fractional coordinates (direct lattice)
     0.500000000  0.000000000  0.500000000
     0.000000000  0.500000000  0.500000000
     0.500000000  0.500000000  0.500000000
     0.248420000  0.748420000  0.996850000
     0.751580000  0.251580000  0.003150000
     0.500000000  0.000000000  1.000000000
     0.748420000  0.751580000  0.500000000
     0.251580000  0.248420000  0.500000000
     0.000000000  0.000000000  0.500000000
     0.000000000  0.500000000  1.000000000
     0.250000000  0.250000000  1.000000000
     0.750000000  0.750000000  1.000000000

  ion indices of the primitive-cell ions
   primitive index   ion index
                 1           1
                 2           2
                 3           3
                 4           4
                 5           5
                 6           6
                 7           7
                 8           8
                 9           9
                10          10
                11          11
                12          12

----------------------------------------------------------------------------------------

 
 
 KPOINTS: EA                                      

Automatic generation of k-mesh.
 Grid dimensions read from file:
 generate k-points for:    7    7    8

 Generating k-lattice:

  Cartesian coordinates                     Fractional coordinates (reciprocal lattice)
     0.026335008  0.009261628  0.000000000     0.142857143  0.000000000  0.000000000
     0.000000000  0.027916132  0.000000000     0.000000000  0.142857143  0.000000000
     0.011562641  0.016323256  0.019932167    -0.000000000 -0.000000000  0.125000000

  Length of vectors
     0.027916132  0.027916132  0.028238885

  Shift w.r.t. Gamma in fractional coordinates (k-lattice)
     0.000000000  0.000000000  0.000000000

 -----------------------------------------------------------------------------
|                                                                             |
|           W    W    AA    RRRRR   N    N  II  N    N   GGGG   !!!           |
|           W    W   A  A   R    R  NN   N  II  NN   N  G    G  !!!           |
|           W    W  A    A  R    R  N N  N  II  N N  N  G       !!!           |
|           W WW W  AAAAAA  RRRRR   N  N N  II  N  N N  G  GGG   !            |
|           WW  WW  A    A  R   R   N   NN  II  N   NN  G    G                |
|           W    W  A    A  R    R  N    N  II  N    N   GGGG   !!!           |
|                                                                             |
|     Your reciprocal lattice and k-lattice belong to different lattice       |
|     classes:                                                                |
|                                                                             |
|        The reciprocal lattice is body-centered tetragonal,                  |
|        whereas your k-lattice is base-centered monoclinic.                  |
|                                                                             |
|     Results are often still useful ...                                      |
|                                                                             |
 -----------------------------------------------------------------------------

 WARNING: IBZKPT: internal override: KBLOWUP is changed to .FALSE.
      ... skipping the blow-up phase ...

 
 Subroutine IBZKPT returns following result:
 ===========================================
 
 Found    116 irreducible k-points:
 
 Following reciprocal coordinates:
            Coordinates               Weight
  0.000000  0.000000  0.000000      1.000000
  0.142857  0.000000  0.000000      4.000000
  0.285714  0.000000  0.000000      4.000000
  0.428571  0.000000  0.000000      4.000000
  0.142857  0.142857  0.000000      2.000000
  0.285714  0.142857  0.000000      4.000000
  0.428571  0.142857  0.000000      4.000000
 -0.428571  0.142857  0.000000      4.000000
 -0.285714  0.142857  0.000000      4.000000
 -0.142857  0.142857  0.000000      2.000000
  0.285714  0.285714  0.000000      2.000000
  0.428571  0.285714  0.000000      4.000000
 -0.428571  0.285714  0.000000      4.000000
 -0.285714  0.285714  0.000000      2.000000
  0.428571  0.428571  0.000000      2.000000
 -0.428571  0.428571  0.000000      2.000000
  0.000000  0.000000  0.125000      2.000000
  0.142857 -0.000000  0.125000      4.000000
  0.285714  0.000000  0.125000      4.000000
  0.428571  0.000000  0.125000      4.000000
 -0.428571  0.000000  0.125000      4.000000
 -0.285714  0.000000  0.125000      4.000000
 -0.142857  0.000000  0.125000      4.000000
  0.142857  0.142857  0.125000      2.000000
  0.285714  0.142857  0.125000      4.000000
  0.428571  0.142857  0.125000      4.000000
 -0.428571  0.142857  0.125000      4.000000
 -0.285714  0.142857  0.125000      4.000000
 -0.142857  0.142857  0.125000      4.000000
  0.285714  0.285714  0.125000      2.000000
  0.428571  0.285714  0.125000      4.000000
 -0.428571  0.285714  0.125000      4.000000
 -0.285714  0.285714  0.125000      4.000000
 -0.142857  0.285714  0.125000      4.000000
  0.428571  0.428571  0.125000      2.000000
 -0.428571  0.428571  0.125000      4.000000
 -0.285714  0.428571  0.125000      4.000000
 -0.142857  0.428571  0.125000      4.000000
 -0.428571 -0.428571  0.125000      2.000000
 -0.285714 -0.428571  0.125000      4.000000
 -0.142857 -0.428571  0.125000      4.000000
 -0.285714 -0.285714  0.125000      2.000000
 -0.142857 -0.285714  0.125000      4.000000
 -0.142857 -0.142857  0.125000      2.000000
  0.000000  0.000000  0.250000      2.000000
  0.142857  0.000000  0.250000      4.000000
  0.285714  0.000000  0.250000      4.000000
  0.428571  0.000000  0.250000      4.000000
 -0.428571  0.000000  0.250000      4.000000
 -0.285714  0.000000  0.250000      4.000000
 -0.142857  0.000000  0.250000      4.000000
  0.142857  0.142857  0.250000      2.000000
  0.285714  0.142857  0.250000      4.000000
  0.428571  0.142857  0.250000      4.000000
 -0.428571  0.142857  0.250000      4.000000
 -0.285714  0.142857  0.250000      4.000000
 -0.142857  0.142857  0.250000      4.000000
  0.285714  0.285714  0.250000      2.000000
  0.428571  0.285714  0.250000      4.000000
 -0.428571  0.285714  0.250000      4.000000
 -0.285714  0.285714  0.250000      4.000000
 -0.142857  0.285714  0.250000      4.000000
  0.428571  0.428571  0.250000      2.000000
 -0.428571  0.428571  0.250000      4.000000
 -0.285714  0.428571  0.250000      4.000000
 -0.142857  0.428571  0.250000      4.000000
 -0.428571 -0.428571  0.250000      2.000000
 -0.285714 -0.428571  0.250000      4.000000
 -0.142857 -0.428571  0.250000      4.000000
 -0.285714 -0.285714  0.250000      2.000000
 -0.142857 -0.285714  0.250000      4.000000
 -0.142857 -0.142857  0.250000      2.000000
  0.000000  0.000000  0.375000      2.000000
  0.142857  0.000000  0.375000      4.000000
  0.285714  0.000000  0.375000      4.000000
  0.428571  0.000000  0.375000      4.000000
 -0.428571  0.000000  0.375000      4.000000
 -0.285714  0.000000  0.375000      4.000000
 -0.142857  0.000000  0.375000      4.000000
  0.142857  0.142857  0.375000      2.000000
  0.285714  0.142857  0.375000      4.000000
  0.428571  0.142857  0.375000      4.000000
 -0.428571  0.142857  0.375000      4.000000
 -0.285714  0.142857  0.375000      4.000000
 -0.142857  0.142857  0.375000      4.000000
  0.285714  0.285714  0.375000      2.000000
  0.428571  0.285714  0.375000      4.000000
 -0.428571  0.285714  0.375000      4.000000
 -0.285714  0.285714  0.375000      4.000000
 -0.142857  0.285714  0.375000      4.000000
  0.428571  0.428571  0.375000      2.000000
 -0.428571  0.428571  0.375000      4.000000
 -0.285714  0.428571  0.375000      4.000000
 -0.142857  0.428571  0.375000      4.000000
 -0.428571 -0.428571  0.375000      2.000000
 -0.285714 -0.428571  0.375000      4.000000
 -0.142857 -0.428571  0.375000      4.000000
 -0.285714 -0.285714  0.375000      2.000000
 -0.142857 -0.285714  0.375000      4.000000
 -0.142857 -0.142857  0.375000      2.000000
  0.000000  0.000000  0.500000      1.000000
  0.142857  0.000000  0.500000      4.000000
  0.285714  0.000000  0.500000      4.000000
  0.428571  0.000000  0.500000      4.000000
  0.142857  0.142857  0.500000      2.000000
  0.285714  0.142857  0.500000      4.000000
  0.428571  0.142857  0.500000      4.000000
 -0.428571  0.142857  0.500000      4.000000
 -0.285714  0.142857  0.500000      4.000000
 -0.142857  0.142857  0.500000      2.000000
  0.285714  0.285714  0.500000      2.000000
  0.428571  0.285714  0.500000      4.000000
 -0.428571  0.285714  0.500000      4.000000
 -0.285714  0.285714  0.500000      2.000000
  0.428571  0.428571  0.500000      2.000000
 -0.428571  0.428571  0.500000      2.000000
 
 Following cartesian coordinates:
            Coordinates               Weight
  0.000000  0.000000  0.000000      1.000000
  0.026335  0.009262  0.000000      4.000000
  0.052670  0.018523  0.000000      4.000000
  0.079005  0.027785  0.000000      4.000000
  0.026335  0.037178  0.000000      2.000000
  0.052670  0.046439  0.000000      4.000000
  0.079005  0.055701  0.000000      4.000000
 -0.079005  0.000131  0.000000      4.000000
 -0.052670  0.009393  0.000000      4.000000
 -0.026335  0.018655  0.000000      2.000000
  0.052670  0.074356  0.000000      2.000000
  0.079005  0.083617  0.000000      4.000000
 -0.079005  0.028047  0.000000      4.000000
 -0.052670  0.037309  0.000000      2.000000
  0.079005  0.111533  0.000000      2.000000
 -0.079005  0.055964  0.000000      2.000000
  0.011563  0.016323  0.019932      2.000000
  0.037898  0.025585  0.019932      4.000000
  0.064233  0.034847  0.019932      4.000000
  0.090568  0.044108  0.019932      4.000000
 -0.067442 -0.011462  0.019932      4.000000
 -0.041107 -0.002200  0.019932      4.000000
 -0.014772  0.007062  0.019932      4.000000
  0.037898  0.053501  0.019932      2.000000
  0.064233  0.062763  0.019932      4.000000
  0.090568  0.072024  0.019932      4.000000
 -0.067442  0.016455  0.019932      4.000000
 -0.041107  0.025716  0.019932      4.000000
 -0.014772  0.034978  0.019932      4.000000
  0.064233  0.090679  0.019932      2.000000
  0.090568  0.099940  0.019932      4.000000
 -0.067442  0.044371  0.019932      4.000000
 -0.041107  0.053632  0.019932      4.000000
 -0.014772  0.062894  0.019932      4.000000
  0.090568  0.127857  0.019932      2.000000
 -0.067442  0.072287  0.019932      4.000000
 -0.041107  0.081548  0.019932      4.000000
 -0.014772  0.090810  0.019932      4.000000
 -0.067442 -0.095210  0.019932      2.000000
 -0.041107 -0.085948  0.019932      4.000000
 -0.014772 -0.076687  0.019932      4.000000
 -0.041107 -0.058032  0.019932      2.000000
 -0.014772 -0.048771  0.019932      4.000000
 -0.014772 -0.020855  0.019932      2.000000
  0.023125  0.032647  0.039864      2.000000
  0.049460  0.041908  0.039864      4.000000
  0.075795  0.051170  0.039864      4.000000
  0.102130  0.060431  0.039864      4.000000
 -0.055880  0.004862  0.039864      4.000000
 -0.029545  0.014123  0.039864      4.000000
 -0.003210  0.023385  0.039864      4.000000
  0.049460  0.069824  0.039864      2.000000
  0.075795  0.079086  0.039864      4.000000
  0.102130  0.088348  0.039864      4.000000
 -0.055880  0.032778  0.039864      4.000000
 -0.029545  0.042039  0.039864      4.000000
 -0.003210  0.051301  0.039864      4.000000
  0.075795  0.107002  0.039864      2.000000
  0.102130  0.116264  0.039864      4.000000
 -0.055880  0.060694  0.039864      4.000000
 -0.029545  0.069956  0.039864      4.000000
 -0.003210  0.079217  0.039864      4.000000
  0.102130  0.144180  0.039864      2.000000
 -0.055880  0.088610  0.039864      4.000000
 -0.029545  0.097872  0.039864      4.000000
 -0.003210  0.107133  0.039864      4.000000
 -0.055880 -0.078887  0.039864      2.000000
 -0.029545 -0.069625  0.039864      4.000000
 -0.003210 -0.060364  0.039864      4.000000
 -0.029545 -0.041709  0.039864      2.000000
 -0.003210 -0.032447  0.039864      4.000000
 -0.003210 -0.004531  0.039864      2.000000
  0.034688  0.048970  0.059797      2.000000
  0.061023  0.058231  0.059797      4.000000
  0.087358  0.067493  0.059797      4.000000
  0.113693  0.076755  0.059797      4.000000
 -0.044317  0.021185  0.059797      4.000000
 -0.017982  0.030447  0.059797      4.000000
  0.008353  0.039708  0.059797      4.000000
  0.061023  0.086148  0.059797      2.000000
  0.087358  0.095409  0.059797      4.000000
  0.113693  0.104671  0.059797      4.000000
 -0.044317  0.049101  0.059797      4.000000
 -0.017982  0.058363  0.059797      4.000000
  0.008353  0.067624  0.059797      4.000000
  0.087358  0.123325  0.059797      2.000000
  0.113693  0.132587  0.059797      4.000000
 -0.044317  0.077017  0.059797      4.000000
 -0.017982  0.086279  0.059797      4.000000
  0.008353  0.095540  0.059797      4.000000
  0.113693  0.160503  0.059797      2.000000
 -0.044317  0.104933  0.059797      4.000000
 -0.017982  0.114195  0.059797      4.000000
  0.008353  0.123457  0.059797      4.000000
 -0.044317 -0.062564  0.059797      2.000000
 -0.017982 -0.053302  0.059797      4.000000
  0.008353 -0.044040  0.059797      4.000000
 -0.017982 -0.025386  0.059797      2.000000
  0.008353 -0.016124  0.059797      4.000000
  0.008353  0.011792  0.059797      2.000000
  0.046251  0.065293  0.079729      1.000000
  0.072586  0.074555  0.079729      4.000000
  0.098921  0.083816  0.079729      4.000000
  0.125256  0.093078  0.079729      4.000000
  0.072586  0.102471  0.079729      2.000000
  0.098921  0.111732  0.079729      4.000000
  0.125256  0.120994  0.079729      4.000000
 -0.032754  0.065424  0.079729      4.000000
 -0.006419  0.074686  0.079729      4.000000
  0.019916  0.083948  0.079729      2.000000
  0.098921  0.139649  0.079729      2.000000
  0.125256  0.148910  0.079729      4.000000
 -0.032754  0.093340  0.079729      4.000000
 -0.006419  0.102602  0.079729      2.000000
  0.125256  0.176826  0.079729      2.000000
 -0.032754  0.121257  0.079729      2.000000
 


--------------------------------------------------------------------------------------------------------




 Dimension of arrays:
   k-points           NKPTS =    116   k-points in BZ     NKDIM =    116   number of bands    NBANDS=     78
   number of dos      NEDOS =    301   number of ions     NIONS =     12
   non local maximal  LDIM  =      6   non local SUM 2l+1 LMDIM =     18
   total plane-waves  NPLWV = 125000
   max r-space proj   IRMAX =      1   max aug-charges    IRDMAX= 251373
   dimension x,y,z NGX =    50 NGY =   50 NGZ =   50
   dimension x,y,z NGXF=   100 NGYF=  100 NGZF=  100
   support grid    NGXF=   200 NGYF=  200 NGZF=  200
   ions per type =               2   8   2
   NGX,Y,Z   is equivalent  to a cutoff of  13.25, 13.25, 13.25 a.u.
   NGXF,Y,Z  is equivalent  to a cutoff of  26.51, 26.51, 26.51 a.u.

 SYSTEM =  routine with relax: pwdword             
 POSCAR =  EA198                                   

 Startparameter for this run:
   NWRITE =      2    write-flag & timer
   PREC   = acc       normal or accurate (medium, high low for compatibility)
   ISTART =      0    job   : 0-new  1-cont  2-samecut
   ICHARG =      2    charge: 1-file 2-atom 10-const
   ISPIN  =      1    spin polarized calculation?
   LNONCOLLINEAR =      F non collinear calculations
   LSORBIT =      F    spin-orbit coupling
   INIWAV =      1    electr: 0-lowe 1-rand  2-diag
   LASPH  =      T    aspherical Exc in radial PAW
   METAGGA=      F    non-selfconsistent MetaGGA calc.

 Electronic Relaxation 1
   ENCUT  =  600.0 eV  44.10 Ry    6.64 a.u.  12.53 12.53 12.53*2*pi/ulx,y,z
   ENINI  =  600.0     initial cutoff
   ENAUG  =  535.5 eV  augmentation charge cutoff
   NELM   =    100;   NELMIN=  6; NELMDL= -5     # of ELM steps 
   EDIFF  = 0.1E-08   stopping-criterion for ELM
   LREAL  =      F    real-space projection
   NLSPLINE    = F    spline interpolate recip. space projectors
   LCOMPAT=      F    compatible to vasp.4.4
   GGA_COMPAT  = T    GGA compatible to vasp.4.4-vasp.4.6
   LMAXPAW     = -100 max onsite density
   LMAXMIX     =    2 max onsite mixed and CHGCAR
   VOSKOWN=      0    Vosko Wilk Nusair interpolation
   ROPT   =    0.00000   0.00000   0.00000
 Ionic relaxation
   EDIFFG = 0.1E-07   stopping-criterion for IOM
   NSW    =      0    number of steps for IOM
   NBLOCK =      1;   KBLOCK =      1    inner block; outer block 
   IBRION =     -1    ionic relax: 0-MD 1-quasi-New 2-CG
   NFREE  =      0    steps in history (QN), initial steepest desc. (CG)
   ISIF   =     -1    stress and relaxation
   IWAVPR =     10    prediction:  0-non 1-charg 2-wave 3-comb
   ISYM   =      2    0-nonsym 1-usesym 2-fastsym
   LCORR  =      T    Harris-Foulkes like correction to forces

   POTIM  = 0.5000    time-step for ionic-motion
   TEIN   =    0.0    initial temperature
   TEBEG  =    0.0;   TEEND  =   0.0 temperature during run
   SMASS  =  -3.00    Nose mass-parameter (am)
   estimated Nose-frequenzy (Omega)   =  0.10E-29 period in steps = 0.13E+47 mass=  -0.899E-27a.u.
   SCALEE = 1.0000    scale energy and forces
   NPACO  =    256;   APACO  = 16.0  distance and # of slots for P.C.
   PSTRESS=    0.0 pullay stress

  Mass of Ions in am
   POMASS =  10.81 95.94 28.09
  Ionic Valenz
   ZVAL   =   3.00 14.00  4.00
  Atomic Wigner-Seitz radii
   RWIGS  =  -1.00 -1.00 -1.00
  virtual crystal weights 
   VCA    =   1.00  1.00  1.00
   NELECT =     126.0000    total number of electrons
   NUPDOWN=      -1.0000    fix difference up-down

 DOS related values:
   EMIN   =  10.00;   EMAX   =-10.00  energy-range for DOS
   EFERMI =   0.00
   ISMEAR =     0;   SIGMA  =   0.02  broadening in eV -4-tet -1-fermi 0-gaus

 Electronic relaxation 2 (details)
   IALGO  =     58    algorithm
   LDIAG  =      T    sub-space diagonalisation (order eigenvalues)
   LSUBROT=      F    optimize rotation matrix (better conditioning)
   TURBO    =      0    0=normal 1=particle mesh
   IRESTART =      0    0=no restart 2=restart with 2 vectors
   NREBOOT  =      0    no. of reboots
   NMIN     =      0    reboot dimension
   EREF     =   0.00    reference energy to select bands
   IMIX   =      4    mixing-type and parameters
     AMIX     =   0.40;   BMIX     =  1.00
     AMIX_MAG =   1.60;   BMIX_MAG =  1.00
     AMIN     =   0.10
     WC   =   100.;   INIMIX=   1;  MIXPRE=   1;  MAXMIX= -45

 Intra band minimization:
   WEIMIN = 0.0000     energy-eigenvalue tresh-hold
   EBREAK =  0.32E-11  absolut break condition
   DEPER  =   0.30     relativ break condition  

   TIME   =   0.40     timestep for ELM

  volume/ion in A,a.u.               =      14.51        97.90
  Fermi-wavevector in a.u.,A,eV,Ry     =   1.469856  2.777625 29.395067  2.160476
  Thomas-Fermi vector in A             =   2.585183
 
 Write flags
   LWAVE        =      T    write WAVECAR
   LDOWNSAMPLE  =      F    k-point downsampling of WAVECAR
   LCHARG       =      T    write CHGCAR
   LVTOT        =      F    write LOCPOT, total local potential
   LVHAR        =      F    write LOCPOT, Hartree potential only
   LELF         =      F    write electronic localiz. function (ELF)
   LORBIT       =      0    0 simple, 1 ext, 2 COOP (PROOUT), +10 PAW based schemes


 Dipole corrections
   LMONO  =      F    monopole corrections only (constant potential shift)
   LDIPOL =      F    correct potential (dipole corrections)
   IDIPOL =      0    1-x, 2-y, 3-z, 4-all directions 
   EPSILON=  1.0000000 bulk dielectric constant

 Exchange correlation treatment:
   GGA     =    --    GGA type
   LEXCH   =     8    internal setting for exchange type
   VOSKOWN=      0    Vosko Wilk Nusair interpolation
   LHFCALC =     F    Hartree Fock is set to
   LHFONE  =     F    Hartree Fock one center treatment
   AEXX    =    0.0000 exact exchange contribution

 Linear response parameters
   LEPSILON=     F    determine dielectric tensor
   LRPA    =     F    only Hartree local field effects (RPA)
   LNABLA  =     F    use nabla operator in PAW spheres
   LVEL    =     F    velocity operator in full k-point grid
   LINTERFAST=   F  fast interpolation
   KINTER  =     0    interpolate to denser k-point grid
   CSHIFT  =0.1000    complex shift for real part using Kramers Kronig
   OMEGAMAX=  -1.0    maximum frequency
   DEG_THRESHOLD= 0.2000000E-02 threshold for treating states as degnerate
   RTIME   =   -0.100 relaxation time in fs
  (WPLASMAI=    0.000 imaginary part of plasma frequency in eV, 0.658/RTIME)
   DFIELD  = 0.0000000 0.0000000 0.0000000 field for delta impulse in time
 
 Orbital magnetization related:
   ORBITALMAG=     F  switch on orbital magnetization
   LCHIMAG   =     F  perturbation theory with respect to B field
   DQ        =  0.001000  dq finite difference perturbation B field
   LLRAUG    =     F  two centre corrections for induced B field



--------------------------------------------------------------------------------------------------------


 Static calculation
 charge density and potential will be updated during run
 non-spin polarized calculation
 Conjugate gradient for all bands (Freysoldt, et al. PRB 79, 241103 (2009))
 preconditioned conjugated gradient                                        
 perform sub-space diagonalisation
    before iterative eigenvector-optimisation
 modified Broyden-mixing scheme, WC =      100.0
 initial mixing is a Kerker type mixing with AMIX =  0.4000 and BMIX =      1.0000
 Hartree-type preconditioning will be used
 using additional bands           15
 reciprocal scheme for non local part
 use partial core corrections
 no Harris-corrections to forces 
 use gradient corrections 
 use of overlap-Matrix (Vanderbilt PP)
 Gauss-broadening in eV      SIGMA  =   0.02


--------------------------------------------------------------------------------------------------------


  energy-cutoff  :      600.00
  volume of cell :      174.09
      direct lattice vectors                 reciprocal lattice vectors
     5.424609816  0.000000000 -3.146813587     0.184345056  0.064831398  0.000000000
    -1.799702056  5.117368872 -3.146813587     0.000000000  0.195412921  0.000000000
     0.000000000  0.000000000  6.271270000     0.092501124  0.130586047  0.159457335

  length of vectors
     6.271270000  6.271270000  6.271270000     0.195412921  0.195412921  0.225911078


 
 k-points in units of 2pi/SCALE and weight: EA                                      
   0.00000000  0.00000000  0.00000000       0.003
   0.02633501  0.00926163  0.00000000       0.010
   0.05267002  0.01852326  0.00000000       0.010
   0.07900502  0.02778488  0.00000000       0.010
   0.02633501  0.03717776  0.00000000       0.005
   0.05267002  0.04643939  0.00000000       0.010
   0.07900502  0.05570102  0.00000000       0.010
  -0.07900502  0.00013125  0.00000000       0.010
  -0.05267002  0.00939288  0.00000000       0.010
  -0.02633501  0.01865450  0.00000000       0.005
   0.05267002  0.07435552  0.00000000       0.005
   0.07900502  0.08361715  0.00000000       0.010
  -0.07900502  0.02804738  0.00000000       0.010
  -0.05267002  0.03730901  0.00000000       0.005
   0.07900502  0.11153328  0.00000000       0.005
  -0.07900502  0.05596351  0.00000000       0.005
   0.01156264  0.01632326  0.01993217       0.005
   0.03789765  0.02558488  0.01993217       0.010
   0.06423266  0.03484651  0.01993217       0.010
   0.09056766  0.04410814  0.01993217       0.010
  -0.06744238 -0.01146163  0.01993217       0.010
  -0.04110738 -0.00220000  0.01993217       0.010
  -0.01477237  0.00706163  0.01993217       0.010
   0.03789765  0.05350102  0.01993217       0.005
   0.06423266  0.06276264  0.01993217       0.010
   0.09056766  0.07202427  0.01993217       0.010
  -0.06744238  0.01645450  0.01993217       0.010
  -0.04110738  0.02571613  0.01993217       0.010
  -0.01477237  0.03497776  0.01993217       0.010
   0.06423266  0.09067878  0.01993217       0.005
   0.09056766  0.09994040  0.01993217       0.010
  -0.06744238  0.04437063  0.01993217       0.010
  -0.04110738  0.05363226  0.01993217       0.010
  -0.01477237  0.06289389  0.01993217       0.010
   0.09056766  0.12785654  0.01993217       0.005
  -0.06744238  0.07228677  0.01993217       0.010
  -0.04110738  0.08154839  0.01993217       0.010
  -0.01477237  0.09081002  0.01993217       0.010
  -0.06744238 -0.09521002  0.01993217       0.005
  -0.04110738 -0.08594840  0.01993217       0.010
  -0.01477237 -0.07668677  0.01993217       0.010
  -0.04110738 -0.05803226  0.01993217       0.005
  -0.01477237 -0.04877064  0.01993217       0.010
  -0.01477237 -0.02085450  0.01993217       0.005
   0.02312528  0.03264651  0.03986433       0.005
   0.04946029  0.04190814  0.03986433       0.010
   0.07579530  0.05116977  0.03986433       0.010
   0.10213031  0.06043140  0.03986433       0.010
  -0.05587974  0.00486163  0.03986433       0.010
  -0.02954473  0.01412326  0.03986433       0.010
  -0.00320973  0.02338488  0.03986433       0.010
   0.04946029  0.06982427  0.03986433       0.005
   0.07579530  0.07908590  0.03986433       0.010
   0.10213031  0.08834753  0.03986433       0.010
  -0.05587974  0.03277776  0.03986433       0.010
  -0.02954473  0.04203939  0.03986433       0.010
  -0.00320973  0.05130102  0.03986433       0.010
   0.07579530  0.10700203  0.03986433       0.005
   0.10213031  0.11626366  0.03986433       0.010
  -0.05587974  0.06069389  0.03986433       0.010
  -0.02954473  0.06995552  0.03986433       0.010
  -0.00320973  0.07921715  0.03986433       0.010
   0.10213031  0.14417979  0.03986433       0.005
  -0.05587974  0.08861002  0.03986433       0.010
  -0.02954473  0.09787165  0.03986433       0.010
  -0.00320973  0.10713328  0.03986433       0.010
  -0.05587974 -0.07888677  0.03986433       0.005
  -0.02954473 -0.06962514  0.03986433       0.010
  -0.00320973 -0.06036351  0.03986433       0.010
  -0.02954473 -0.04170901  0.03986433       0.005
  -0.00320973 -0.03244738  0.03986433       0.010
  -0.00320973 -0.00453125  0.03986433       0.005
   0.03468792  0.04896977  0.05979650       0.005
   0.06102293  0.05823140  0.05979650       0.010
   0.08735794  0.06749302  0.05979650       0.010
   0.11369295  0.07675465  0.05979650       0.010
  -0.04431710  0.02118488  0.05979650       0.010
  -0.01798209  0.03044651  0.05979650       0.010
   0.00835291  0.03970814  0.05979650       0.010
   0.06102293  0.08614753  0.05979650       0.005
   0.08735794  0.09540916  0.05979650       0.010
   0.11369295  0.10467078  0.05979650       0.010
  -0.04431710  0.04910101  0.05979650       0.010
  -0.01798209  0.05836264  0.05979650       0.010
   0.00835291  0.06762427  0.05979650       0.010
   0.08735794  0.12332529  0.05979650       0.005
   0.11369295  0.13258692  0.05979650       0.010
  -0.04431710  0.07701715  0.05979650       0.010
  -0.01798209  0.08627877  0.05979650       0.010
   0.00835291  0.09554040  0.05979650       0.010
   0.11369295  0.16050305  0.05979650       0.005
  -0.04431710  0.10493328  0.05979650       0.010
  -0.01798209  0.11419491  0.05979650       0.010
   0.00835291  0.12345653  0.05979650       0.010
  -0.04431710 -0.06256351  0.05979650       0.005
  -0.01798209 -0.05330188  0.05979650       0.010
   0.00835291 -0.04404026  0.05979650       0.010
  -0.01798209 -0.02538575  0.05979650       0.005
   0.00835291 -0.01612412  0.05979650       0.010
   0.00835291  0.01179201  0.05979650       0.005
   0.04625056  0.06529302  0.07972867       0.003
   0.07258557  0.07455465  0.07972867       0.010
   0.09892058  0.08381628  0.07972867       0.010
   0.12525559  0.09307791  0.07972867       0.010
   0.07258557  0.10247078  0.07972867       0.005
   0.09892058  0.11173241  0.07972867       0.010
   0.12525559  0.12099404  0.07972867       0.010
  -0.03275446  0.06542427  0.07972867       0.010
  -0.00641945  0.07468590  0.07972867       0.010
   0.01991555  0.08394753  0.07972867       0.005
   0.09892058  0.13964854  0.07972867       0.005
   0.12525559  0.14891017  0.07972867       0.010
  -0.03275446  0.09334040  0.07972867       0.010
  -0.00641945  0.10260203  0.07972867       0.005
   0.12525559  0.17682630  0.07972867       0.005
  -0.03275446  0.12125653  0.07972867       0.005
 
 k-points in reciprocal lattice and weights: EA                                      
   0.00000000  0.00000000  0.00000000       0.003
   0.14285714  0.00000000  0.00000000       0.010
   0.28571429  0.00000000  0.00000000       0.010
   0.42857143  0.00000000  0.00000000       0.010
   0.14285714  0.14285714  0.00000000       0.005
   0.28571429  0.14285714  0.00000000       0.010
   0.42857143  0.14285714  0.00000000       0.010
  -0.42857143  0.14285714  0.00000000       0.010
  -0.28571429  0.14285714  0.00000000       0.010
  -0.14285714  0.14285714  0.00000000       0.005
   0.28571429  0.28571429  0.00000000       0.005
   0.42857143  0.28571429  0.00000000       0.010
  -0.42857143  0.28571429  0.00000000       0.010
  -0.28571429  0.28571429  0.00000000       0.005
   0.42857143  0.42857143  0.00000000       0.005
  -0.42857143  0.42857143  0.00000000       0.005
   0.00000000  0.00000000  0.12500000       0.005
   0.14285714 -0.00000000  0.12500000       0.010
   0.28571429  0.00000000  0.12500000       0.010
   0.42857143  0.00000000  0.12500000       0.010
  -0.42857143  0.00000000  0.12500000       0.010
  -0.28571429  0.00000000  0.12500000       0.010
  -0.14285714  0.00000000  0.12500000       0.010
   0.14285714  0.14285714  0.12500000       0.005
   0.28571429  0.14285714  0.12500000       0.010
   0.42857143  0.14285714  0.12500000       0.010
  -0.42857143  0.14285714  0.12500000       0.010
  -0.28571429  0.14285714  0.12500000       0.010
  -0.14285714  0.14285714  0.12500000       0.010
   0.28571429  0.28571429  0.12500000       0.005
   0.42857143  0.28571429  0.12500000       0.010
  -0.42857143  0.28571429  0.12500000       0.010
  -0.28571429  0.28571429  0.12500000       0.010
  -0.14285714  0.28571429  0.12500000       0.010
   0.42857143  0.42857143  0.12500000       0.005
  -0.42857143  0.42857143  0.12500000       0.010
  -0.28571429  0.42857143  0.12500000       0.010
  -0.14285714  0.42857143  0.12500000       0.010
  -0.42857143 -0.42857143  0.12500000       0.005
  -0.28571429 -0.42857143  0.12500000       0.010
  -0.14285714 -0.42857143  0.12500000       0.010
  -0.28571429 -0.28571429  0.12500000       0.005
  -0.14285714 -0.28571429  0.12500000       0.010
  -0.14285714 -0.14285714  0.12500000       0.005
   0.00000000  0.00000000  0.25000000       0.005
   0.14285714  0.00000000  0.25000000       0.010
   0.28571429  0.00000000  0.25000000       0.010
   0.42857143  0.00000000  0.25000000       0.010
  -0.42857143  0.00000000  0.25000000       0.010
  -0.28571429  0.00000000  0.25000000       0.010
  -0.14285714  0.00000000  0.25000000       0.010
   0.14285714  0.14285714  0.25000000       0.005
   0.28571429  0.14285714  0.25000000       0.010
   0.42857143  0.14285714  0.25000000       0.010
  -0.42857143  0.14285714  0.25000000       0.010
  -0.28571429  0.14285714  0.25000000       0.010
  -0.14285714  0.14285714  0.25000000       0.010
   0.28571429  0.28571429  0.25000000       0.005
   0.42857143  0.28571429  0.25000000       0.010
  -0.42857143  0.28571429  0.25000000       0.010
  -0.28571429  0.28571429  0.25000000       0.010
  -0.14285714  0.28571429  0.25000000       0.010
   0.42857143  0.42857143  0.25000000       0.005
  -0.42857143  0.42857143  0.25000000       0.010
  -0.28571429  0.42857143  0.25000000       0.010
  -0.14285714  0.42857143  0.25000000       0.010
  -0.42857143 -0.42857143  0.25000000       0.005
  -0.28571429 -0.42857143  0.25000000       0.010
  -0.14285714 -0.42857143  0.25000000       0.010
  -0.28571429 -0.28571429  0.25000000       0.005
  -0.14285714 -0.28571429  0.25000000       0.010
  -0.14285714 -0.14285714  0.25000000       0.005
   0.00000000  0.00000000  0.37500000       0.005
   0.14285714  0.00000000  0.37500000       0.010
   0.28571429  0.00000000  0.37500000       0.010
   0.42857143  0.00000000  0.37500000       0.010
  -0.42857143  0.00000000  0.37500000       0.010
  -0.28571429  0.00000000  0.37500000       0.010
  -0.14285714  0.00000000  0.37500000       0.010
   0.14285714  0.14285714  0.37500000       0.005
   0.28571429  0.14285714  0.37500000       0.010
   0.42857143  0.14285714  0.37500000       0.010
  -0.42857143  0.14285714  0.37500000       0.010
  -0.28571429  0.14285714  0.37500000       0.010
  -0.14285714  0.14285714  0.37500000       0.010
   0.28571429  0.28571429  0.37500000       0.005
   0.42857143  0.28571429  0.37500000       0.010
  -0.42857143  0.28571429  0.37500000       0.010
  -0.28571429  0.28571429  0.37500000       0.010
  -0.14285714  0.28571429  0.37500000       0.010
   0.42857143  0.42857143  0.37500000       0.005
  -0.42857143  0.42857143  0.37500000       0.010
  -0.28571429  0.42857143  0.37500000       0.010
  -0.14285714  0.42857143  0.37500000       0.010
  -0.42857143 -0.42857143  0.37500000       0.005
  -0.28571429 -0.42857143  0.37500000       0.010
  -0.14285714 -0.42857143  0.37500000       0.010
  -0.28571429 -0.28571429  0.37500000       0.005
  -0.14285714 -0.28571429  0.37500000       0.010
  -0.14285714 -0.14285714  0.37500000       0.005
   0.00000000  0.00000000  0.50000000       0.003
   0.14285714  0.00000000  0.50000000       0.010
   0.28571429  0.00000000  0.50000000       0.010
   0.42857143  0.00000000  0.50000000       0.010
   0.14285714  0.14285714  0.50000000       0.005
   0.28571429  0.14285714  0.50000000       0.010
   0.42857143  0.14285714  0.50000000       0.010
  -0.42857143  0.14285714  0.50000000       0.010
  -0.28571429  0.14285714  0.50000000       0.010
  -0.14285714  0.14285714  0.50000000       0.005
   0.28571429  0.28571429  0.50000000       0.005
   0.42857143  0.28571429  0.50000000       0.010
  -0.42857143  0.28571429  0.50000000       0.010
  -0.28571429  0.28571429  0.50000000       0.005
   0.42857143  0.42857143  0.50000000       0.005
  -0.42857143  0.42857143  0.50000000       0.005
 
 position of ions in fractional coordinates (direct lattice) 
   0.50000000  0.00000000  0.50000000
   0.00000000  0.50000000  0.50000000
   0.50000000  0.50000000  0.50000000
   0.24842000  0.74842000  0.99685000
   0.75158000  0.25158000  0.00315000
   0.50000000  0.00000000  0.00000000
   0.74842000  0.75158000  0.50000000
   0.25158000  0.24842000  0.50000000
   0.00000000  0.00000000  0.50000000
   0.00000000  0.50000000  0.00000000
   0.25000000  0.25000000  0.00000000
   0.75000000  0.75000000  0.00000000
 
 position of ions in cartesian coordinates  (Angst):
   2.71230491  0.00000000  1.56222821
  -0.89985103  2.55868444  1.56222821
   1.81245388  2.55868444 -0.01117859
   0.00064856  3.82994121  3.11464584
   3.62425920  1.28742766 -3.13700302
   2.71230491  0.00000000 -1.57340679
   2.70726641  3.84611210 -1.58458538
   0.91764135  1.27125678  1.56222821
   0.00000000  0.00000000  3.13563500
  -0.89985103  2.55868444 -1.57340679
   0.90622694  1.27934222 -1.57340679
   2.71868082  3.83802665 -4.72022038
 


--------------------------------------------------------------------------------------------------------


 k-point   1 :   0.0000 0.0000 0.0000  plane waves:    5817
 k-point   2 :   0.1429 0.0000 0.0000  plane waves:    5835
 k-point   3 :   0.2857 0.0000 0.0000  plane waves:    5818
 k-point   4 :   0.4286 0.0000 0.0000  plane waves:    5812
 k-point   5 :   0.1429 0.1429 0.0000  plane waves:    5836
 k-point   6 :   0.2857 0.1429 0.0000  plane waves:    5813
 k-point   7 :   0.4286 0.1429 0.0000  plane waves:    5800
 k-point   8 :  -0.4286 0.1429 0.0000  plane waves:    5816
 k-point   9 :  -0.2857 0.1429 0.0000  plane waves:    5829
 k-point  10 :  -0.1429 0.1429 0.0000  plane waves:    5825
 k-point  11 :   0.2857 0.2857 0.0000  plane waves:    5812
 k-point  12 :   0.4286 0.2857 0.0000  plane waves:    5799
 k-point  13 :  -0.4286 0.2857 0.0000  plane waves:    5797
 k-point  14 :  -0.2857 0.2857 0.0000  plane waves:    5808
 k-point  15 :   0.4286 0.4286 0.0000  plane waves:    5812
 k-point  16 :  -0.4286 0.4286 0.0000  plane waves:    5800
 k-point  17 :   0.0000 0.0000 0.1250  plane waves:    5833
 k-point  18 :   0.1429-0.0000 0.1250  plane waves:    5826
 k-point  19 :   0.2857 0.0000 0.1250  plane waves:    5819
 k-point  20 :   0.4286 0.0000 0.1250  plane waves:    5803
 k-point  21 :  -0.4286 0.0000 0.1250  plane waves:    5815
 k-point  22 :  -0.2857 0.0000 0.1250  plane waves:    5837
 k-point  23 :  -0.1429 0.0000 0.1250  plane waves:    5837
 k-point  24 :   0.1429 0.1429 0.1250  plane waves:    5823
 k-point  25 :   0.2857 0.1429 0.1250  plane waves:    5797
 k-point  26 :   0.4286 0.1429 0.1250  plane waves:    5793
 k-point  27 :  -0.4286 0.1429 0.1250  plane waves:    5819
 k-point  28 :  -0.2857 0.1429 0.1250  plane waves:    5825
 k-point  29 :  -0.1429 0.1429 0.1250  plane waves:    5839
 k-point  30 :   0.2857 0.2857 0.1250  plane waves:    5825
 k-point  31 :   0.4286 0.2857 0.1250  plane waves:    5793
 k-point  32 :  -0.4286 0.2857 0.1250  plane waves:    5797
 k-point  33 :  -0.2857 0.2857 0.1250  plane waves:    5816
 k-point  34 :  -0.1429 0.2857 0.1250  plane waves:    5809
 k-point  35 :   0.4286 0.4286 0.1250  plane waves:    5802
 k-point  36 :  -0.4286 0.4286 0.1250  plane waves:    5792
 k-point  37 :  -0.2857 0.4286 0.1250  plane waves:    5797
 k-point  38 :  -0.1429 0.4286 0.1250  plane waves:    5800
 k-point  39 :  -0.4286-0.4286 0.1250  plane waves:    5821
 k-point  40 :  -0.2857-0.4286 0.1250  plane waves:    5800
 k-point  41 :  -0.1429-0.4286 0.1250  plane waves:    5812
 k-point  42 :  -0.2857-0.2857 0.1250  plane waves:    5813
 k-point  43 :  -0.1429-0.2857 0.1250  plane waves:    5832
 k-point  44 :  -0.1429-0.1429 0.1250  plane waves:    5824
 k-point  45 :   0.0000 0.0000 0.2500  plane waves:    5830
 k-point  46 :   0.1429 0.0000 0.2500  plane waves:    5802
 k-point  47 :   0.2857 0.0000 0.2500  plane waves:    5802
 k-point  48 :   0.4286 0.0000 0.2500  plane waves:    5815
 k-point  49 :  -0.4286 0.0000 0.2500  plane waves:    5820
 k-point  50 :  -0.2857 0.0000 0.2500  plane waves:    5824
 k-point  51 :  -0.1429 0.0000 0.2500  plane waves:    5832
 k-point  52 :   0.1429 0.1429 0.2500  plane waves:    5788
 k-point  53 :   0.2857 0.1429 0.2500  plane waves:    5812
 k-point  54 :   0.4286 0.1429 0.2500  plane waves:    5803
 k-point  55 :  -0.4286 0.1429 0.2500  plane waves:    5818
 k-point  56 :  -0.2857 0.1429 0.2500  plane waves:    5816
 k-point  57 :  -0.1429 0.1429 0.2500  plane waves:    5813
 k-point  58 :   0.2857 0.2857 0.2500  plane waves:    5813
 k-point  59 :   0.4286 0.2857 0.2500  plane waves:    5799
 k-point  60 :  -0.4286 0.2857 0.2500  plane waves:    5800
 k-point  61 :  -0.2857 0.2857 0.2500  plane waves:    5815
 k-point  62 :  -0.1429 0.2857 0.2500  plane waves:    5806
 k-point  63 :   0.4286 0.4286 0.2500  plane waves:    5815
 k-point  64 :  -0.4286 0.4286 0.2500  plane waves:    5808
 k-point  65 :  -0.2857 0.4286 0.2500  plane waves:    5806
 k-point  66 :  -0.1429 0.4286 0.2500  plane waves:    5806
 k-point  67 :  -0.4286-0.4286 0.2500  plane waves:    5797
 k-point  68 :  -0.2857-0.4286 0.2500  plane waves:    5803
 k-point  69 :  -0.1429-0.4286 0.2500  plane waves:    5813
 k-point  70 :  -0.2857-0.2857 0.2500  plane waves:    5811
 k-point  71 :  -0.1429-0.2857 0.2500  plane waves:    5835
 k-point  72 :  -0.1429-0.1429 0.2500  plane waves:    5834
 k-point  73 :   0.0000 0.0000 0.3750  plane waves:    5806
 k-point  74 :   0.1429 0.0000 0.3750  plane waves:    5806
 k-point  75 :   0.2857 0.0000 0.3750  plane waves:    5814
 k-point  76 :   0.4286 0.0000 0.3750  plane waves:    5800
 k-point  77 :  -0.4286 0.0000 0.3750  plane waves:    5803
 k-point  78 :  -0.2857 0.0000 0.3750  plane waves:    5817
 k-point  79 :  -0.1429 0.0000 0.3750  plane waves:    5805
 k-point  80 :   0.1429 0.1429 0.3750  plane waves:    5809
 k-point  81 :   0.2857 0.1429 0.3750  plane waves:    5808
 k-point  82 :   0.4286 0.1429 0.3750  plane waves:    5808
 k-point  83 :  -0.4286 0.1429 0.3750  plane waves:    5804
 k-point  84 :  -0.2857 0.1429 0.3750  plane waves:    5807
 k-point  85 :  -0.1429 0.1429 0.3750  plane waves:    5781
 k-point  86 :   0.2857 0.2857 0.3750  plane waves:    5812
 k-point  87 :   0.4286 0.2857 0.3750  plane waves:    5814
 k-point  88 :  -0.4286 0.2857 0.3750  plane waves:    5805
 k-point  89 :  -0.2857 0.2857 0.3750  plane waves:    5812
 k-point  90 :  -0.1429 0.2857 0.3750  plane waves:    5809
 k-point  91 :   0.4286 0.4286 0.3750  plane waves:    5793
 k-point  92 :  -0.4286 0.4286 0.3750  plane waves:    5804
 k-point  93 :  -0.2857 0.4286 0.3750  plane waves:    5796
 k-point  94 :  -0.1429 0.4286 0.3750  plane waves:    5795
 k-point  95 :  -0.4286-0.4286 0.3750  plane waves:    5799
 k-point  96 :  -0.2857-0.4286 0.3750  plane waves:    5798
 k-point  97 :  -0.1429-0.4286 0.3750  plane waves:    5819
 k-point  98 :  -0.2857-0.2857 0.3750  plane waves:    5810
 k-point  99 :  -0.1429-0.2857 0.3750  plane waves:    5824
 k-point 100 :  -0.1429-0.1429 0.3750  plane waves:    5820
 k-point 101 :   0.0000 0.0000 0.5000  plane waves:    5778
 k-point 102 :   0.1429 0.0000 0.5000  plane waves:    5804
 k-point 103 :   0.2857 0.0000 0.5000  plane waves:    5805
 k-point 104 :   0.4286 0.0000 0.5000  plane waves:    5801
 k-point 105 :   0.1429 0.1429 0.5000  plane waves:    5792
 k-point 106 :   0.2857 0.1429 0.5000  plane waves:    5814
 k-point 107 :   0.4286 0.1429 0.5000  plane waves:    5799
 k-point 108 :  -0.4286 0.1429 0.5000  plane waves:    5805
 k-point 109 :  -0.2857 0.1429 0.5000  plane waves:    5803
 k-point 110 :  -0.1429 0.1429 0.5000  plane waves:    5814
 k-point 111 :   0.2857 0.2857 0.5000  plane waves:    5807
 k-point 112 :   0.4286 0.2857 0.5000  plane waves:    5800
 k-point 113 :  -0.4286 0.2857 0.5000  plane waves:    5805
 k-point 114 :  -0.2857 0.2857 0.5000  plane waves:    5808
 k-point 115 :   0.4286 0.4286 0.5000  plane waves:    5796
 k-point 116 :  -0.4286 0.4286 0.5000  plane waves:    5794

 maximum and minimum number of plane-waves per node :      2937     2874

 maximum number of plane-waves:      5839
 maximum index in each direction: 
   IXMAX=   12   IYMAX=   12   IZMAX=   12
   IXMIN=  -12   IYMIN=  -12   IZMIN=  -13


 parallel 3D FFT for wavefunctions:
    minimum data exchange during FFTs selected (reduces bandwidth)
 parallel 3D FFT for charge:
    minimum data exchange during FFTs selected (reduces bandwidth)


 total amount of memory used by VASP MPI-rank0   419838. kBytes
=======================================================================

   base      :      30000. kBytes
   nonl-proj :     146686. kBytes
   fftplans  :      14375. kBytes
   grid      :      11100. kBytes
   one-center:         93. kBytes
   wavefun   :     217584. kBytes
 
     INWAV:  cpu time    0.0001: real time    0.0001
 Broyden mixing: mesh for mixing (old mesh)
   NGX = 25   NGY = 25   NGZ = 25
  (NGX  =100   NGY  =100   NGZ  =100)
  gives a total of  15625 points

 initial charge density was supplied:
 charge density of overlapping atoms calculated
 number of electron     126.0000000 magnetization 
 keeping initial charge density in first step


--------------------------------------------------------------------------------------------------------


 Maximum index for augmentation-charges        21752 (set IRDMAX)


--------------------------------------------------------------------------------------------------------


 First call to EWALD:  gamma=   0.317
 Maximum number of real-space cells 3x 3x 3
 Maximum number of reciprocal cells 3x 3x 3

    FEWALD:  cpu time    0.0533: real time    0.0537


--------------------------------------- Iteration      1(   1)  ---------------------------------------


    POTLOK:  cpu time    0.1407: real time    0.1420
    SETDIJ:  cpu time    0.6263: real time    0.6300
    TRIAL :  cpu time   24.7906: real time   25.0087
    CORREC:  cpu time    0.0024: real time    0.0024
    --------------------------------------------
      LOOP:  cpu time   25.6311: real time   25.8598

 eigenvalue-minimisations  : 18336
 total energy-change (2. order) : 0.1505666E+04  (-0.8790205E+04)
 number of electron     126.0000000 magnetization 
 augmentation part      126.0000000 magnetization 

 Free energy of the ion-electron system (eV)
  ---------------------------------------------------
  alpha Z        PSCENC =       807.55278289
  Ewald energy   TEWEN  =    -12163.36503866
  -Hartree energ DENC   =     -3285.67646067
  -exchange      EXHF   =         0.00000000
  -V(xc)+E(xc)   XCENC  =       622.78994804
  PAW double counting   =     12139.29562609   -12091.82663909
  entropy T*S    EENTRO =        -0.00042390
  eigenvalues    EBANDS =       230.16414448
  atomic energy  EATOM  =     15246.73248675
  ---------------------------------------------------
  free energy    TOTEN  =      1505.66642591 eV

  energy without entropy =     1505.66684982  energy(sigma->0) =     1505.66663786


--------------------------------------------------------------------------------------------------------




--------------------------------------- Iteration      1(   2)  ---------------------------------------


    TRIAL :  cpu time   25.5135: real time   25.7360
    CORREC:  cpu time    0.0028: real time    0.0028
    --------------------------------------------
      LOOP:  cpu time   25.5185: real time   25.7418

 eigenvalue-minimisations  : 19656
 total energy-change (2. order) :-0.1708901E+04  (-0.1669712E+04)
 number of electron     126.0000000 magnetization 
 augmentation part      126.0000000 magnetization 

 Free energy of the ion-electron system (eV)
  ---------------------------------------------------
  alpha Z        PSCENC =       807.55278289
  Ewald energy   TEWEN  =    -12163.36503866
  -Hartree energ DENC   =     -3285.67646067
  -exchange      EXHF   =         0.00000000
  -V(xc)+E(xc)   XCENC  =       622.78994804
  PAW double counting   =     12139.29562609   -12091.82663909
  entropy T*S    EENTRO =        -0.00179133
  eigenvalues    EBANDS =     -1478.73536587
  atomic energy  EATOM  =     15246.73248675
  ---------------------------------------------------
  free energy    TOTEN  =      -203.23445187 eV

  energy without entropy =     -203.23266053  energy(sigma->0) =     -203.23355620


--------------------------------------------------------------------------------------------------------




--------------------------------------- Iteration      1(   3)  ---------------------------------------


    TRIAL :  cpu time   28.4425: real time   28.6932
    CORREC:  cpu time    0.0027: real time    0.0027
    --------------------------------------------
      LOOP:  cpu time   28.4467: real time   28.6988

 eigenvalue-minimisations  : 23760
 total energy-change (2. order) :-0.6947124E+02  (-0.6715683E+02)
 number of electron     126.0000000 magnetization 
 augmentation part      126.0000000 magnetization 

 Free energy of the ion-electron system (eV)
  ---------------------------------------------------
  alpha Z        PSCENC =       807.55278289
  Ewald energy   TEWEN  =    -12163.36503866
  -Hartree energ DENC   =     -3285.67646067
  -exchange      EXHF   =         0.00000000
  -V(xc)+E(xc)   XCENC  =       622.78994804
  PAW double counting   =     12139.29562609   -12091.82663909
  entropy T*S    EENTRO =        -0.00229651
  eigenvalues    EBANDS =     -1548.20610325
  atomic energy  EATOM  =     15246.73248675
  ---------------------------------------------------
  free energy    TOTEN  =      -272.70569442 eV

  energy without entropy =     -272.70339791  energy(sigma->0) =     -272.70454617


--------------------------------------------------------------------------------------------------------




--------------------------------------- Iteration      1(   4)  ---------------------------------------


    TRIAL :  cpu time   26.9279: real time   27.1587
    CORREC:  cpu time    0.0026: real time    0.0026
    --------------------------------------------
      LOOP:  cpu time   26.9313: real time   27.1645

 eigenvalue-minimisations  : 21612
 total energy-change (2. order) :-0.1554778E+01  (-0.1531850E+01)
 number of electron     126.0000000 magnetization 
 augmentation part      126.0000000 magnetization 

 Free energy of the ion-electron system (eV)
  ---------------------------------------------------
  alpha Z        PSCENC =       807.55278289
  Ewald energy   TEWEN  =    -12163.36503866
  -Hartree energ DENC   =     -3285.67646067
  -exchange      EXHF   =         0.00000000
  -V(xc)+E(xc)   XCENC  =       622.78994804
  PAW double counting   =     12139.29562609   -12091.82663909
  entropy T*S    EENTRO =        -0.00201257
  eigenvalues    EBANDS =     -1549.76116532
  atomic energy  EATOM  =     15246.73248675
  ---------------------------------------------------
  free energy    TOTEN  =      -274.26047256 eV

  energy without entropy =     -274.25845999  energy(sigma->0) =     -274.25946627


--------------------------------------------------------------------------------------------------------




--------------------------------------- Iteration      1(   5)  ---------------------------------------


    TRIAL :  cpu time   27.3210: real time   27.5541
    CORREC:  cpu time    0.0027: real time    0.0027
    CHARGE:  cpu time    2.1949: real time    2.2101
    --------------------------------------------
      LOOP:  cpu time   29.5200: real time   29.7699

 eigenvalue-minimisations  : 22194
 total energy-change (2. order) :-0.3194277E-01  (-0.3186825E-01)
 number of electron     126.0000001 magnetization 
 augmentation part       17.6019651 magnetization 

 Free energy of the ion-electron system (eV)
  ---------------------------------------------------
  alpha Z        PSCENC =       807.55278289
  Ewald energy   TEWEN  =    -12163.36503866
  -Hartree energ DENC   =     -3285.67646067
  -exchange      EXHF   =         0.00000000
  -V(xc)+E(xc)   XCENC  =       622.78994804
  PAW double counting   =     12139.29562609   -12091.82663909
  entropy T*S    EENTRO =        -0.00199131
  eigenvalues    EBANDS =     -1549.79312936
  atomic energy  EATOM  =     15246.73248675
  ---------------------------------------------------
  free energy    TOTEN  =      -274.29241533 eV

  energy without entropy =     -274.29042402  energy(sigma->0) =     -274.29141968


--------------------------------------------------------------------------------------------------------




--------------------------------------- Iteration      1(   6)  ---------------------------------------


    POTLOK:  cpu time    0.1173: real time    0.1180
    SETDIJ:  cpu time    0.6076: real time    0.6111
    TRIAL :  cpu time   19.2321: real time   19.4051
    CORREC:  cpu time    7.2850: real time    7.3453
    CHARGE:  cpu time    2.1019: real time    2.1163
    --------------------------------------------
      LOOP:  cpu time   29.3542: real time   29.6073

 eigenvalue-minimisations  :     0
 total energy-change (2. order) : 0.6582201E+02  (-0.1057960E+02)
 number of electron     126.0000001 magnetization 
 augmentation part       19.1958736 magnetization 

 Free energy of the ion-electron system (eV)
  ---------------------------------------------------
  alpha Z        PSCENC =       807.55278289
  Ewald energy   TEWEN  =    -12163.36503866
  -Hartree energ DENC   =     -2939.58673681
  -exchange      EXHF   =         0.00000000
  -V(xc)+E(xc)   XCENC  =       627.76283889
  PAW double counting   =     19859.22811763   -19851.56574654
  entropy T*S    EENTRO =        -0.00178582
  eigenvalues    EBANDS =     -1795.22711672
  atomic energy  EATOM  =     15246.73248675
  ---------------------------------------------------
  free energy    TOTEN  =      -208.47040389 eV

  energy without entropy =     -208.46861807  energy(sigma->0) =     -208.46951098


--------------------------------------------------------------------------------------------------------




--------------------------------------- Iteration      1(   7)  ---------------------------------------


    POTLOK:  cpu time    0.1081: real time    0.1088
    SETDIJ:  cpu time    0.6061: real time    0.6098
    TRIAL :  cpu time   19.7618: real time   19.9400
    CORREC:  cpu time    7.4181: real time    7.4793
    CHARGE:  cpu time    2.0943: real time    2.1105
    --------------------------------------------
      LOOP:  cpu time   29.9934: real time   30.2546

 eigenvalue-minimisations  :     0
 total energy-change (2. order) :-0.1072282E+02  (-0.1970343E+01)
 number of electron     126.0000001 magnetization 
 augmentation part       19.4436302 magnetization 

 Free energy of the ion-electron system (eV)
  ---------------------------------------------------
  alpha Z        PSCENC =       807.55278289
  Ewald energy   TEWEN  =    -12163.36503866
  -Hartree energ DENC   =     -3113.19540166
  -exchange      EXHF   =         0.00000000
  -V(xc)+E(xc)   XCENC  =       635.71942283
  PAW double counting   =     18888.86395591   -18869.08492809
  entropy T*S    EENTRO =        -0.00167082
  eigenvalues    EBANDS =     -1652.41472043
  atomic energy  EATOM  =     15246.73248675
  ---------------------------------------------------
  free energy    TOTEN  =      -219.19322628 eV

  energy without entropy =     -219.19155547  energy(sigma->0) =     -219.19239087


--------------------------------------------------------------------------------------------------------




--------------------------------------- Iteration      1(   8)  ---------------------------------------


    POTLOK:  cpu time    0.1257: real time    0.1265
    SETDIJ:  cpu time    0.5589: real time    0.5625
    TRIAL :  cpu time   19.7333: real time   19.9051
    CORREC:  cpu time    7.3723: real time    7.4349
    CHARGE:  cpu time    2.0303: real time    2.0463
    --------------------------------------------
      LOOP:  cpu time   29.8273: real time   30.0823

 eigenvalue-minimisations  :     0
 total energy-change (2. order) :-0.1970551E+01  (-0.4455697E+00)
 number of electron     126.0000001 magnetization 
 augmentation part       19.4149579 magnetization 

 Free energy of the ion-electron system (eV)
  ---------------------------------------------------
  alpha Z        PSCENC =       807.55278289
  Ewald energy   TEWEN  =    -12163.36503866
  -Hartree energ DENC   =     -3170.19922099
  -exchange      EXHF   =         0.00000000
  -V(xc)+E(xc)   XCENC  =       638.21109481
  PAW double counting   =     18443.44899392   -18418.90075673
  entropy T*S    EENTRO =        -0.00207086
  eigenvalues    EBANDS =     -1604.64244863
  atomic energy  EATOM  =     15246.73248675
  ---------------------------------------------------
  free energy    TOTEN  =      -221.16377747 eV

  energy without entropy =     -221.16170662  energy(sigma->0) =     -221.16274204


--------------------------------------------------------------------------------------------------------




--------------------------------------- Iteration      1(   9)  ---------------------------------------


    POTLOK:  cpu time    0.1138: real time    0.1145
    SETDIJ:  cpu time    0.5680: real time    0.5720
    TRIAL :  cpu time   20.1816: real time   20.3588
    CORREC:  cpu time    7.3556: real time    7.4192
    CHARGE:  cpu time    2.3029: real time    2.3196
    --------------------------------------------
      LOOP:  cpu time   30.5252: real time   30.7885

 eigenvalue-minimisations  :     0
 total energy-change (2. order) :-0.4452611E+00  (-0.1542421E+00)
 number of electron     126.0000001 magnetization 
 augmentation part       19.3832610 magnetization 

 Free energy of the ion-electron system (eV)
  ---------------------------------------------------
  alpha Z        PSCENC =       807.55278289
  Ewald energy   TEWEN  =    -12163.36503866
  -Hartree energ DENC   =     -3173.59714170
  -exchange      EXHF   =         0.00000000
  -V(xc)+E(xc)   XCENC  =       638.32557036
  PAW double counting   =     18335.14955445   -18308.88400468
  entropy T*S    EENTRO =        -0.00169059
  eigenvalues    EBANDS =     -1603.52117713
  atomic energy  EATOM  =     15246.73248675
  ---------------------------------------------------
  free energy    TOTEN  =      -221.60903857 eV

  energy without entropy =     -221.60734798  energy(sigma->0) =     -221.60819328


--------------------------------------------------------------------------------------------------------




--------------------------------------- Iteration      1(  10)  ---------------------------------------


    POTLOK:  cpu time    0.1115: real time    0.1122
    SETDIJ:  cpu time    0.5445: real time    0.5482
    TRIAL :  cpu time   19.4184: real time   19.5813
    CORREC:  cpu time    7.3449: real time    7.4040
    CHARGE:  cpu time    2.0572: real time    2.0719
    --------------------------------------------
      LOOP:  cpu time   29.4794: real time   29.7211

 eigenvalue-minimisations  :     0
 total energy-change (2. order) :-0.1540886E+00  (-0.4771028E-01)
 number of electron     126.0000001 magnetization 
 augmentation part       19.4042733 magnetization 

 Free energy of the ion-electron system (eV)
  ---------------------------------------------------
  alpha Z        PSCENC =       807.55278289
  Ewald energy   TEWEN  =    -12163.36503866
  -Hartree energ DENC   =     -3171.64004745
  -exchange      EXHF   =         0.00000000
  -V(xc)+E(xc)   XCENC  =       638.25452374
  PAW double counting   =     18310.28260458   -18283.08105861
  entropy T*S    EENTRO =        -0.00136481
  eigenvalues    EBANDS =     -1606.49768982
  atomic energy  EATOM  =     15246.73248675
  ---------------------------------------------------
  free energy    TOTEN  =      -221.76312717 eV

  energy without entropy =     -221.76176236  energy(sigma->0) =     -221.76244477


--------------------------------------------------------------------------------------------------------




[...]
     74      12.8957      0.00000
     75      13.4037      0.00000
     76      13.5160      0.00000
     77      14.2902      0.00000
     78      14.4613      0.00000

 k-point   111 :       0.2857    0.2857    0.5000
  band No.  band energies     occupation 
      1     -52.1221      2.00000
      2     -52.1219      2.00000
      3     -52.0739      2.00000
      4     -52.0312      2.00000
      5     -51.3938      2.00000
      6     -51.3535      2.00000
      7     -51.2926      2.00000
      8     -51.2922      2.00000
      9     -27.4849      2.00000
     10     -27.4849      2.00000
     11     -27.1638      2.00000
     12     -27.1043      2.00000
     13     -25.6838      2.00000
     14     -25.5137      2.00000
     15     -25.5074      2.00000
     16     -25.5035      2.00000
     17     -25.3481      2.00000
     18     -25.2559      2.00000
     19     -25.2524      2.00000
     20     -25.1915      2.00000
     21     -25.0539      2.00000
     22     -25.0035      2.00000
     23     -24.9997      2.00000
     24     -24.7965      2.00000
     25     -24.7934      2.00000
     26     -24.6836      2.00000
     27     -24.6817      2.00000
     28     -24.5470      2.00000
     29     -24.0859      2.00000
     30     -24.0513      2.00000
     31     -23.6304      2.00000
     32     -23.6304      2.00000
     33       0.5318      2.00000
     34       2.1945      2.00000
     35       2.2932      2.00000
     36       3.4301      2.00000
     37       4.5007      2.00000
     38       4.9800      2.00000
     39       5.5245      2.00000
     40       5.6672      2.00000
     41       5.6688      2.00000
     42       6.3559      2.00000
     43       6.4542      2.00000
     44       6.6700      2.00000
     45       7.0042      2.00000
     46       7.0425      2.00000
     47       7.1833      2.00000
     48       7.2075      2.00000
     49       7.5156      2.00000
     50       7.6564      2.00000
     51       7.9403      2.00000
     52       8.0870      2.00000
     53       8.1481      2.00000
     54       8.2739      2.00000
     55       8.3479      2.00000
     56       8.5954      2.00000
     57       8.9485      2.00000
     58       9.2137      2.00000
     59       9.4506      2.00000
     60       9.8952      2.00000
     61      10.0400      2.00000
     62      10.5270      2.00000
     63      10.5600      2.00000
     64      11.5377      0.00000
     65      11.6644      0.00000
     66      11.6675      0.00000
     67      11.9023      0.00000
     68      12.3199      0.00000
     69      12.8069      0.00000
     70      12.9134      0.00000
     71      13.3501      0.00000
     72      13.4287      0.00000
     73      13.6658      0.00000
     74      13.7613      0.00000
     75      13.9537      0.00000
     76      14.3743      0.00000
     77      14.4730      0.00000
     78      14.6886      0.00000

 k-point   112 :       0.4286    0.2857    0.5000
  band No.  band energies     occupation 
      1     -52.1774      2.00000
      2     -52.1720      2.00000
      3     -51.9951      2.00000
      4     -51.9481      2.00000
      5     -51.4878      2.00000
      6     -51.4414      2.00000
      7     -51.2320      2.00000
      8     -51.2272      2.00000
      9     -27.7495      2.00000
     10     -27.7416      2.00000
     11     -26.7370      2.00000
     12     -26.6737      2.00000
     13     -25.7491      2.00000
     14     -25.5582      2.00000
     15     -25.4737      2.00000
     16     -25.4349      2.00000
     17     -25.3691      2.00000
     18     -25.2427      2.00000
     19     -25.2038      2.00000
     20     -25.2033      2.00000
     21     -25.0662      2.00000
     22     -25.0340      2.00000
     23     -25.0230      2.00000
     24     -24.7668      2.00000
     25     -24.7426      2.00000
     26     -24.7384      2.00000
     27     -24.7100      2.00000
     28     -24.5960      2.00000
     29     -24.5515      2.00000
     30     -24.4940      2.00000
     31     -23.2919      2.00000
     32     -23.2886      2.00000
     33       0.4701      2.00000
     34       2.0354      2.00000
     35       2.4948      2.00000
     36       3.6959      2.00000
     37       4.2123      2.00000
     38       4.7656      2.00000
     39       4.9945      2.00000
     40       5.4288      2.00000
     41       5.7766      2.00000
     42       6.4814      2.00000
     43       6.4872      2.00000
     44       6.5197      2.00000
     45       6.6122      2.00000
     46       6.8240      2.00000
     47       6.8425      2.00000
     48       7.1427      2.00000
     49       7.4828      2.00000
     50       7.7858      2.00000
     51       7.9962      2.00000
     52       8.2100      2.00000
     53       8.2696      2.00000
     54       8.7161      2.00000
     55       8.8394      2.00000
     56       9.2205      2.00000
     57       9.2542      2.00000
     58       9.3911      2.00000
     59       9.8134      2.00000
     60      10.0660      2.00000
     61      10.2788      2.00000
     62      10.5420      2.00000
     63      10.7611      2.00000
     64      11.3662      0.00000
     65      11.5442      0.00000
     66      12.1195      0.00000
     67      12.1335      0.00000
     68      12.3335      0.00000
     69      12.3605      0.00000
     70      12.7381      0.00000
     71      12.8968      0.00000
     72      13.1572      0.00000
     73      13.4850      0.00000
     74      14.0571      0.00000
     75      14.1406      0.00000
     76      14.4181      0.00000
     77      14.5624      0.00000
     78      14.7582      0.00000

 k-point   113 :      -0.4286    0.2857    0.5000
  band No.  band energies     occupation 
      1     -52.2102      2.00000
      2     -52.2048      2.00000
      3     -51.9149      2.00000
      4     -51.8692      2.00000
      5     -51.5749      2.00000
      6     -51.5271      2.00000
      7     -51.1923      2.00000
      8     -51.1875      2.00000
      9     -27.9100      2.00000
     10     -27.9019      2.00000
     11     -26.2478      2.00000
     12     -26.1889      2.00000
     13     -25.7755      2.00000
     14     -25.5814      2.00000
     15     -25.3999      2.00000
     16     -25.3933      2.00000
     17     -25.3617      2.00000
     18     -25.2640      2.00000
     19     -25.2260      2.00000
     20     -25.2257      2.00000
     21     -25.1374      2.00000
     22     -25.0879      2.00000
     23     -25.0795      2.00000
     24     -25.0467      2.00000
     25     -24.9931      2.00000
     26     -24.7873      2.00000
     27     -24.7541      2.00000
     28     -24.7400      2.00000
     29     -24.7115      2.00000
     30     -24.4705      2.00000
     31     -23.0756      2.00000
     32     -23.0726      2.00000
     33       0.5673      2.00000
     34       2.0113      2.00000
     35       2.4718      2.00000
     36       3.6956      2.00000
     37       4.0768      2.00000
     38       4.7234      2.00000
     39       4.8397      2.00000
     40       5.3436      2.00000
     41       5.7085      2.00000
     42       6.0780      2.00000
     43       6.1023      2.00000
     44       6.5518      2.00000
     45       6.6610      2.00000
     46       6.8621      2.00000
     47       7.2081      2.00000
     48       7.3321      2.00000
     49       7.5764      2.00000
     50       7.5889      2.00000
     51       7.8744      2.00000
     52       8.0667      2.00000
     53       8.0706      2.00000
     54       8.4213      2.00000
     55       9.6969      2.00000
     56       9.7637      2.00000
     57       9.8307      2.00000
     58       9.9026      2.00000
     59      10.2347      2.00000
     60      10.3766      2.00000
     61      10.4103      2.00000
     62      10.6591      2.00000
     63      10.8502      2.00000
     64      11.1495      0.00000
     65      11.2231      0.00000
     66      11.7665      0.00000
     67      11.8267      0.00000
     68      12.3944      0.00000
     69      12.4974      0.00000
     70      12.5777      0.00000
     71      12.6173      0.00000
     72      12.8396      0.00000
     73      13.2197      0.00000
     74      13.4335      0.00000
     75      13.9323      0.00000
     76      14.3493      0.00000
     77      14.4201      0.00000
     78      14.5758      0.00000

 k-point   114 :      -0.2857    0.2857    0.5000
  band No.  band energies     occupation 
      1     -52.2188      2.00000
      2     -52.2186      2.00000
      3     -51.8712      2.00000
      4     -51.8315      2.00000
      5     -51.6158      2.00000
      6     -51.5724      2.00000
      7     -51.1765      2.00000
      8     -51.1763      2.00000
      9     -27.9603      2.00000
     10     -27.9601      2.00000
     11     -25.8019      2.00000
     12     -25.7614      2.00000
     13     -25.7550      2.00000
     14     -25.5975      2.00000
     15     -25.5771      2.00000
     16     -25.5403      2.00000
     17     -25.4202      2.00000
     18     -25.3078      2.00000
     19     -25.2993      2.00000
     20     -25.2917      2.00000
     21     -25.2909      2.00000
     22     -25.2524      2.00000
     23     -25.0736      2.00000
     24     -25.0723      2.00000
     25     -24.9668      2.00000
     26     -24.7984      2.00000
     27     -24.7962      2.00000
     28     -24.7168      2.00000
     29     -24.7168      2.00000
     30     -24.4779      2.00000
     31     -23.0000      2.00000
     32     -22.9999      2.00000
     33       0.7782      2.00000
     34       2.1527      2.00000
     35       2.2222      2.00000
     36       3.3429      2.00000
     37       4.1664      2.00000
     38       4.8958      2.00000
     39       5.0871      2.00000
     40       5.4311      2.00000
     41       5.6188      2.00000
     42       5.9439      2.00000
     43       5.9729      2.00000
     44       6.4118      2.00000
     45       6.8713      2.00000
     46       7.1436      2.00000
     47       7.3167      2.00000
     48       7.3542      2.00000
     49       7.5743      2.00000
     50       7.7090      2.00000
     51       7.7458      2.00000
     52       7.7565      2.00000
     53       8.0091      2.00000
     54       8.1660      2.00000
     55       9.6442      2.00000
     56       9.7036      2.00000
     57      10.2920      2.00000
     58      10.3344      2.00000
     59      10.4035      2.00000
     60      10.4665      2.00000
     61      10.5645      2.00000
     62      10.7675      2.00000
     63      10.8724      2.00000
     64      10.9305      1.83193
     65      11.4379      0.00000
     66      11.4665      0.00000
     67      11.8418      0.00000
     68      11.9752      0.00000
     69      12.0713      0.00000
     70      12.1289      0.00000
     71      12.1367      0.00000
     72      12.4007      0.00000
     73      13.2708      0.00000
     74      13.2809      0.00000
     75      13.8983      0.00000
     76      13.9395      0.00000
     77      14.4221      0.00000
     78      14.4667      0.00000

 k-point   115 :       0.4286    0.4286    0.5000
  band No.  band energies     occupation 
      1     -52.2075      2.00000
      2     -52.2074      2.00000
      3     -51.9174      2.00000
      4     -51.8667      2.00000
      5     -51.5776      2.00000
      6     -51.5246      2.00000
      7     -51.1899      2.00000
      8     -51.1898      2.00000
      9     -27.9058      2.00000
     10     -27.9058      2.00000
     11     -26.2511      2.00000
     12     -26.1857      2.00000
     13     -25.7967      2.00000
     14     -25.6019      2.00000
     15     -25.3911      2.00000
     16     -25.3902      2.00000
     17     -25.3722      2.00000
     18     -25.2512      2.00000
     19     -25.2503      2.00000
     20     -25.2081      2.00000
     21     -25.1393      2.00000
     22     -25.0854      2.00000
     23     -25.0521      2.00000
     24     -25.0519      2.00000
     25     -25.0085      2.00000
     26     -24.7621      2.00000
     27     -24.7615      2.00000
     28     -24.7551      2.00000
     29     -24.6959      2.00000
     30     -24.4563      2.00000
     31     -23.0741      2.00000
     32     -23.0741      2.00000
     33       0.3772      2.00000
     34       1.8490      2.00000
     35       3.0994      2.00000
     36       3.9450      2.00000
     37       4.0322      2.00000
     38       4.5791      2.00000
     39       4.5828      2.00000
     40       4.7806      2.00000
     41       5.7811      2.00000
     42       6.0782      2.00000
     43       6.0810      2.00000
     44       6.4279      2.00000
     45       6.4917      2.00000
     46       6.7024      2.00000
     47       7.2062      2.00000
     48       7.3122      2.00000
     49       7.3248      2.00000
     50       7.8480      2.00000
     51       8.1527      2.00000
     52       8.1793      2.00000
     53       8.1951      2.00000
     54       8.3546      2.00000
     55       9.7562      2.00000
     56       9.8056      2.00000
     57       9.8250      2.00000
     58      10.1402      2.00000
     59      10.3662      2.00000
     60      10.3709      2.00000
     61      10.6758      2.00000
     62      10.6836      2.00000
     63      10.7247      2.00000
     64      11.1117      0.00000
     65      11.2442      0.00000
     66      11.5849      0.00000
     67      11.9345      0.00000
     68      12.8677      0.00000
     69      13.0046      0.00000
     70      13.0504      0.00000
     71      13.1489      0.00000
     72      13.2306      0.00000
     73      13.3172      0.00000
     74      13.4846      0.00000
     75      14.0074      0.00000
     76      14.2863      0.00000
     77      14.3854      0.00000
     78      14.6554      0.00000

 k-point   116 :      -0.4286    0.4286    0.5000
  band No.  band energies     occupation 
      1     -52.2186      2.00000
      2     -52.2186      2.00000
      3     -51.8761      2.00000
      4     -51.8265      2.00000
      5     -51.6213      2.00000
      6     -51.5672      2.00000
      7     -51.1763      2.00000
      8     -51.1762      2.00000
      9     -27.9600      2.00000
     10     -27.9599      2.00000
     11     -25.8078      2.00000
     12     -25.8057      2.00000
     13     -25.7493      2.00000
     14     -25.6124      2.00000
     15     -25.6036      2.00000
     16     -25.5375      2.00000
     17     -25.3805      2.00000
     18     -25.3168      2.00000
     19     -25.3167      2.00000
     20     -25.3146      2.00000
     21     -25.3138      2.00000
     22     -25.2130      2.00000
     23     -25.0457      2.00000
     24     -25.0456      2.00000
     25     -24.9983      2.00000
     26     -24.7807      2.00000
     27     -24.7805      2.00000
     28     -24.7461      2.00000
     29     -24.6868      2.00000
     30     -24.4482      2.00000
     31     -23.0000      2.00000
     32     -22.9999      2.00000
     33       0.4166      2.00000
     34       1.8358      2.00000
     35       3.1068      2.00000
     36       3.8892      2.00000
     37       4.0258      2.00000
     38       4.5560      2.00000
     39       4.6332      2.00000
     40       4.6559      2.00000
     41       5.7369      2.00000
     42       5.9358      2.00000
     43       5.9382      2.00000
     44       6.4397      2.00000
     45       6.5015      2.00000
     46       6.6443      2.00000
     47       7.3614      2.00000
     48       7.6685      2.00000
     49       7.6832      2.00000
     50       7.7812      2.00000
     51       7.7948      2.00000
     52       7.8439      2.00000
     53       8.1285      2.00000
     54       8.2097      2.00000
     55      10.2099      2.00000
     56      10.2488      2.00000
     57      10.3351      2.00000
     58      10.4262      2.00000
     59      10.4492      2.00000
     60      10.5696      2.00000
     61      10.5814      2.00000
     62      10.7074      2.00000
     63      10.7282      2.00000
     64      10.9125      1.99196
     65      10.9580      0.56805
     66      11.5458      0.00000
     67      12.0621      0.00000
     68      12.1254      0.00000
     69      12.7531      0.00000
     70      12.9994      0.00000
     71      13.0521      0.00000
     72      13.3715      0.00000
     73      13.3740      0.00000
     74      13.4758      0.00000
     75      14.0907      0.00000
     76      14.1764      0.00000
     77      14.4847      0.00000
     78      14.6706      0.00000


--------------------------------------------------------------------------------------------------------


 soft charge-density along one line, spin component           1
         0         1         2         3         4         5         6         7         8         9
 total charge-density along one line
 
 pseudopotential strength for first ion, spin component:           1
  5.871   8.890   0.000  -0.000   0.000   0.000  -0.000   0.000
  8.890  13.452   0.000  -0.000   0.000   0.000  -0.000   0.000
  0.000   0.000  -1.936  -0.001   0.001  -3.216  -0.003   0.004
 -0.000  -0.000  -0.001  -1.935  -0.001  -0.003  -3.213  -0.002
  0.000   0.000   0.001  -0.001  -1.937   0.004  -0.002  -3.218
  0.000   0.000  -3.216  -0.003   0.004  -5.127  -0.009   0.009
 -0.000  -0.000  -0.003  -3.213  -0.002  -0.009  -5.121  -0.007
  0.000   0.000   0.004  -0.002  -3.218   0.009  -0.007  -5.133
 total augmentation occupancy for first ion, spin component:           1
  3.130  -0.650   0.000   0.000   0.000   0.000   0.000   0.000
 -0.650   0.153   0.000   0.000   0.000   0.000   0.000   0.000
  0.000   0.000   2.036   0.493  -0.318  -0.493  -0.109   0.069
  0.000   0.000   0.493   1.807   0.349  -0.109  -0.443  -0.077
  0.000   0.000  -0.318   0.349   2.260   0.069  -0.077  -0.542
  0.000   0.000  -0.493  -0.109   0.069   0.124   0.026  -0.016
  0.000   0.000  -0.109  -0.443  -0.077   0.026   0.112   0.018
  0.000   0.000   0.069  -0.077  -0.542  -0.016   0.018   0.135


------------------------ aborting loop because EDIFF is reached ----------------------------------------




--------------------------------------------------------------------------------------------------------



  FREE ENERGIE OF THE ION-ELECTRON SYSTEM (eV)
  ---------------------------------------------------
  free  energy   TOTEN  =      -221.84283979 eV

  energy  without entropy=     -221.84106323  energy(sigma->0) =     -221.84195151
 


--------------------------------------------------------------------------------------------------------


    POTLOK:  cpu time    0.7517: real time    0.7572


--------------------------------------------------------------------------------------------------------


 writing wavefunctions
     LOOP+:  cpu time 1005.8935: real time 1014.5775
    4ORBIT:  cpu time    0.0000: real time    0.0000

 total amount of memory used by VASP MPI-rank0   419838. kBytes
=======================================================================

   base      :      30000. kBytes
   nonl-proj :     146686. kBytes
   fftplans  :      14375. kBytes
   grid      :      11100. kBytes
   one-center:         93. kBytes
   wavefun   :     217584. kBytes
 
  
  
 General timing and accounting informations for this job:
 ========================================================
  
                  Total CPU time used (sec):     1011.396
                            User time (sec):     1007.278
                          System time (sec):        4.118
                         Elapsed time (sec):     1020.927
  
                   Maximum memory used (kb):      583040.
                   Average memory used (kb):          N/A
  
                          Minor page faults:      1660170
                          Major page faults:           16
                 Voluntary context switches:         1247
