<?xml version="1.0" encoding="ISO-8859-1"?>
<modeling>
 <generator>
  <i name="program" type="string">vasp </i>
  <i name="version" type="string">6.2.0  </i>
  <i name="subversion" type="string">18Jan21 (build Jan 05 2022 15:41:44) complex                          parallel </i>
  <i name="platform" type="string">LinuxIFC </i>
  <i name="date" type="string">2025 05 07 </i>
  <i name="time" type="string">21:31:48 </i>
 </generator>
 <incar>
  <i type="string" name="SYSTEM">routine with relax: pwdword</i>
  <i type="string" name="PREC">Acc</i>
  <i type="int" name="IALGO">    38</i>
  <i type="string" name="ALGO">A</i>
  <i type="logical" name="ADDGRID"> T  </i>
  <i type="int" name="ICHARG">     2</i>
  <i type="int" name="NELM">   100</i>
  <i type="int" name="NELMIN">     6</i>
  <i name="EDIFF">      0.00000000</i>
  <i type="int" name="NSW">     0</i>
  <i type="int" name="ISIF">    -1</i>
  <i name="ENCUT">    600.00000000</i>
  <i type="logical" name="LREAL"> F  </i>
  <i type="int" name="ISMEAR">     0</i>
  <i name="SIGMA">      0.02000000</i>
  <i type="logical" name="LASPH"> T  </i>
  <i type="string" name="METAGGA">R2SCAN</i>
  <i type="logical" name="LMIXTAU"> F  </i>
 </incar>
 <primitive_cell>
  <structure name="primitive_cell" >
   <crystal>
    <varray name="basis" >
     <v>       3.33357300       0.00000000       1.92463900 </v>
     <v>       1.11119100       3.14292400       1.92463900 </v>
     <v>       0.00000000       0.00000000       3.84927800 </v>
    </varray>
    <i name="volume">     40.32952685 </i>
    <varray name="rec_basis" >
     <v>       0.29997843      -0.10605835       0.00000000 </v>
     <v>       0.00000000       0.31817505       0.00000000 </v>
     <v>      -0.14998922      -0.10605835       0.25978898 </v>
    </varray>
   </crystal>
   <varray name="positions" >
    <v>       0.87500000       0.87500000       0.87500000 </v>
    <v>       0.12500000       0.12500000       0.12500000 </v>
   </varray>
  </structure>
  <varray name="primitive_index" >
   <v type="int" >        1 </v>
   <v type="int" >        2 </v>
  </varray>
 </primitive_cell>
 <kpoints>
  <generation param="Gamma">
   <v type="int" name="divisions">      11       11       11 </v>
   <v name="usershift">      0.00000000       0.00000000       0.00000000 </v>
   <v name="genvec1">      0.09090909       0.00000000       0.00000000 </v>
   <v name="genvec2">      0.00000000       0.09090909       0.00000000 </v>
   <v name="genvec3">      0.00000000       0.00000000       0.09090909 </v>
   <v name="shift">      0.00000000       0.00000000       0.00000000 </v>
  </generation>
  <varray name="kpointlist" >
   <v>       0.00000000       0.00000000       0.00000000 </v>
   <v>       0.09090909       0.00000000       0.00000000 </v>
   <v>       0.18181818       0.00000000       0.00000000 </v>
   <v>       0.27272727       0.00000000       0.00000000 </v>
   <v>       0.36363636       0.00000000       0.00000000 </v>
   <v>       0.45454545       0.00000000       0.00000000 </v>
   <v>       0.09090909       0.09090909       0.00000000 </v>
   <v>       0.18181818       0.09090909       0.00000000 </v>
   <v>       0.27272727       0.09090909       0.00000000 </v>
   <v>       0.36363636       0.09090909       0.00000000 </v>
   <v>       0.45454545       0.09090909       0.00000000 </v>
   <v>      -0.45454545       0.09090909       0.00000000 </v>
   <v>      -0.36363636       0.09090909       0.00000000 </v>
   <v>      -0.27272727       0.09090909       0.00000000 </v>
   <v>      -0.18181818       0.09090909       0.00000000 </v>
   <v>      -0.09090909       0.09090909       0.00000000 </v>
   <v>       0.18181818       0.18181818       0.00000000 </v>
   <v>       0.27272727       0.18181818       0.00000000 </v>
   <v>       0.36363636       0.18181818       0.00000000 </v>
   <v>       0.45454545       0.18181818       0.00000000 </v>
   <v>      -0.45454545       0.18181818       0.00000000 </v>
   <v>      -0.36363636       0.18181818       0.00000000 </v>
   <v>      -0.27272727       0.18181818       0.00000000 </v>
   <v>      -0.18181818       0.18181818       0.00000000 </v>
   <v>       0.27272727       0.27272727       0.00000000 </v>
   <v>       0.36363636       0.27272727       0.00000000 </v>
   <v>       0.45454545       0.27272727       0.00000000 </v>
   <v>      -0.45454545       0.27272727       0.00000000 </v>
   <v>      -0.36363636       0.27272727       0.00000000 </v>
   <v>      -0.27272727       0.27272727       0.00000000 </v>
   <v>       0.36363636       0.36363636       0.00000000 </v>
   <v>       0.45454545       0.36363636       0.00000000 </v>
   <v>      -0.45454545       0.36363636       0.00000000 </v>
   <v>      -0.36363636       0.36363636       0.00000000 </v>
   <v>       0.45454545       0.45454545       0.00000000 </v>
   <v>      -0.45454545       0.45454545       0.00000000 </v>
   <v>       0.27272727       0.18181818       0.09090909 </v>
   <v>       0.36363636       0.18181818       0.09090909 </v>
   <v>       0.45454545       0.18181818       0.09090909 </v>
   <v>      -0.45454545       0.18181818       0.09090909 </v>
   <v>       0.36363636       0.27272727       0.09090909 </v>
   <v>       0.45454545       0.27272727       0.09090909 </v>
   <v>      -0.45454545       0.27272727       0.09090909 </v>
   <v>      -0.36363636       0.27272727       0.09090909 </v>
   <v>      -0.27272727       0.27272727       0.09090909 </v>
   <v>      -0.18181818       0.27272727       0.09090909 </v>
   <v>       0.45454545       0.36363636       0.09090909 </v>
   <v>      -0.45454545       0.36363636       0.09090909 </v>
   <v>      -0.36363636       0.36363636       0.09090909 </v>
   <v>      -0.27272727       0.36363636       0.09090909 </v>
   <v>      -0.45454545       0.45454545       0.09090909 </v>
   <v>      -0.36363636       0.45454545       0.09090909 </v>
   <v>      -0.45454545       0.36363636       0.18181818 </v>
   <v>      -0.36363636       0.36363636       0.18181818 </v>
   <v>      -0.36363636       0.45454545       0.18181818 </v>
   <v>      -0.27272727       0.45454545       0.18181818 </v>
  </varray>
  <varray name="weights" >
   <v>       0.00075131 </v>
   <v>       0.00601052 </v>
   <v>       0.00601052 </v>
   <v>       0.00601052 </v>
   <v>       0.00601052 </v>
   <v>       0.00601052 </v>
   <v>       0.00450789 </v>
   <v>       0.01803156 </v>
   <v>       0.01803156 </v>
   <v>       0.01803156 </v>
   <v>       0.01803156 </v>
   <v>       0.01803156 </v>
   <v>       0.01803156 </v>
   <v>       0.01803156 </v>
   <v>       0.01803156 </v>
   <v>       0.00901578 </v>
   <v>       0.00450789 </v>
   <v>       0.01803156 </v>
   <v>       0.01803156 </v>
   <v>       0.01803156 </v>
   <v>       0.01803156 </v>
   <v>       0.01803156 </v>
   <v>       0.01803156 </v>
   <v>       0.00901578 </v>
   <v>       0.00450789 </v>
   <v>       0.01803156 </v>
   <v>       0.01803156 </v>
   <v>       0.01803156 </v>
   <v>       0.01803156 </v>
   <v>       0.00901578 </v>
   <v>       0.00450789 </v>
   <v>       0.01803156 </v>
   <v>       0.01803156 </v>
   <v>       0.00901578 </v>
   <v>       0.00450789 </v>
   <v>       0.00901578 </v>
   <v>       0.01803156 </v>
   <v>       0.03606311 </v>
   <v>       0.03606311 </v>
   <v>       0.03606311 </v>
   <v>       0.01803156 </v>
   <v>       0.03606311 </v>
   <v>       0.03606311 </v>
   <v>       0.03606311 </v>
   <v>       0.03606311 </v>
   <v>       0.01803156 </v>
   <v>       0.01803156 </v>
   <v>       0.03606311 </v>
   <v>       0.03606311 </v>
   <v>       0.01803156 </v>
   <v>       0.01803156 </v>
   <v>       0.01803156 </v>
   <v>       0.01803156 </v>
   <v>       0.03606311 </v>
   <v>       0.01803156 </v>
   <v>       0.01803156 </v>
  </varray>
 </kpoints>
 <parameters>
  <separator name="general" >
   <i type="string" name="SYSTEM">routine with relax: pwdword</i>
   <i type="logical" name="LCOMPAT"> F  </i>
  </separator>
  <separator name="electronic" >
   <i type="string" name="PREC">acc</i>
   <i name="ENMAX">    600.00000000</i>
   <i name="ENAUG">    322.06900000</i>
   <i name="EDIFF">      0.00000000</i>
   <i type="int" name="IALGO">    58</i>
   <i type="int" name="IWAVPR">    10</i>
   <i type="int" name="NBANDS">    12</i>
   <i type="int" name="NBANDSLOW">    -1</i>
   <i type="int" name="NBANDSHIGH">    -1</i>
   <i name="NELECT">      8.00000000</i>
   <i type="int" name="TURBO">     0</i>
   <i type="int" name="IRESTART">     0</i>
   <i type="int" name="NREBOOT">     0</i>
   <i type="int" name="NMIN">     0</i>
   <i name="EREF">      0.00000000</i>
   <separator name="electronic smearing" >
    <i type="int" name="ISMEAR">     0</i>
    <i name="SIGMA">      0.02000000</i>
    <i name="KSPACING">      0.50000000</i>
    <i type="logical" name="KGAMMA"> T  </i>
    <i type="logical" name="KBLOWUP"> T  </i>
   </separator>
   <separator name="electronic projectors" >
    <i type="logical" name="LREAL"> F  </i>
    <v name="ROPT">      0.00000000</v>
    <i type="int" name="LMAXPAW">  -100</i>
    <i type="int" name="LMAXMIX">     2</i>
    <i type="logical" name="NLSPLINE"> F  </i>
   </separator>
   <separator name="electronic startup" >
    <i type="int" name="ISTART">     0</i>
    <i type="int" name="ICHARG">     2</i>
    <i type="int" name="INIWAV">     1</i>
   </separator>
   <separator name="electronic spin" >
    <i type="int" name="ISPIN">     1</i>
    <i type="logical" name="LNONCOLLINEAR"> F  </i>
    <v name="MAGMOM">      1.00000000      1.00000000</v>
    <i name="NUPDOWN">     -1.00000000</i>
    <i type="logical" name="LSORBIT"> F  </i>
    <v name="SAXIS">      0.00000000      0.00000000      1.00000000</v>
    <i type="logical" name="LSPIRAL"> F  </i>
    <v name="QSPIRAL">      0.00000000      0.00000000      0.00000000</v>
    <i type="logical" name="LZEROZ"> F  </i>
   </separator>
   <separator name="electronic exchange-correlation" >
    <i type="logical" name="LASPH"> T  </i>
    <i type="logical" name="LMETAGGA"> F  </i>
   </separator>
   <separator name="electronic convergence" >
    <i type="int" name="NELM">   100</i>
    <i type="int" name="NELMDL">    -5</i>
    <i type="int" name="NELMIN">     6</i>
    <i name="ENINI">    600.00000000</i>
    <separator name="electronic convergence detail" >
     <i type="logical" name="LDIAG"> T  </i>
     <i type="logical" name="LSUBROT"> F  </i>
     <i name="WEIMIN">      0.00000000</i>
     <i name="EBREAK">      0.00000000</i>
     <i name="DEPER">      0.30000000</i>
     <i type="int" name="NRMM">     4</i>
     <i name="TIME">      0.40000000</i>
    </separator>
   </separator>
   <separator name="electronic mixer" >
    <i name="AMIX">      0.40000000</i>
    <i name="BMIX">      1.00000000</i>
    <i name="AMIN">      0.10000000</i>
    <i name="AMIX_MAG">      1.60000000</i>
    <i name="BMIX_MAG">      1.00000000</i>
    <separator name="electronic mixer details" >
     <i type="int" name="IMIX">     4</i>
     <i type="logical" name="MIXFIRST"> F  </i>
     <i type="int" name="MAXMIX">   -45</i>
     <i name="WC">    100.00000000</i>
     <i type="int" name="INIMIX">     1</i>
     <i type="int" name="MIXPRE">     1</i>
     <i type="int" name="MREMOVE">     5</i>
    </separator>
   </separator>
   <separator name="electronic dipolcorrection" >
    <i type="logical" name="LDIPOL"> F  </i>
    <i type="logical" name="LMONO"> F  </i>
    <i type="int" name="IDIPOL">     0</i>
    <i name="EPSILON">      1.00000000</i>
    <v name="DIPOL">   -100.00000000   -100.00000000   -100.00000000</v>
    <i name="EFIELD">      0.00000000</i>
   </separator>
  </separator>
  <separator name="grids" >
   <i type="int" name="NGX">    32</i>
   <i type="int" name="NGY">    32</i>
   <i type="int" name="NGZ">    32</i>
   <i type="int" name="NGXF">    64</i>
   <i type="int" name="NGYF">    64</i>
   <i type="int" name="NGZF">    64</i>
   <i type="logical" name="ADDGRID"> T  </i>
  </separator>
  <separator name="ionic" >
   <i type="int" name="NSW">     0</i>
   <i type="int" name="IBRION">    -1</i>
   <i type="int" name="MDALGO">     0</i>
   <i type="int" name="ISIF">    -1</i>
   <i name="PSTRESS">      0.00000000</i>
   <i name="EDIFFG">      0.00000001</i>
   <i type="int" name="NFREE">     0</i>
   <i name="POTIM">      0.50000000</i>
   <i name="SMASS">     -3.00000000</i>
   <i name="SCALEE">      1.00000000</i>
  </separator>
  <separator name="ionic md" >
   <i name="TEBEG">      0.00010000</i>
   <i name="TEEND">      0.00010000</i>
   <i type="int" name="NBLOCK">     1</i>
   <i type="int" name="KBLOCK">     1</i>
   <i type="int" name="NPACO">   256</i>
   <i name="APACO">     16.00000000</i>
  </separator>
  <separator name="symmetry" >
   <i type="int" name="ISYM">     2</i>
   <i name="SYMPREC">      0.00001000</i>
  </separator>
  <separator name="dos" >
   <i type="int" name="LORBIT">     0</i>
   <v name="RWIGS">     -1.00000000</v>
   <i type="int" name="NEDOS">   301</i>
   <i name="EMIN">     10.00000000</i>
   <i name="EMAX">    -10.00000000</i>
   <i name="EFERMI">      0.00000000</i>
  </separator>
  <separator name="writing" >
   <i type="int" name="NWRITE">     2</i>
   <i type="logical" name="LWAVE"> T  </i>
   <i type="logical" name="LDOWNSAMPLE"> F  </i>
   <i type="logical" name="LCHARG"> T  </i>
   <i type="logical" name="LPARD"> F  </i>
   <i type="logical" name="LVTOT"> F  </i>
   <i type="logical" name="LVHAR"> F  </i>
   <i type="logical" name="LELF"> F  </i>
   <i type="logical" name="LOPTICS"> F  </i>
   <v name="STM">      0.00000000      0.00000000      0.00000000      0.00000000      0.00000000      0.00000000      0.00000000</v>
  </separator>
  <separator name="performance" >
   <i type="int" name="NPAR">     6</i>
   <i type="int" name="NSIM">     4</i>
   <i type="int" name="NBLK">    -1</i>
   <i type="logical" name="LPLANE"> T  </i>
   <i type="logical" name="LSCALAPACK"> T  </i>
   <i type="logical" name="LSCAAWARE"> F  </i>
   <i type="logical" name="LSCALU"> F  </i>
   <i type="logical" name="LASYNC"> F  </i>
   <i type="logical" name="LORBITALREAL"> F  </i>
  </separator>
  <separator name="miscellaneous" >
   <i type="int" name="IDIOT">     3</i>
   <i type="int" name="PHON_NSTRUCT">    -1</i>
   <i type="logical" name="LMUSIC"> F  </i>
   <v name="POMASS">     28.08500000</v>
   <v name="DARWINR">      0.00000000</v>
   <v name="DARWINV">      1.00000000</v>
   <i type="logical" name="LCORR"> T  </i>
  </separator>
  <i type="logical" name="GGA_COMPAT"> T  </i>
  <i type="logical" name="LBERRY"> F  </i>
  <i type="int" name="ICORELEVEL">     0</i>
  <i type="logical" name="LDAU"> F  </i>
  <i type="int" name="I_CONSTRAINED_M">     0</i>
  <separator name="electronic exchange-correlation" >
   <i type="string" name="GGA">--</i>
   <i type="int" name="VOSKOWN">     0</i>
   <i type="logical" name="LHFCALC"> F  </i>
   <i type="string" name="PRECFOCK"></i>
   <i type="logical" name="LSYMGRAD"> F  </i>
   <i type="logical" name="LHFONE"> F  </i>
   <i type="logical" name="LRHFCALC"> F  </i>
   <i type="logical" name="LTHOMAS"> F  </i>
   <i type="logical" name="LMODELHF"> F  </i>
   <i type="logical" name="LFOCKACE"> F  </i>
   <i name="ENCUT4O">     -1.00000000</i>
   <i type="int" name="EXXOEP">     0</i>
   <i type="int" name="FOURORBIT">     0</i>
   <i name="AEXX">      0.00000000</i>
   <i name="HFALPHA">      0.00000000</i>
   <i name="MCALPHA">      0.00000000</i>
   <i name="ALDAX">      1.00000000</i>
   <i name="AGGAX">      1.00000000</i>
   <i name="ALDAC">      1.00000000</i>
   <i name="AGGAC">      1.00000000</i>
   <i type="int" name="NKREDX">     1</i>
   <i type="int" name="NKREDY">     1</i>
   <i type="int" name="NKREDZ">     1</i>
   <i type="logical" name="SHIFTRED"> F  </i>
   <i type="logical" name="ODDONLY"> F  </i>
   <i type="logical" name="EVENONLY"> F  </i>
   <i type="int" name="LMAXFOCK">     0</i>
   <i type="int" name="NMAXFOCKAE">     0</i>
   <i type="logical" name="LFOCKAEDFT"> F  </i>
   <i name="HFSCREEN">      0.00000000</i>
   <i name="HFSCREENC">      0.00000000</i>
   <i type="int" name="NBANDSGWLOW">     0</i>
  </separator>
  <separator name="vdW DFT" >
   <i type="logical" name="LUSE_VDW"> F  </i>
   <i name="Zab_VDW">     -0.84910000</i>
   <i name="PARAM1">      0.12340000</i>
   <i name="PARAM2">      1.00000000</i>
   <i name="PARAM3">      0.00000000</i>
  </separator>
  <separator name="model GW" >
   <i type="int" name="MODEL_GW">     0</i>
   <i name="MODEL_EPS0">     12.09885805</i>
   <i name="MODEL_ALPHA">      1.00000000</i>
  </separator>
  <separator name="linear response parameters" >
   <i type="logical" name="LEPSILON"> F  </i>
   <i type="logical" name="LRPA"> F  </i>
   <i type="logical" name="LNABLA"> F  </i>
   <i type="logical" name="LVEL"> F  </i>
   <i type="int" name="KINTER">     0</i>
   <i name="CSHIFT">      0.10000000</i>
   <i name="OMEGAMAX">     -1.00000000</i>
   <i name="DEG_THRESHOLD">      0.00200000</i>
   <i name="RTIME">     -0.10000000</i>
   <i name="WPLASMAI">      0.00000000</i>
   <v name="DFIELD">      0.00000000      0.00000000      0.00000000</v>
   <v name="WPLASMA">      0.00000000      0.00000000      0.00000000      0.00000000      0.00000000      0.00000000      0.00000000      0.00000000      0.00000000</v>
  </separator>
  <separator name="orbital magnetization" >
   <i type="logical" name="NUCIND"> F  </i>
   <v name="MAGPOS">      0.00000000      0.00000000      0.00000000</v>
   <i type="logical" name="LNICSALL"> T  </i>
   <i type="logical" name="ORBITALMAG"> F  </i>
   <i type="logical" name="LMAGBLOCH"> F  </i>
   <i type="logical" name="LCHIMAG"> F  </i>
   <i type="logical" name="LGAUGE"> T  </i>
   <i type="int" name="MAGATOM">     0</i>
   <v name="MAGDIPOL">      0.00000000      0.00000000      0.00000000</v>
   <v name="AVECCONST">      0.00000000      0.00000000      0.00000000</v>
  </separator>
  <separator name="response functions" >
   <i type="logical" name="LFINITE_TEMPERATURE"> F  </i>
   <i type="logical" name="LADDER"> F  </i>
   <i type="logical" name="LRPAFORCE"> F  </i>
   <i type="logical" name="LFXC"> F  </i>
   <i type="logical" name="LHARTREE"> T  </i>
   <i type="int" name="IBSE">     0</i>
   <v type="int" name="KPOINT">    -1     0     0     0</v>
   <i type="logical" name="LTCTC"> F  </i>
   <i type="logical" name="LTCTE"> F  </i>
   <i type="logical" name="LTETE"> F  </i>
   <i type="logical" name="LTRIPLET"> F  </i>
   <i type="logical" name="LFXCEPS"> F  </i>
   <i type="logical" name="LFXHEG"> F  </i>
   <i type="int" name="NATURALO">     2</i>
   <i type="logical" name="LHOLEGF"> F  </i>
   <i type="logical" name="L2ORDER"> F  </i>
   <i type="logical" name="LDMP1"> F  </i>
   <i type="logical" name="LMP2LT"> F  </i>
   <i type="logical" name="LSMP2LT"> F  </i>
   <i type="logical" name="LGWLF"> F  </i>
   <i name="ENCUTGW">     -2.00000000</i>
   <i name="ENCUTGWSOFT">     -2.00000000</i>
   <i name="ENCUTLF">     -1.00000000</i>
   <i type="logical" name="LESF_SPLINES"> F  </i>
   <i type="int" name="LMAXMP2">    -1</i>
   <i name="SCISSOR">      0.00000000</i>
   <i type="int" name="NOMEGA">     0</i>
   <i type="int" name="NOMEGAR">     0</i>
   <i type="int" name="NBANDSGW">    -1</i>
   <i type="int" name="NBANDSO">    -1</i>
   <i type="int" name="NBANDSV">    -1</i>
   <i type="int" name="NELM">   100</i>
   <i type="int" name="NELMHF">     1</i>
   <i type="int" name="DIM">     3</i>
   <i type="int" name="IESPILON">     4</i>
   <i type="int" name="ANTIRES">     0</i>
   <i name="OMEGAMAX">    -30.00000000</i>
   <i name="OMEGAMIN">    -30.00000000</i>
   <i name="OMEGATL">   -200.00000000</i>
   <i type="int" name="OMEGAGRID">     0</i>
   <i name="CSHIFT">     -0.10000000</i>
   <i type="logical" name="LSELFENERGY"> F  </i>
   <i type="logical" name="LSPECTRAL"> F  </i>
   <i type="logical" name="LSPECTRALGW"> F  </i>
   <i type="logical" name="LSINGLES"> F  </i>
   <i type="logical" name="LFERMIGW"> F  </i>
   <i type="logical" name="ODDONLYGW"> F  </i>
   <i type="logical" name="EVENONLYGW"> F  </i>
   <i type="int" name="NKREDLFX">     1</i>
   <i type="int" name="NKREDLFY">     1</i>
   <i type="int" name="NKREDLFZ">     1</i>
   <i type="int" name="MAXMEM">  2800</i>
   <i type="int" name="TELESCOPE">     0</i>
   <i type="int" name="NTAUPAR">    -1</i>
   <i type="int" name="NOMEGAPAR">    -1</i>
   <i name="DAMP_NEWTON">      0.80000001</i>
   <i name="LAMBDA">      1.00000000</i>
  </separator>
  <separator name="External order field" >
   <i name="OFIELD_KAPPA">      0.00000000</i>
   <v name="OFIELD_K">      0.00000000      0.00000000      0.00000000</v>
   <i name="OFIELD_Q6_NEAR">      0.00000000</i>
   <i name="OFIELD_Q6_FAR">      0.00000000</i>
   <i name="OFIELD_A">      0.00000000</i>
  </separator>
 </parameters>
 <atominfo>
  <atoms>       2 </atoms>
  <types>       1 </types>
  <array name="atoms" >
   <dimension dim="1">ion</dimension>
   <field type="string">element</field>
   <field type="int">atomtype</field>
   <set>
    <rc><c>Si</c><c>   1</c></rc>
    <rc><c>Si</c><c>   1</c></rc>
   </set>
  </array>
  <array name="atomtypes" >
   <dimension dim="1">type</dimension>
   <field type="int">atomspertype</field>
   <field type="string">element</field>
   <field>mass</field>
   <field>valence</field>
   <field type="string">pseudopotential</field>
   <set>
    <rc><c>   2</c><c>Si</c><c>     28.08500000</c><c>      4.00000000</c><c>  PAW_PBE Si 05Jan2001                  </c></rc>
   </set>
  </array>
 </atominfo>
 <structure name="initialpos" >
  <crystal>
   <varray name="basis" >
    <v>       3.33357300       0.00000000       1.92463900 </v>
    <v>       1.11119100       3.14292400       1.92463900 </v>
    <v>       0.00000000       0.00000000       3.84927800 </v>
   </varray>
   <i name="volume">     40.32952685 </i>
   <varray name="rec_basis" >
    <v>       0.29997843      -0.10605835       0.00000000 </v>
    <v>       0.00000000       0.31817505       0.00000000 </v>
    <v>      -0.14998922      -0.10605835       0.25978898 </v>
   </varray>
  </crystal>
  <varray name="positions" >
   <v>       0.87500000       0.87500000       0.87500000 </v>
   <v>       0.12500000       0.12500000       0.12500000 </v>
  </varray>
 </structure>
 <calculation>
  <scstep>
   <time name="total">    0.61    0.61</time>
   <energy>
    <i name="alphaZ">      3.33880741 </i>
    <i name="ewald">   -227.98820643 </i>
    <i name="hartreedc">    -11.11484531 </i>
    <i name="XCdc">     -9.85596437 </i>
    <i name="pawpsdc">    166.52373175 </i>
    <i name="pawaedc">   -144.69240633 </i>
    <i name="eentropy">     -0.00031384 </i>
    <i name="bandstr">     12.73508842 </i>
    <i name="atom">    206.13311910 </i>
    <i name="e_fr_energy">     -4.92098959 </i>
    <i name="e_wo_entrp">     -4.92067575 </i>
    <i name="e_0_energy">     -4.92083267 </i>
   </energy>
  </scstep>
  <scstep>
   <time name="total">    0.49    0.49</time>
   <energy>
    <i name="e_fr_energy">    -18.59261207 </i>
    <i name="e_wo_entrp">    -18.59261207 </i>
    <i name="e_0_energy">    -18.59261207 </i>
   </energy>
  </scstep>
  <scstep>
   <time name="total">    0.43    0.43</time>
   <energy>
    <i name="e_fr_energy">    -18.71686489 </i>
    <i name="e_wo_entrp">    -18.71686489 </i>
    <i name="e_0_energy">    -18.71686489 </i>
   </energy>
  </scstep>
  <scstep>
   <time name="total">    0.57    0.58</time>
   <energy>
    <i name="e_fr_energy">    -18.71721764 </i>
    <i name="e_wo_entrp">    -18.71721764 </i>
    <i name="e_0_energy">    -18.71721764 </i>
   </energy>
  </scstep>
  <scstep>
   <time name="total">    0.56    0.56</time>
   <energy>
    <i name="e_fr_energy">    -18.71721775 </i>
    <i name="e_wo_entrp">    -18.71721775 </i>
    <i name="e_0_energy">    -18.71721775 </i>
   </energy>
  </scstep>
  <scstep>
   <time name="total">    1.02    1.03</time>
   <energy>
    <i name="e_fr_energy">    -17.50180189 </i>
    <i name="e_wo_entrp">    -17.50180189 </i>
    <i name="e_0_energy">    -17.50180189 </i>
   </energy>
  </scstep>
  <scstep>
   <time name="total">    1.03    1.04</time>
   <energy>
    <i name="e_fr_energy">    -17.54186842 </i>
    <i name="e_wo_entrp">    -17.54186842 </i>
    <i name="e_0_energy">    -17.54186842 </i>
   </energy>
  </scstep>
  <scstep>
   <time name="total">    1.04    1.04</time>
   <energy>
    <i name="e_fr_energy">    -17.54820422 </i>
    <i name="e_wo_entrp">    -17.54820422 </i>
    <i name="e_0_energy">    -17.54820422 </i>
   </energy>
  </scstep>
  <scstep>
   <time name="total">    1.04    1.05</time>
   <energy>
    <i name="e_fr_energy">    -17.54964429 </i>
    <i name="e_wo_entrp">    -17.54964429 </i>
    <i name="e_0_energy">    -17.54964429 </i>
   </energy>
  </scstep>
  <scstep>
   <time name="total">    1.04    1.05</time>
   <energy>
    <i name="e_fr_energy">    -17.54983727 </i>
    <i name="e_wo_entrp">    -17.54983727 </i>
    <i name="e_0_energy">    -17.54983727 </i>
   </energy>
  </scstep>
  <scstep>
   <time name="total">    1.05    1.06</time>
   <energy>
    <i name="e_fr_energy">    -17.54985599 </i>
    <i name="e_wo_entrp">    -17.54985599 </i>
    <i name="e_0_energy">    -17.54985599 </i>
   </energy>
  </scstep>
  <scstep>
   <time name="total">    1.02    1.02</time>
   <energy>
    <i name="e_fr_energy">    -17.54985914 </i>
    <i name="e_wo_entrp">    -17.54985914 </i>
    <i name="e_0_energy">    -17.54985914 </i>
   </energy>
  </scstep>
  <scstep>
   <time name="total">    1.04    1.04</time>
   <energy>
    <i name="e_fr_energy">    -17.54985944 </i>
    <i name="e_wo_entrp">    -17.54985944 </i>
    <i name="e_0_energy">    -17.54985944 </i>
   </energy>
  </scstep>
  <scstep>
   <time name="total">    1.01    1.02</time>
   <energy>
    <i name="e_fr_energy">    -17.54985950 </i>
    <i name="e_wo_entrp">    -17.54985950 </i>
    <i name="e_0_energy">    -17.54985950 </i>
   </energy>
  </scstep>
  <scstep>
   <time name="total">    1.03    1.04</time>
   <energy>
    <i name="e_fr_energy">    -17.54985951 </i>
    <i name="e_wo_entrp">    -17.54985951 </i>
    <i name="e_0_energy">    -17.54985951 </i>
   </energy>
  </scstep>
  <scstep>
   <time name="total">    1.03    1.04</time>
   <energy>
    <i name="e_fr_energy">    -17.54985951 </i>
    <i name="e_wo_entrp">    -17.54985951 </i>
    <i name="e_0_energy">    -17.54985951 </i>
   </energy>
  </scstep>
  <scstep>
   <time name="total">    1.03    1.28</time>
   <energy>
    <i name="e_fr_energy">    -17.54985951 </i>
    <i name="e_wo_entrp">    -17.54985951 </i>
    <i name="e_0_energy">    -17.54985951 </i>
   </energy>
  </scstep>
  <scstep>
   <time name="total">    1.03    1.04</time>
   <energy>
    <i name="e_fr_energy">    -17.54985951 </i>
    <i name="e_wo_entrp">    -17.54985951 </i>
    <i name="e_0_energy">    -17.54985951 </i>
   </energy>
  </scstep>
  <scstep>
   <time name="total">    1.03    1.03</time>
   <energy>
    <i name="e_fr_energy">    -17.54985950 </i>
    <i name="e_wo_entrp">    -17.54985950 </i>
    <i name="e_0_energy">    -17.54985950 </i>
   </energy>
  </scstep>
  <scstep>
   <time name="total">    1.06    1.06</time>
   <energy>
    <i name="e_fr_energy">    -17.54985950 </i>
    <i name="e_wo_entrp">    -17.54985950 </i>
    <i name="e_0_energy">    -17.54985950 </i>
   </energy>
  </scstep>
  <scstep>
   <time name="total">    1.06    1.06</time>
   <energy>
    <i name="e_fr_energy">    -17.54985950 </i>
    <i name="e_wo_entrp">    -17.54985950 </i>
    <i name="e_0_energy">    -17.54985950 </i>
   </energy>
  </scstep>
  <scstep>
   <time name="total">    1.03    1.04</time>
   <energy>
    <i name="e_fr_energy">    -17.54985950 </i>
    <i name="e_wo_entrp">    -17.54985950 </i>
    <i name="e_0_energy">    -17.54985950 </i>
   </energy>
  </scstep>
  <scstep>
   <time name="total">    1.03    1.03</time>
   <energy>
    <i name="e_fr_energy">    -17.54985950 </i>
    <i name="e_wo_entrp">    -17.54985950 </i>
    <i name="e_0_energy">    -17.54985950 </i>
   </energy>
  </scstep>
  <scstep>
   <time name="total">    1.15    1.16</time>
   <energy>
    <i name="alphaZ">      3.33880741 </i>
    <i name="ewald">   -227.98820643 </i>
    <i name="hartreedc">    -15.03553271 </i>
    <i name="XCdc">     -8.80731979 </i>
    <i name="pawpsdc">   1494.07742467 </i>
    <i name="pawaedc">  -1472.43965850 </i>
    <i name="eentropy">     -0.00000000 </i>
    <i name="bandstr">      3.17150674 </i>
    <i name="atom">    206.13311910 </i>
    <i name="e_fr_energy">    -17.54985950 </i>
    <i name="e_wo_entrp">    -17.54985950 </i>
    <i name="e_0_energy">    -17.54985950 </i>
   </energy>
  </scstep>
  <structure>
   <crystal>
    <varray name="basis" >
     <v>       3.33357300       0.00000000       1.92463900 </v>
     <v>       1.11119100       3.14292400       1.92463900 </v>
     <v>       0.00000000       0.00000000       3.84927800 </v>
    </varray>
    <i name="volume">     40.32952685 </i>
    <varray name="rec_basis" >
     <v>       0.29997843      -0.10605835       0.00000000 </v>
     <v>       0.00000000       0.31817505       0.00000000 </v>
     <v>      -0.14998922      -0.10605835       0.25978898 </v>
    </varray>
   </crystal>
   <varray name="positions" >
    <v>       0.87500000       0.87500000       0.87500000 </v>
    <v>       0.12500000       0.12500000       0.12500000 </v>
   </varray>
  </structure>
  <varray name="forces" >
   <v>       0.00000000       0.00000000       0.00000000 </v>
   <v>       0.00000000       0.00000000       0.00000000 </v>
  </varray>
  <varray name="stress" >
   <v>       0.00000000       0.00000000       0.00000000 </v>
   <v>       0.00000000       0.00000000       0.00000000 </v>
   <v>       0.00000000       0.00000000       0.00000000 </v>
  </varray>
  <energy>
   <i name="e_fr_energy">    -17.54985950 </i>
   <i name="e_wo_entrp">    -17.54985950 </i>
   <i name="e_0_energy">    -17.54985950 </i>
  </energy>
  <time name="totalsc">   22.88   23.35</time>
  <eigenvalues>
   <array>
    <dimension dim="1">band</dimension>
    <dimension dim="2">kpoint</dimension>
    <dimension dim="3">spin</dimension>
    <field>eigene</field>
    <field>occ</field>
    <set>
     <set comment="spin 1">
      <set comment="kpoint 1">
       <r>   -6.8105    1.0000 </r>
       <r>    5.6648    1.0000 </r>
       <r>    5.6648    1.0000 </r>
       <r>    5.6648    1.0000 </r>
       <r>    8.4200    0.0000 </r>
       <r>    8.4200    0.0000 </r>
       <r>    8.4200    0.0000 </r>
       <r>    9.5654    0.0000 </r>
       <r>   13.7881    0.0000 </r>
       <r>   13.7881    0.0000 </r>
       <r>   14.3353    0.0000 </r>
       <r>   17.6854    0.0000 </r>
      </set>
      <set comment="kpoint 2">
       <r>   -6.6972    1.0000 </r>
       <r>    4.6629    1.0000 </r>
       <r>    5.4890    1.0000 </r>
       <r>    5.4890    1.0000 </r>
       <r>    8.5144    0.0000 </r>
       <r>    8.6797    0.0000 </r>
       <r>    8.6797    0.0000 </r>
       <r>   10.3084    0.0000 </r>
       <r>   13.4844    0.0000 </r>
       <r>   13.4844    0.0000 </r>
       <r>   14.7878    0.0000 </r>
       <r>   17.2878    0.0000 </r>
      </set>
      <set comment="kpoint 3">
       <r>   -6.3618    1.0000 </r>
       <r>    2.9220    1.0000 </r>
       <r>    5.1294    1.0000 </r>
       <r>    5.1294    1.0000 </r>
       <r>    8.2607    0.0000 </r>
       <r>    9.1809    0.0000 </r>
       <r>    9.1809    0.0000 </r>
       <r>   11.9232    0.0000 </r>
       <r>   13.1354    0.0000 </r>
       <r>   13.1354    0.0000 </r>
       <r>   15.5138    0.0000 </r>
       <r>   17.1448    0.0000 </r>
      </set>
      <set comment="kpoint 4">
       <r>   -5.8217    1.0000 </r>
       <r>    1.1880    1.0000 </r>
       <r>    4.7864    1.0000 </r>
       <r>    4.7864    1.0000 </r>
       <r>    7.9301    0.0000 </r>
       <r>    9.4466    0.0000 </r>
       <r>    9.4466    0.0000 </r>
       <r>   13.4514    0.0000 </r>
       <r>   13.4514    0.0000 </r>
       <r>   13.5308    0.0000 </r>
       <r>   15.2736    0.0000 </r>
       <r>   18.7832    0.0000 </r>
      </set>
      <set comment="kpoint 5">
       <r>   -5.1308    1.0000 </r>
       <r>   -0.3357    1.0000 </r>
       <r>    4.5401    1.0000 </r>
       <r>    4.5401    1.0000 </r>
       <r>    7.6743    0.0000 </r>
       <r>    9.3859    0.0000 </r>
       <r>    9.3859    0.0000 </r>
       <r>   14.1605    0.0000 </r>
       <r>   14.5742    0.0000 </r>
       <r>   14.5742    0.0000 </r>
       <r>   15.8937    0.0000 </r>
       <r>   20.5574    0.0000 </r>
      </set>
      <set comment="kpoint 6">
       <r>   -4.4931    1.0000 </r>
       <r>   -1.3981    1.0000 </r>
       <r>    4.4143    1.0000 </r>
       <r>    4.4143    1.0000 </r>
       <r>    7.5397    0.0000 </r>
       <r>    9.2734    0.0000 </r>
       <r>    9.2734    0.0000 </r>
       <r>   14.0194    0.0000 </r>
       <r>   16.1897    0.0000 </r>
       <r>   16.1897    0.0000 </r>
       <r>   17.3773    0.0000 </r>
       <r>   18.3957    0.0000 </r>
      </set>
      <set comment="kpoint 7">
       <r>   -6.6592    1.0000 </r>
       <r>    4.8668    1.0000 </r>
       <r>    5.1482    1.0000 </r>
       <r>    5.1482    1.0000 </r>
       <r>    8.1088    0.0000 </r>
       <r>    9.1268    0.0000 </r>
       <r>    9.1268    0.0000 </r>
       <r>   10.2739    0.0000 </r>
       <r>   12.9307    0.0000 </r>
       <r>   13.9574    0.0000 </r>
       <r>   14.9424    0.0000 </r>
       <r>   17.9457    0.0000 </r>
      </set>
      <set comment="kpoint 8">
       <r>   -6.3970    1.0000 </r>
       <r>    3.4464    1.0000 </r>
       <r>    4.7302    1.0000 </r>
       <r>    4.9389    1.0000 </r>
       <r>    8.1634    0.0000 </r>
       <r>    9.2683    0.0000 </r>
       <r>    9.7551    0.0000 </r>
       <r>   11.0827    0.0000 </r>
       <r>   12.7823    0.0000 </r>
       <r>   13.9317    0.0000 </r>
       <r>   15.7659    0.0000 </r>
       <r>   17.4929    0.0000 </r>
      </set>
      <set comment="kpoint 9">
       <r>   -5.9224    1.0000 </r>
       <r>    1.7506    1.0000 </r>
       <r>    4.3923    1.0000 </r>
       <r>    4.5537    1.0000 </r>
       <r>    8.3443    0.0000 </r>
       <r>    9.2464    0.0000 </r>
       <r>   10.1279    0.0000 </r>
       <r>   11.4219    0.0000 </r>
       <r>   14.0213    0.0000 </r>
       <r>   14.1553    0.0000 </r>
       <r>   15.9182    0.0000 </r>
       <r>   18.2982    0.0000 </r>
      </set>
      <set comment="kpoint 10">
       <r>   -5.2715    1.0000 </r>
       <r>    0.1709    1.0000 </r>
       <r>    4.1544    1.0000 </r>
       <r>    4.1932    1.0000 </r>
       <r>    8.2257    0.0000 </r>
       <r>    9.2598    0.0000 </r>
       <r>   10.0553    0.0000 </r>
       <r>   12.2284    0.0000 </r>
       <r>   15.1332    0.0000 </r>
       <r>   15.1679    0.0000 </r>
       <r>   16.0012    0.0000 </r>
       <r>   20.0103    0.0000 </r>
      </set>
      <set comment="kpoint 11">
       <r>   -4.5711    1.0000 </r>
       <r>   -1.0784    1.0000 </r>
       <r>    3.8409    1.0000 </r>
       <r>    4.1484    1.0000 </r>
       <r>    8.0968    0.0000 </r>
       <r>    9.2105    0.0000 </r>
       <r>    9.8054    0.0000 </r>
       <r>   13.5544    0.0000 </r>
       <r>   15.0494    0.0000 </r>
       <r>   16.6232    0.0000 </r>
       <r>   17.5674    0.0000 </r>
       <r>   18.1621    0.0000 </r>
      </set>
      <set comment="kpoint 12">
       <r>   -4.2894    1.0000 </r>
       <r>   -1.4982    1.0000 </r>
       <r>    3.6534    1.0000 </r>
       <r>    4.2537    1.0000 </r>
       <r>    8.0787    0.0000 </r>
       <r>    9.2641    0.0000 </r>
       <r>    9.6105    0.0000 </r>
       <r>   14.3440    0.0000 </r>
       <r>   15.5898    0.0000 </r>
       <r>   15.8914    0.0000 </r>
       <r>   17.3785    0.0000 </r>
       <r>   18.7672    0.0000 </r>
      </set>
      <set comment="kpoint 13">
       <r>   -4.7944    1.0000 </r>
       <r>   -0.7146    1.0000 </r>
       <r>    3.6146    1.0000 </r>
       <r>    4.4927    1.0000 </r>
       <r>    8.1870    0.0000 </r>
       <r>    9.4594    0.0000 </r>
       <r>    9.5288    0.0000 </r>
       <r>   14.0077    0.0000 </r>
       <r>   14.1568    0.0000 </r>
       <r>   15.4909    0.0000 </r>
       <r>   17.6579    0.0000 </r>
       <r>   18.3310    0.0000 </r>
      </set>
      <set comment="kpoint 14">
       <r>   -5.5053    1.0000 </r>
       <r>    0.6765    1.0000 </r>
       <r>    3.7408    1.0000 </r>
       <r>    4.8347    1.0000 </r>
       <r>    8.4069    0.0000 </r>
       <r>    9.4585    0.0000 </r>
       <r>    9.6810    0.0000 </r>
       <r>   12.8974    0.0000 </r>
       <r>   12.8988    0.0000 </r>
       <r>   15.6699    0.0000 </r>
       <r>   15.9349    0.0000 </r>
       <r>   19.2661    0.0000 </r>
      </set>
      <set comment="kpoint 15">
       <r>   -6.1040    1.0000 </r>
       <r>    2.3005    1.0000 </r>
       <r>    4.0494    1.0000 </r>
       <r>    5.2200    1.0000 </r>
       <r>    8.6964    0.0000 </r>
       <r>    9.1602    0.0000 </r>
       <r>    9.5613    0.0000 </r>
       <r>   12.0042    0.0000 </r>
       <r>   12.4421    0.0000 </r>
       <r>   14.4094    0.0000 </r>
       <r>   16.0683    0.0000 </r>
       <r>   17.7159    0.0000 </r>
      </set>
      <set comment="kpoint 16">
       <r>   -6.5096    1.0000 </r>
       <r>    3.8366    1.0000 </r>
       <r>    4.6339    1.0000 </r>
       <r>    5.5114    1.0000 </r>
       <r>    8.7344    0.0000 </r>
       <r>    8.9097    0.0000 </r>
       <r>    8.9459    0.0000 </r>
       <r>   11.1572    0.0000 </r>
       <r>   12.7850    0.0000 </r>
       <r>   13.6924    0.0000 </r>
       <r>   15.4417    0.0000 </r>
       <r>   17.4606    0.0000 </r>
      </set>
      <set comment="kpoint 17">
       <r>   -6.2082    1.0000 </r>
       <r>    3.3193    1.0000 </r>
       <r>    4.2740    1.0000 </r>
       <r>    4.2740    1.0000 </r>
       <r>    7.4668    0.0000 </r>
       <r>   10.1865    0.0000 </r>
       <r>   10.5608    0.0000 </r>
       <r>   10.5608    0.0000 </r>
       <r>   13.0188    0.0000 </r>
       <r>   14.4647    0.0000 </r>
       <r>   16.4495    0.0000 </r>
       <r>   18.7063    0.0000 </r>
      </set>
      <set comment="kpoint 18">
       <r>   -5.8028    1.0000 </r>
       <r>    2.0945    1.0000 </r>
       <r>    3.8542    1.0000 </r>
       <r>    3.9117    1.0000 </r>
       <r>    7.5272    0.0000 </r>
       <r>    9.7217    0.0000 </r>
       <r>   10.8904    0.0000 </r>
       <r>   11.1810    0.0000 </r>
       <r>   14.3220    0.0000 </r>
       <r>   14.8219    0.0000 </r>
       <r>   17.2145    0.0000 </r>
       <r>   18.6206    0.0000 </r>
      </set>
      <set comment="kpoint 19">
       <r>   -5.2047    1.0000 </r>
       <r>    0.6488    1.0000 </r>
       <r>    3.3122    1.0000 </r>
       <r>    3.7030    1.0000 </r>
       <r>    7.7858    0.0000 </r>
       <r>   10.0850    0.0000 </r>
       <r>   10.7093    0.0000 </r>
       <r>   11.2592    0.0000 </r>
       <r>   15.7124    0.0000 </r>
       <r>   16.1200    0.0000 </r>
       <r>   16.9242    0.0000 </r>
       <r>   19.8017    0.0000 </r>
      </set>
      <set comment="kpoint 20">
       <r>   -4.4926    1.0000 </r>
       <r>   -0.6513    1.0000 </r>
       <r>    2.8182    1.0000 </r>
       <r>    3.6673    1.0000 </r>
       <r>    7.8406    0.0000 </r>
       <r>   10.4906    0.0000 </r>
       <r>   10.9868    0.0000 </r>
       <r>   11.3462    0.0000 </r>
       <r>   16.2618    0.0000 </r>
       <r>   17.1161    0.0000 </r>
       <r>   18.0336    0.0000 </r>
       <r>   18.0705    0.0000 </r>
      </set>
      <set comment="kpoint 21">
       <r>   -3.9878    1.0000 </r>
       <r>   -1.3954    1.0000 </r>
       <r>    2.4675    1.0000 </r>
       <r>    3.8037    1.0000 </r>
       <r>    7.9530    0.0000 </r>
       <r>   10.3584    0.0000 </r>
       <r>   10.6793    0.0000 </r>
       <r>   13.0580    0.0000 </r>
       <r>   15.3982    0.0000 </r>
       <r>   15.7643    0.0000 </r>
       <r>   17.9266    0.0000 </r>
       <r>   19.2070    0.0000 </r>
      </set>
      <set comment="kpoint 22">
       <r>   -4.2862    1.0000 </r>
       <r>   -0.9643    1.0000 </r>
       <r>    2.3057    1.0000 </r>
       <r>    4.0953    1.0000 </r>
       <r>    8.2219    0.0000 </r>
       <r>   10.3428    0.0000 </r>
       <r>   10.4448    0.0000 </r>
       <r>   13.9349    0.0000 </r>
       <r>   13.9742    0.0000 </r>
       <r>   14.9269    0.0000 </r>
       <r>   17.7809    0.0000 </r>
       <r>   20.3703    0.0000 </r>
      </set>
      <set comment="kpoint 23">
       <r>   -4.9894    1.0000 </r>
       <r>    0.2078    1.0000 </r>
       <r>    2.3874    1.0000 </r>
       <r>    4.5023    1.0000 </r>
       <r>    8.6096    0.0000 </r>
       <r>   10.1914    0.0000 </r>
       <r>   10.3814    0.0000 </r>
       <r>   12.5256    0.0000 </r>
       <r>   12.6030    0.0000 </r>
       <r>   16.4733    0.0000 </r>
       <r>   18.3339    0.0000 </r>
       <r>   18.4640    0.0000 </r>
      </set>
      <set comment="kpoint 24">
       <r>   -5.6351    1.0000 </r>
       <r>    1.4593    1.0000 </r>
       <r>    2.8862    1.0000 </r>
       <r>    4.9379    1.0000 </r>
       <r>    8.9577    0.0000 </r>
       <r>    9.6736    0.0000 </r>
       <r>   10.0440    0.0000 </r>
       <r>   11.8136    0.0000 </r>
       <r>   12.1382    0.0000 </r>
       <r>   16.3247    0.0000 </r>
       <r>   17.0642    0.0000 </r>
       <r>   18.0224    0.0000 </r>
      </set>
      <set comment="kpoint 25">
       <r>   -5.4661    1.0000 </r>
       <r>    1.6192    1.0000 </r>
       <r>    3.5138    1.0000 </r>
       <r>    3.5138    1.0000 </r>
       <r>    6.8731    0.0000 </r>
       <r>    8.7682    0.0000 </r>
       <r>   12.2278    0.0000 </r>
       <r>   12.2278    0.0000 </r>
       <r>   14.8774    0.0000 </r>
       <r>   15.3086    0.0000 </r>
       <r>   18.3667    0.0000 </r>
       <r>   19.7663    0.0000 </r>
      </set>
      <set comment="kpoint 26">
       <r>   -4.9279    1.0000 </r>
       <r>    0.6112    1.0000 </r>
       <r>    2.9664    1.0000 </r>
       <r>    3.2693    1.0000 </r>
       <r>    7.0117    0.0000 </r>
       <r>    8.4618    0.0000 </r>
       <r>   12.5687    0.0000 </r>
       <r>   12.7162    0.0000 </r>
       <r>   16.1154    0.0000 </r>
       <r>   16.3946    0.0000 </r>
       <r>   18.5589    0.0000 </r>
       <r>   19.8208    0.0000 </r>
      </set>
      <set comment="kpoint 27">
       <r>   -4.2367    1.0000 </r>
       <r>   -0.4748    1.0000 </r>
       <r>    2.2235    1.0000 </r>
       <r>    3.2037    1.0000 </r>
       <r>    7.2285    0.0000 </r>
       <r>    9.2365    0.0000 </r>
       <r>   12.4295    0.0000 </r>
       <r>   12.5610    0.0000 </r>
       <r>   17.4577    0.0000 </r>
       <r>   17.5485    0.0000 </r>
       <r>   18.0636    0.0000 </r>
       <r>   18.3870    0.0000 </r>
      </set>
      <set comment="kpoint 28">
       <r>   -3.5932    1.0000 </r>
       <r>   -1.3191    1.0000 </r>
       <r>    1.6323    1.0000 </r>
       <r>    3.3210    1.0000 </r>
       <r>    7.3742    0.0000 </r>
       <r>   10.7731    0.0000 </r>
       <r>   12.2123    0.0000 </r>
       <r>   12.2726    0.0000 </r>
       <r>   15.8177    0.0000 </r>
       <r>   15.8403    0.0000 </r>
       <r>   19.5827    0.0000 </r>
       <r>   19.5968    0.0000 </r>
      </set>
      <set comment="kpoint 29">
       <r>   -3.6524    1.0000 </r>
       <r>   -1.2359    1.0000 </r>
       <r>    1.3359    1.0000 </r>
       <r>    3.6089    1.0000 </r>
       <r>    7.6781    0.0000 </r>
       <r>   11.8472    0.0000 </r>
       <r>   11.9096    0.0000 </r>
       <r>   12.8969    0.0000 </r>
       <r>   13.9485    0.0000 </r>
       <r>   14.0620    0.0000 </r>
       <r>   19.5378    0.0000 </r>
       <r>   21.8315    0.0000 </r>
      </set>
      <set comment="kpoint 30">
       <r>   -4.3178    1.0000 </r>
       <r>   -0.4378    1.0000 </r>
       <r>    1.5025    1.0000 </r>
       <r>    4.0312    1.0000 </r>
       <r>    8.1425    0.0000 </r>
       <r>   11.2211    0.0000 </r>
       <r>   11.6209    0.0000 </r>
       <r>   12.6178    0.0000 </r>
       <r>   12.7842    0.0000 </r>
       <r>   14.9609    0.0000 </r>
       <r>   19.4793    0.0000 </r>
       <r>   20.2678    0.0000 </r>
      </set>
      <set comment="kpoint 31">
       <r>   -4.4490    1.0000 </r>
       <r>   -0.0845    1.0000 </r>
       <r>    2.9799    1.0000 </r>
       <r>    2.9799    1.0000 </r>
       <r>    6.5140    0.0000 </r>
       <r>    7.5828    0.0000 </r>
       <r>   14.0021    0.0000 </r>
       <r>   14.0021    0.0000 </r>
       <r>   16.4864    0.0000 </r>
       <r>   16.9213    0.0000 </r>
       <r>   19.6544    0.0000 </r>
       <r>   19.6546    0.0000 </r>
      </set>
      <set comment="kpoint 32">
       <r>   -3.7965    1.0000 </r>
       <r>   -0.9430    1.0000 </r>
       <r>    2.4364    1.0000 </r>
       <r>    2.8688    1.0000 </r>
       <r>    6.7315    0.0000 </r>
       <r>    7.5908    0.0000 </r>
       <r>   14.3374    0.0000 </r>
       <r>   14.3807    0.0000 </r>
       <r>   17.7302    0.0000 </r>
       <r>   17.9951    0.0000 </r>
       <r>   18.1390    0.0000 </r>
       <r>   18.5267    0.0000 </r>
      </set>
      <set comment="kpoint 33">
       <r>   -3.0892    1.0000 </r>
       <r>   -1.6982    1.0000 </r>
       <r>    1.6399    1.0000 </r>
       <r>    2.9451    1.0000 </r>
       <r>    6.9135    0.0000 </r>
       <r>    8.8154    0.0000 </r>
       <r>   14.0311    0.0000 </r>
       <r>   14.2593    0.0000 </r>
       <r>   16.0427    0.0000 </r>
       <r>   16.1014    0.0000 </r>
       <r>   19.7118    0.0000 </r>
       <r>   20.3219    0.0000 </r>
      </set>
      <set comment="kpoint 34">
       <r>   -3.0224    1.0000 </r>
       <r>   -1.7326    1.0000 </r>
       <r>    1.1408    1.0000 </r>
       <r>    3.2014    1.0000 </r>
       <r>    7.2031    0.0000 </r>
       <r>   10.6115    0.0000 </r>
       <r>   13.3281    0.0000 </r>
       <r>   13.9203    0.0000 </r>
       <r>   14.2742    0.0000 </r>
       <r>   14.4164    0.0000 </r>
       <r>   21.3613    0.0000 </r>
       <r>   21.6405    0.0000 </r>
      </set>
      <set comment="kpoint 35">
       <r>   -3.1833    1.0000 </r>
       <r>   -1.7094    1.0000 </r>
       <r>    2.7070    1.0000 </r>
       <r>    2.7070    1.0000 </r>
       <r>    6.4781    0.0000 </r>
       <r>    6.8209    0.0000 </r>
       <r>   15.8278    0.0000 </r>
       <r>   15.8278    0.0000 </r>
       <r>   17.9252    0.0000 </r>
       <r>   17.9252    0.0000 </r>
       <r>   17.9934    0.0000 </r>
       <r>   18.7984    0.0000 </r>
      </set>
      <set comment="kpoint 36">
       <r>   -2.5051    1.0000 </r>
       <r>   -2.3871    1.0000 </r>
       <r>    2.2625    1.0000 </r>
       <r>    2.7333    1.0000 </r>
       <r>    6.6683    0.0000 </r>
       <r>    7.2644    0.0000 </r>
       <r>   15.7660    0.0000 </r>
       <r>   16.0778    0.0000 </r>
       <r>   16.4511    0.0000 </r>
       <r>   16.5672    0.0000 </r>
       <r>   19.5532    0.0000 </r>
       <r>   19.8742    0.0000 </r>
      </set>
      <set comment="kpoint 37">
       <r>   -6.0637    1.0000 </r>
       <r>    2.5543    1.0000 </r>
       <r>    3.7589    1.0000 </r>
       <r>    4.8067    1.0000 </r>
       <r>    8.2291    0.0000 </r>
       <r>    9.6285    0.0000 </r>
       <r>   10.3533    0.0000 </r>
       <r>   10.8135    0.0000 </r>
       <r>   13.1992    0.0000 </r>
       <r>   14.6166    0.0000 </r>
       <r>   16.6405    0.0000 </r>
       <r>   17.8805    0.0000 </r>
      </set>
      <set comment="kpoint 38">
       <r>   -5.5265    1.0000 </r>
       <r>    1.1687    1.0000 </r>
       <r>    3.1805    1.0000 </r>
       <r>    4.4696    1.0000 </r>
       <r>    8.5769    0.0000 </r>
       <r>    9.5567    0.0000 </r>
       <r>   10.7185    0.0000 </r>
       <r>   10.9196    0.0000 </r>
       <r>   13.7222    0.0000 </r>
       <r>   16.2204    0.0000 </r>
       <r>   16.7467    0.0000 </r>
       <r>   18.7192    0.0000 </r>
      </set>
      <set comment="kpoint 39">
       <r>   -4.8371    1.0000 </r>
       <r>   -0.2412    1.0000 </r>
       <r>    2.9183    1.0000 </r>
       <r>    4.1060    1.0000 </r>
       <r>    8.6473    0.0000 </r>
       <r>    9.3108    0.0000 </r>
       <r>   10.8116    0.0000 </r>
       <r>   11.8218    0.0000 </r>
       <r>   14.8653    0.0000 </r>
       <r>   16.1551    0.0000 </r>
       <r>   18.0719    0.0000 </r>
       <r>   18.3500    0.0000 </r>
      </set>
      <set comment="kpoint 40">
       <r>   -4.1941    1.0000 </r>
       <r>   -1.2699    1.0000 </r>
       <r>    2.8182    1.0000 </r>
       <r>    3.8821    1.0000 </r>
       <r>    8.6469    0.0000 </r>
       <r>    9.0778    0.0000 </r>
       <r>   10.7396    0.0000 </r>
       <r>   13.3721    0.0000 </r>
       <r>   15.0097    0.0000 </r>
       <r>   16.1412    0.0000 </r>
       <r>   17.5682    0.0000 </r>
       <r>   19.0092    0.0000 </r>
      </set>
      <set comment="kpoint 41">
       <r>   -5.3321    1.0000 </r>
       <r>    1.2087    1.0000 </r>
       <r>    3.0093    1.0000 </r>
       <r>    3.7492    1.0000 </r>
       <r>    7.6613    0.0000 </r>
       <r>    9.2927    0.0000 </r>
       <r>   11.0257    0.0000 </r>
       <r>   12.1058    0.0000 </r>
       <r>   14.7251    0.0000 </r>
       <r>   16.3236    0.0000 </r>
       <r>   17.9326    0.0000 </r>
       <r>   18.9089    0.0000 </r>
      </set>
      <set comment="kpoint 42">
       <r>   -4.6848    1.0000 </r>
       <r>    0.0708    1.0000 </r>
       <r>    2.4207    1.0000 </r>
       <r>    3.4210    1.0000 </r>
       <r>    8.0462    0.0000 </r>
       <r>    9.7085    0.0000 </r>
       <r>   10.7109    0.0000 </r>
       <r>   12.5241    0.0000 </r>
       <r>   15.6099    0.0000 </r>
       <r>   17.0909    0.0000 </r>
       <r>   18.3342    0.0000 </r>
       <r>   18.9324    0.0000 </r>
      </set>
      <set comment="kpoint 43">
       <r>   -3.9797    1.0000 </r>
       <r>   -0.9912    1.0000 </r>
       <r>    2.0264    1.0000 </r>
       <r>    3.2569    1.0000 </r>
       <r>    8.1938    0.0000 </r>
       <r>   10.2765    0.0000 </r>
       <r>   11.1565    0.0000 </r>
       <r>   12.4848    0.0000 </r>
       <r>   15.3022    0.0000 </r>
       <r>   17.0275    0.0000 </r>
       <r>   18.1413    0.0000 </r>
       <r>   19.4867    0.0000 </r>
      </set>
      <set comment="kpoint 44">
       <r>   -3.7006    1.0000 </r>
       <r>   -1.3580    1.0000 </r>
       <r>    1.7877    1.0000 </r>
       <r>    3.3509    1.0000 </r>
       <r>    8.4197    0.0000 </r>
       <r>   10.0043    0.0000 </r>
       <r>   12.3613    0.0000 </r>
       <r>   12.9130    0.0000 </r>
       <r>   13.4450    0.0000 </r>
       <r>   16.3238    0.0000 </r>
       <r>   18.6032    0.0000 </r>
       <r>   19.5381    0.0000 </r>
      </set>
      <set comment="kpoint 45">
       <r>   -4.2311    1.0000 </r>
       <r>   -0.6340    1.0000 </r>
       <r>    1.7739    1.0000 </r>
       <r>    3.6609    1.0000 </r>
       <r>    8.7997    0.0000 </r>
       <r>    9.7969    0.0000 </r>
       <r>   11.6402    0.0000 </r>
       <r>   12.2734    0.0000 </r>
       <r>   14.7074    0.0000 </r>
       <r>   15.0409    0.0000 </r>
       <r>   18.8245    0.0000 </r>
       <r>   20.6795    0.0000 </r>
      </set>
      <set comment="kpoint 46">
       <r>   -4.9390    1.0000 </r>
       <r>    0.3981    1.0000 </r>
       <r>    2.1633    1.0000 </r>
       <r>    4.0949    1.0000 </r>
       <r>    9.2630    0.0000 </r>
       <r>    9.3491    0.0000 </r>
       <r>   10.7031    0.0000 </r>
       <r>   11.8020    0.0000 </r>
       <r>   13.7317    0.0000 </r>
       <r>   16.8433    0.0000 </r>
       <r>   18.4516    0.0000 </r>
       <r>   18.8610    0.0000 </r>
      </set>
      <set comment="kpoint 47">
       <r>   -4.3347    1.0000 </r>
       <r>   -0.2301    1.0000 </r>
       <r>    2.5093    1.0000 </r>
       <r>    2.9082    1.0000 </r>
       <r>    7.3000    0.0000 </r>
       <r>    8.2047    0.0000 </r>
       <r>   12.4859    0.0000 </r>
       <r>   13.9641    0.0000 </r>
       <r>   16.4290    0.0000 </r>
       <r>   17.6588    0.0000 </r>
       <r>   18.3019    0.0000 </r>
       <r>   19.7262    0.0000 </r>
      </set>
      <set comment="kpoint 48">
       <r>   -3.6207    1.0000 </r>
       <r>   -1.0970    1.0000 </r>
       <r>    1.8499    1.0000 </r>
       <r>    2.7249    1.0000 </r>
       <r>    7.6660    0.0000 </r>
       <r>    9.0442    0.0000 </r>
       <r>   12.1191    0.0000 </r>
       <r>   14.3628    0.0000 </r>
       <r>   15.5833    0.0000 </r>
       <r>   17.5646    0.0000 </r>
       <r>   18.4985    0.0000 </r>
       <r>   20.4135    0.0000 </r>
      </set>
      <set comment="kpoint 49">
       <r>   -3.1288    1.0000 </r>
       <r>   -1.6224    1.0000 </r>
       <r>    1.3119    1.0000 </r>
       <r>    2.8471    1.0000 </r>
       <r>    7.8927    0.0000 </r>
       <r>   10.6748    0.0000 </r>
       <r>   11.8102    0.0000 </r>
       <r>   13.4997    0.0000 </r>
       <r>   14.2843    0.0000 </r>
       <r>   16.4480    0.0000 </r>
       <r>   19.5913    0.0000 </r>
       <r>   20.8027    0.0000 </r>
      </set>
      <set comment="kpoint 50">
       <r>   -3.5349    1.0000 </r>
       <r>   -1.2015    1.0000 </r>
       <r>    1.2049    1.0000 </r>
       <r>    3.1851    1.0000 </r>
       <r>    8.2807    0.0000 </r>
       <r>   11.1105    0.0000 </r>
       <r>   11.9207    0.0000 </r>
       <r>   12.8358    0.0000 </r>
       <r>   13.7827    0.0000 </r>
       <r>   15.0223    0.0000 </r>
       <r>   20.6276    0.0000 </r>
       <r>   21.1618    0.0000 </r>
      </set>
      <set comment="kpoint 51">
       <r>   -3.1065    1.0000 </r>
       <r>   -1.7069    1.0000 </r>
       <r>    2.3053    1.0000 </r>
       <r>    2.4284    1.0000 </r>
       <r>    7.2351    0.0000 </r>
       <r>    7.5222    0.0000 </r>
       <r>   14.1067    0.0000 </r>
       <r>   15.6701    0.0000 </r>
       <r>   16.1437    0.0000 </r>
       <r>   17.7519    0.0000 </r>
       <r>   18.4726    0.0000 </r>
       <r>   20.0722    0.0000 </r>
      </set>
      <set comment="kpoint 52">
       <r>   -2.5762    1.0000 </r>
       <r>   -2.1775    1.0000 </r>
       <r>    1.6299    1.0000 </r>
       <r>    2.5060    1.0000 </r>
       <r>    7.5311    0.0000 </r>
       <r>    8.8267    0.0000 </r>
       <r>   13.6255    0.0000 </r>
       <r>   13.8755    0.0000 </r>
       <r>   16.0205    0.0000 </r>
       <r>   16.6851    0.0000 </r>
       <r>   19.4713    0.0000 </r>
       <r>   20.3023    0.0000 </r>
      </set>
      <set comment="kpoint 53">
       <r>   -4.0095    1.0000 </r>
       <r>   -0.6470    1.0000 </r>
       <r>    1.7347    1.0000 </r>
       <r>    2.9424    1.0000 </r>
       <r>    9.0230    0.0000 </r>
       <r>    9.6925    0.0000 </r>
       <r>   10.3404    0.0000 </r>
       <r>   13.8473    0.0000 </r>
       <r>   15.2223    0.0000 </r>
       <r>   15.8060    0.0000 </r>
       <r>   20.0026    0.0000 </r>
       <r>   20.5400    0.0000 </r>
      </set>
      <set comment="kpoint 54">
       <r>   -3.3435    1.0000 </r>
       <r>   -1.3845    1.0000 </r>
       <r>    1.4450    1.0000 </r>
       <r>    2.6101    1.0000 </r>
       <r>    9.4062    0.0000 </r>
       <r>    9.8070    0.0000 </r>
       <r>   11.1458    0.0000 </r>
       <r>   13.1096    0.0000 </r>
       <r>   14.3383    0.0000 </r>
       <r>   17.0097    0.0000 </r>
       <r>   19.0214    0.0000 </r>
       <r>   20.5053    0.0000 </r>
      </set>
      <set comment="kpoint 55">
       <r>   -2.9118    1.0000 </r>
       <r>   -1.7534    1.0000 </r>
       <r>    1.6786    1.0000 </r>
       <r>    2.0720    1.0000 </r>
       <r>    8.9422    0.0000 </r>
       <r>    9.1624    0.0000 </r>
       <r>   11.6925    0.0000 </r>
       <r>   13.3638    0.0000 </r>
       <r>   15.9239    0.0000 </r>
       <r>   17.4692    0.0000 </r>
       <r>   18.8941    0.0000 </r>
       <r>   20.2913    0.0000 </r>
      </set>
      <set comment="kpoint 56">
       <r>   -2.7021    1.0000 </r>
       <r>   -1.9270    1.0000 </r>
       <r>    1.3901    1.0000 </r>
       <r>    2.1114    1.0000 </r>
       <r>    9.3061    0.0000 </r>
       <r>   10.6256    0.0000 </r>
       <r>   11.4597    0.0000 </r>
       <r>   11.4769    0.0000 </r>
       <r>   15.9494    0.0000 </r>
       <r>   17.0974    0.0000 </r>
       <r>   19.2259    0.0000 </r>
       <r>   20.4705    0.0000 </r>
      </set>
     </set>
    </set>
   </array>
  </eigenvalues>
  <separator name="orbital magnetization" >
   <v name="MAGDIPOLOUT">      0.00000000      0.00000000      0.00000000</v>
  </separator>
  <dos>
   <i name="efermi">      5.83674012 </i>
   <total>
    <array>
     <dimension dim="1">gridpoints</dimension>
     <dimension dim="2">spin</dimension>
     <field>energy</field>
     <field>total</field>
     <field>integrated</field>
     <set>
      <set comment="spin 1">
       <r>    -8.2426     0.0000     0.0000 </r>
       <r>    -8.1376     0.0000     0.0000 </r>
       <r>    -8.0326     0.0000     0.0000 </r>
       <r>    -7.9275     0.0000     0.0000 </r>
       <r>    -7.8225     0.0000     0.0000 </r>
       <r>    -7.7175     0.0000     0.0000 </r>
       <r>    -7.6125     0.0000     0.0000 </r>
       <r>    -7.5074     0.0000     0.0000 </r>
       <r>    -7.4024     0.0000     0.0000 </r>
       <r>    -7.2974     0.0000     0.0000 </r>
       <r>    -7.1924     0.0000     0.0000 </r>
       <r>    -7.0874     0.0000     0.0000 </r>
       <r>    -6.9823     0.0000     0.0000 </r>
       <r>    -6.8773     0.0000     0.0000 </r>
       <r>    -6.7723     0.0143     0.0015 </r>
       <r>    -6.6673     0.1370     0.0159 </r>
       <r>    -6.5623     0.0634     0.0225 </r>
       <r>    -6.4572     0.1717     0.0406 </r>
       <r>    -6.3522     0.4291     0.0856 </r>
       <r>    -6.2472     0.0290     0.0887 </r>
       <r>    -6.1422     0.0868     0.0978 </r>
       <r>    -6.0372     0.6752     0.1687 </r>
       <r>    -5.9321     0.0949     0.1787 </r>
       <r>    -5.8271     0.3135     0.2116 </r>
       <r>    -5.7221     0.4031     0.2539 </r>
       <r>    -5.6171     0.1544     0.2702 </r>
       <r>    -5.5121     0.7077     0.3445 </r>
       <r>    -5.4070     0.4256     0.3892 </r>
       <r>    -5.3020     0.3429     0.4252 </r>
       <r>    -5.1970     0.5864     0.4868 </r>
       <r>    -5.0920     0.2150     0.5094 </r>
       <r>    -4.9870     0.1961     0.5299 </r>
       <r>    -4.8819     0.8348     0.6176 </r>
       <r>    -4.7769     0.9926     0.7219 </r>
       <r>    -4.6719     0.6005     0.7849 </r>
       <r>    -4.5669     0.3359     0.8202 </r>
       <r>    -4.4618     0.5979     0.8830 </r>
       <r>    -4.3568     0.0975     0.8932 </r>
       <r>    -4.2518     1.2752     1.0271 </r>
       <r>    -4.1468     1.6228     1.1976 </r>
       <r>    -4.0418     0.0042     1.1980 </r>
       <r>    -3.9367     1.3688     1.3418 </r>
       <r>    -3.8317     0.0031     1.3421 </r>
       <r>    -3.7267     0.3634     1.3802 </r>
       <r>    -3.6217     1.3356     1.5205 </r>
       <r>    -3.5167     1.0118     1.6268 </r>
       <r>    -3.4116     0.0340     1.6304 </r>
       <r>    -3.3066     0.6837     1.7022 </r>
       <r>    -3.2016     0.0115     1.7034 </r>
       <r>    -3.0966     1.1197     1.8210 </r>
       <r>    -2.9916     0.5005     1.8735 </r>
       <r>    -2.8865     0.3332     1.9085 </r>
       <r>    -2.7815     0.0127     1.9098 </r>
       <r>    -2.6765     0.3313     1.9446 </r>
       <r>    -2.5715     0.2285     1.9686 </r>
       <r>    -2.4665     0.2982     1.9999 </r>
       <r>    -2.3614     0.1662     2.0174 </r>
       <r>    -2.2564     0.0060     2.0180 </r>
       <r>    -2.1514     0.3322     2.0529 </r>
       <r>    -2.0464     0.0112     2.0541 </r>
       <r>    -1.9414     0.0534     2.0597 </r>
       <r>    -1.8363     0.2900     2.0902 </r>
       <r>    -1.7313     0.4379     2.1361 </r>
       <r>    -1.6263     1.1192     2.2537 </r>
       <r>    -1.5213     0.4350     2.2994 </r>
       <r>    -1.4162     0.3698     2.3382 </r>
       <r>    -1.3112     2.0323     2.5516 </r>
       <r>    -1.2062     1.2491     2.6828 </r>
       <r>    -1.1012     0.5039     2.7357 </r>
       <r>    -0.9962     1.0029     2.8411 </r>
       <r>    -0.8911     1.1198     2.9587 </r>
       <r>    -0.7861     0.0000     2.9587 </r>
       <r>    -0.6811     0.3493     2.9954 </r>
       <r>    -0.5761     1.3676     3.1390 </r>
       <r>    -0.4711     0.2092     3.1610 </r>
       <r>    -0.3660     0.3077     3.1933 </r>
       <r>    -0.2610     0.1732     3.2115 </r>
       <r>    -0.1560     0.9696     3.3133 </r>
       <r>    -0.0510     0.0851     3.3222 </r>
       <r>     0.0540     0.0819     3.3308 </r>
       <r>     0.1591     0.6750     3.4017 </r>
       <r>     0.2641     0.6175     3.4666 </r>
       <r>     0.3691     0.0069     3.4673 </r>
       <r>     0.4741     0.3365     3.5026 </r>
       <r>     0.5791     0.0041     3.5031 </r>
       <r>     0.6842     0.9227     3.6000 </r>
       <r>     0.7892     0.1034     3.6108 </r>
       <r>     0.8942     0.0000     3.6108 </r>
       <r>     0.9992     0.0000     3.6108 </r>
       <r>     1.1042     0.0008     3.6109 </r>
       <r>     1.2093     1.3537     3.7531 </r>
       <r>     1.3143     0.7170     3.8284 </r>
       <r>     1.4193     0.9792     3.9312 </r>
       <r>     1.5243     1.0022     4.0365 </r>
       <r>     1.6293     0.4645     4.0852 </r>
       <r>     1.7344     1.2194     4.2133 </r>
       <r>     1.8394     2.0037     4.4237 </r>
       <r>     1.9444     0.5294     4.4793 </r>
       <r>     2.0494     0.6706     4.5498 </r>
       <r>     2.1545     1.1371     4.6692 </r>
       <r>     2.2595     0.6665     4.7392 </r>
       <r>     2.3645     1.1495     4.8599 </r>
       <r>     2.4695     1.8883     5.0582 </r>
       <r>     2.5745     1.1620     5.1802 </r>
       <r>     2.6796     0.7139     5.2552 </r>
       <r>     2.7846     1.0342     5.3638 </r>
       <r>     2.8896     2.1763     5.5924 </r>
       <r>     2.9946     2.4108     5.8456 </r>
       <r>     3.0996     0.3259     5.8798 </r>
       <r>     3.2047     1.2548     6.0116 </r>
       <r>     3.3097     1.5619     6.1756 </r>
       <r>     3.4147     1.4477     6.3276 </r>
       <r>     3.5197     0.9143     6.4237 </r>
       <r>     3.6247     0.6300     6.4898 </r>
       <r>     3.7298     1.9322     6.6927 </r>
       <r>     3.8348     1.4890     6.8491 </r>
       <r>     3.9398     1.6648     7.0240 </r>
       <r>     4.0448     0.2793     7.0533 </r>
       <r>     4.1498     1.9315     7.2561 </r>
       <r>     4.2549     0.9137     7.3521 </r>
       <r>     4.3599     0.3212     7.3858 </r>
       <r>     4.4649     0.8323     7.4732 </r>
       <r>     4.5699     1.6350     7.6449 </r>
       <r>     4.6749     0.3104     7.6775 </r>
       <r>     4.7800     0.4507     7.7249 </r>
       <r>     4.8850     0.9086     7.8203 </r>
       <r>     4.9900     0.5235     7.8753 </r>
       <r>     5.0950     0.0018     7.8755 </r>
       <r>     5.2001     0.4262     7.9202 </r>
       <r>     5.3051     0.3160     7.9534 </r>
       <r>     5.4101     0.0000     7.9534 </r>
       <r>     5.5151     0.3250     7.9875 </r>
       <r>     5.6201     0.0757     7.9955 </r>
       <r>     5.7252     0.0429     8.0000 </r>
       <r>     5.8302     0.0000     8.0000 </r>
       <r>     5.9352     0.0000     8.0000 </r>
       <r>     6.0402     0.0000     8.0000 </r>
       <r>     6.1452     0.0000     8.0000 </r>
       <r>     6.2503     0.0000     8.0000 </r>
       <r>     6.3553     0.0000     8.0000 </r>
       <r>     6.4603     0.0089     8.0009 </r>
       <r>     6.5653     0.1628     8.0180 </r>
       <r>     6.6703     0.0956     8.0281 </r>
       <r>     6.7754     0.4192     8.0721 </r>
       <r>     6.8804     0.1492     8.0878 </r>
       <r>     6.9854     0.3770     8.1274 </r>
       <r>     7.0904     0.3325     8.1623 </r>
       <r>     7.1954     0.0549     8.1680 </r>
       <r>     7.3005     1.1503     8.2889 </r>
       <r>     7.4055     0.5071     8.3421 </r>
       <r>     7.5105     0.2286     8.3661 </r>
       <r>     7.6155     1.4215     8.5154 </r>
       <r>     7.7205     1.5017     8.6731 </r>
       <r>     7.8256     0.3924     8.7143 </r>
       <r>     7.9306     1.0575     8.8254 </r>
       <r>     8.0356     0.5387     8.8820 </r>
       <r>     8.1406     1.3970     9.0287 </r>
       <r>     8.2457     2.7577     9.3183 </r>
       <r>     8.3507     0.7558     9.3977 </r>
       <r>     8.4557     1.2954     9.5337 </r>
       <r>     8.5607     0.4348     9.5794 </r>
       <r>     8.6657     2.2300     9.8136 </r>
       <r>     8.7708     0.8933     9.9074 </r>
       <r>     8.8758     1.3983    10.0542 </r>
       <r>     8.9808     0.8466    10.1431 </r>
       <r>     9.0858     1.5315    10.3040 </r>
       <r>     9.1908     1.2437    10.4346 </r>
       <r>     9.2959     3.0231    10.7521 </r>
       <r>     9.4009     1.8042    10.9416 </r>
       <r>     9.5059     1.4115    11.0898 </r>
       <r>     9.6109     1.5824    11.2560 </r>
       <r>     9.7159     1.9133    11.4569 </r>
       <r>     9.8210     2.3221    11.7008 </r>
       <r>     9.9260     0.1879    11.7205 </r>
       <r>    10.0310     0.7121    11.7953 </r>
       <r>    10.1360     1.0798    11.9087 </r>
       <r>    10.2410     0.5309    11.9645 </r>
       <r>    10.3461     1.4822    12.1201 </r>
       <r>    10.4511     1.3484    12.2617 </r>
       <r>    10.5561     0.5187    12.3162 </r>
       <r>    10.6611     0.7707    12.3971 </r>
       <r>    10.7661     3.7162    12.7874 </r>
       <r>    10.8712     1.3172    12.9258 </r>
       <r>    10.9762     1.0782    13.0390 </r>
       <r>    11.0812     0.7726    13.1201 </r>
       <r>    11.1862     2.2738    13.3589 </r>
       <r>    11.2913     0.6489    13.4271 </r>
       <r>    11.3963     0.3594    13.4648 </r>
       <r>    11.5013     1.0030    13.5702 </r>
       <r>    11.6063     0.0469    13.5751 </r>
       <r>    11.7113     1.1387    13.6947 </r>
       <r>    11.8164     1.1252    13.8128 </r>
       <r>    11.9214     1.6417    13.9852 </r>
       <r>    12.0264     0.6212    14.0505 </r>
       <r>    12.1314     0.9602    14.1513 </r>
       <r>    12.2364     0.9659    14.2528 </r>
       <r>    12.3415     1.2395    14.3829 </r>
       <r>    12.4465     1.1523    14.5040 </r>
       <r>    12.5515     2.3215    14.7478 </r>
       <r>    12.6565     1.1064    14.8640 </r>
       <r>    12.7615     0.3859    14.9045 </r>
       <r>    12.8666     0.9978    15.0093 </r>
       <r>    12.9716     1.7930    15.1976 </r>
       <r>    13.0766     0.4037    15.2400 </r>
       <r>    13.1816     0.9779    15.3427 </r>
       <r>    13.2866     0.3072    15.3749 </r>
       <r>    13.3917     1.1363    15.4943 </r>
       <r>    13.4967     1.4513    15.6467 </r>
       <r>    13.6017     0.9191    15.7432 </r>
       <r>    13.7067     0.5797    15.8041 </r>
       <r>    13.8117     1.3156    15.9423 </r>
       <r>    13.9168     0.8496    16.0315 </r>
       <r>    14.0218     2.5939    16.3039 </r>
       <r>    14.1268     1.2148    16.4315 </r>
       <r>    14.2318     0.8227    16.5179 </r>
       <r>    14.3368     2.1019    16.7386 </r>
       <r>    14.4419     2.3618    16.9867 </r>
       <r>    14.5469     0.0973    16.9969 </r>
       <r>    14.6519     0.5641    17.0561 </r>
       <r>    14.7569     1.0296    17.1643 </r>
       <r>    14.8620     0.7499    17.2430 </r>
       <r>    14.9670     1.0233    17.3505 </r>
       <r>    15.0720     2.0927    17.5703 </r>
       <r>    15.1770     0.6259    17.6360 </r>
       <r>    15.2820     0.5713    17.6960 </r>
       <r>    15.3871     0.8224    17.7824 </r>
       <r>    15.4921     0.6311    17.8486 </r>
       <r>    15.5971     1.2055    17.9752 </r>
       <r>    15.7021     1.5384    18.1368 </r>
       <r>    15.8071     1.4049    18.2843 </r>
       <r>    15.9122     1.5534    18.4475 </r>
       <r>    16.0172     1.6557    18.6214 </r>
       <r>    16.1222     1.9316    18.8242 </r>
       <r>    16.2272     2.6101    19.0983 </r>
       <r>    16.3322     1.4273    19.2482 </r>
       <r>    16.4373     1.1239    19.3663 </r>
       <r>    16.5423     1.2766    19.5003 </r>
       <r>    16.6473     0.7298    19.5770 </r>
       <r>    16.7523     0.9155    19.6731 </r>
       <r>    16.8573     0.5249    19.7283 </r>
       <r>    16.9624     0.4832    19.7790 </r>
       <r>    17.0674     1.5132    19.9379 </r>
       <r>    17.1724     1.5187    20.0974 </r>
       <r>    17.2774     0.3722    20.1365 </r>
       <r>    17.3824     0.3713    20.1755 </r>
       <r>    17.4875     1.1089    20.2920 </r>
       <r>    17.5925     2.2682    20.5302 </r>
       <r>    17.6975     0.7930    20.6135 </r>
       <r>    17.8025     1.3197    20.7520 </r>
       <r>    17.9076     0.4175    20.7959 </r>
       <r>    18.0126     1.3418    20.9368 </r>
       <r>    18.1176     1.9219    21.1386 </r>
       <r>    18.2226     1.3197    21.2772 </r>
       <r>    18.3276     1.1808    21.4012 </r>
       <r>    18.4327     2.1457    21.6266 </r>
       <r>    18.5377     1.9707    21.8335 </r>
       <r>    18.6427     1.4056    21.9812 </r>
       <r>    18.7477     0.8089    22.0661 </r>
       <r>    18.8527     1.2967    22.2023 </r>
       <r>    18.9578     1.6113    22.3715 </r>
       <r>    19.0628     1.3976    22.5183 </r>
       <r>    19.1678     0.0022    22.5185 </r>
       <r>    19.2728     0.9198    22.6151 </r>
       <r>    19.3778     0.1094    22.6266 </r>
       <r>    19.4829     0.6453    22.6944 </r>
       <r>    19.5879     2.3466    22.9408 </r>
       <r>    19.6929     0.9909    23.0449 </r>
       <r>    19.7979     0.8913    23.1385 </r>
       <r>    19.9029     0.7024    23.2122 </r>
       <r>    20.0080     0.3750    23.2516 </r>
       <r>    20.1130     0.6581    23.3207 </r>
       <r>    20.2180     0.0007    23.3208 </r>
       <r>    20.3230     1.0122    23.4271 </r>
       <r>    20.4280     1.1155    23.5443 </r>
       <r>    20.5331     1.2294    23.6734 </r>
       <r>    20.6381     0.6286    23.7394 </r>
       <r>    20.7431     0.7645    23.8197 </r>
       <r>    20.8481     0.6863    23.8918 </r>
       <r>    20.9532     0.0004    23.8918 </r>
       <r>    21.0582     0.0000    23.8918 </r>
       <r>    21.1632     0.1849    23.9112 </r>
       <r>    21.2682     0.1585    23.9279 </r>
       <r>    21.3732     0.1373    23.9423 </r>
       <r>    21.4783     0.0344    23.9459 </r>
       <r>    21.5833     0.0000    23.9459 </r>
       <r>    21.6883     0.1716    23.9639 </r>
       <r>    21.7933     0.0013    23.9641 </r>
       <r>    21.8983     0.3422    24.0000 </r>
       <r>    22.0034     0.0000    24.0000 </r>
       <r>    22.1084     0.0000    24.0000 </r>
       <r>    22.2134     0.0000    24.0000 </r>
       <r>    22.3184     0.0000    24.0000 </r>
       <r>    22.4234     0.0000    24.0000 </r>
       <r>    22.5285     0.0000    24.0000 </r>
       <r>    22.6335     0.0000    24.0000 </r>
       <r>    22.7385     0.0000    24.0000 </r>
       <r>    22.8435     0.0000    24.0000 </r>
       <r>    22.9485     0.0000    24.0000 </r>
       <r>    23.0536     0.0000    24.0000 </r>
       <r>    23.1586     0.0000    24.0000 </r>
       <r>    23.2636     0.0000    24.0000 </r>
      </set>
     </set>
    </array>
   </total>
  </dos>
 </calculation>
 <structure name="finalpos" >
  <crystal>
   <varray name="basis" >
    <v>       3.33357300       0.00000000       1.92463900 </v>
    <v>       1.11119100       3.14292400       1.92463900 </v>
    <v>       0.00000000       0.00000000       3.84927800 </v>
   </varray>
   <i name="volume">     40.32952685 </i>
   <varray name="rec_basis" >
    <v>       0.29997843      -0.10605835       0.00000000 </v>
    <v>       0.00000000       0.31817505       0.00000000 </v>
    <v>      -0.14998922      -0.10605835       0.25978898 </v>
   </varray>
  </crystal>
  <varray name="positions" >
   <v>       0.87500000       0.87500000       0.87500000 </v>
   <v>       0.12500000       0.12500000       0.12500000 </v>
  </varray>
 </structure>
</modeling>
