 vasp.6.2.0 18Jan21 (build Jan 05 2022 15:41:44) complex                        
  
 executed on             LinuxIFC date 2025.05.07  16:32:08
 running on   24 total cores
 distrk:  each k-point on   12 cores,    2 groups
 distr:  one band on NCORE=   2 cores,    6 groups


--------------------------------------------------------------------------------------------------------


 INCAR:
   SYSTEM = routine with relax: pwdword
   ICHARG = 2
   NPAR = 6
   KPAR = 2
   NCORE = 2
   ADDGRID = T
   PREC = Acc
   ENCUT = 600
   METAGGA = R2SCAN
   LASPH = .TRUE.
   LMIXTAU = .FALSE.
   ALGO = A
   EDIFF = 1E-9
   NELM = 100
   NELMIN = 6
   IALGO = 38
   LREAL = F
   NSW = 0
   ISIF = -1
   ISMEAR = 0
   SIGMA = 0.02

 POTCAR:    PAW_PBE B 06Sep2000                   
 POTCAR:    PAW_PBE Mo_sv 02Feb2006               
 POTCAR:    PAW_PBE Si 05Jan2001                  
 -----------------------------------------------------------------------------
|                                                                             |
|           W    W    AA    RRRRR   N    N  II  N    N   GGGG   !!!           |
|           W    W   A  A   R    R  NN   N  II  NN   N  G    G  !!!           |
|           W    W  A    A  R    R  N N  N  II  N N  N  G       !!!           |
|           W WW W  AAAAAA  RRRRR   N  N N  II  N  N N  G  GGG   !            |
|           WW  WW  A    A  R   R   N   NN  II  N   NN  G    G                |
|           W    W  A    A  R    R  N    N  II  N    N   GGGG   !!!           |
|                                                                             |
|     For optimal performance we recommend to set                             |
|       NCORE = 2 up to number-of-cores-per-socket                            |
|     NCORE specifies how many cores store one orbital (NPAR=cpu/NCORE).      |
|     This setting can greatly improve the performance of VASP for DFT.       |
|     The default, NCORE=1 might be grossly inefficient on modern             |
|     multi-core architectures or massively parallel machines. Do your        |
|     own testing! More info at https://www.vasp.at/wiki/index.php/NCORE      |
|     Unfortunately you need to use the default for GW and RPA                |
|     calculations (for HF NCORE is supported but not extensively tested      |
|     yet).                                                                   |
|                                                                             |
 -----------------------------------------------------------------------------

 POTCAR:    PAW_PBE B 06Sep2000                   
   VRHFIN =B: s2p1                                                                                  
   LEXCH  = PE                                                                                      
   EATOM  =    71.1703 eV,    5.2309 Ry                                                             
                                                                                                    
   TITEL  = PAW_PBE B 06Sep2000                                                                     
   LULTRA =        F    use ultrasoft PP ?                                                          
   IUNSCR =        1    unscreen: 0-lin 1-nonlin 2-no                                               
   RPACOR =    1.200    partial core radius                                                         
   POMASS =   10.811; ZVAL   =    3.000    mass and valenz                                          
   RCORE  =    1.700    outmost cutoff radius                                                       
   RWIGS  =    1.710; RWIGS  =    0.905    wigner-seitz radius (au A)                               
   ENMAX  =  318.614; ENMIN  =  238.960 eV                                                          
   ICORE  =        2    local potential                                                             
   LCOR   =        T    correct aug charges                                                         
   LPAW   =        T    paw PP                                                                      
   EAUG   =  535.514                                                                                
   DEXC   =    0.000                                                                                
   RMAX   =    1.732    core radius for proj-oper                                                   
   RAUG   =    1.300    factor for augmentation sphere                                              
   RDEP   =    1.757    radius for radial grids                                                     
   RDEPT  =    1.436    core radius for aug-charge                                                  
                                                                                                    
   Atomic configuration                                                                             
    4 entries                                                                                       
     n  l   j            E        occ.                                                              
     1  0  0.50      -180.5896   2.0000                                                             
     2  0  0.50        -9.4431   2.0000                                                             
     2  1  0.50        -3.6068   1.0000                                                             
     3  2  1.50        -4.0817   0.0000                                                             
   Description                                                                                      
     l       E           TYP  RCUT    TYP  RCUT                                                     
     0     -9.4430752     23  1.500                                                                 
     0      0.8675899     23  1.500                                                                 
     1     -3.6067955     23  1.700                                                                 
     1      6.1086146     23  1.700                                                                 
     2     -4.0817478      7  1.700                                                                 
  local pseudopotential read in
  partial core-charges read in
  partial kinetic energy density read in
  atomic valenz-charges read in
  non local Contribution for L=           0  read in
    real space projection operators read in
  non local Contribution for L=           0  read in
    real space projection operators read in
  non local Contribution for L=           1  read in
    real space projection operators read in
  non local Contribution for L=           1  read in
    real space projection operators read in
    PAW grid and wavefunctions read in
 
   number of l-projection  operators is LMAX  =           4
   number of lm-projection operators is LMMAX =           8
 
 POTCAR:    PAW_PBE Mo_sv 02Feb2006               
   VRHFIN =Mo: 4p5s4d                                                                               
   LEXCH  = PE                                                                                      
   EATOM  =  1862.2866 eV,  136.8742 Ry                                                             
                                                                                                    
   TITEL  = PAW_PBE Mo_sv 02Feb2006                                                                 
   LULTRA =        F    use ultrasoft PP ?                                                          
   IUNSCR =        1    unscreen: 0-lin 1-nonlin 2-no                                               
   RPACOR =    2.200    partial core radius                                                         
   POMASS =   95.940; ZVAL   =   14.000    mass and valenz                                          
   RCORE  =    2.500    outmost cutoff radius                                                       
   RWIGS  =    2.750; RWIGS  =    1.455    wigner-seitz radius (au A)                               
   ENMAX  =  242.676; ENMIN  =  182.007 eV                                                          
   ICORE  =        3    local potential                                                             
   LCOR   =        T    correct aug charges                                                         
   LPAW   =        T    paw PP                                                                      
   EAUG   =  446.014                                                                                
   DEXC   =    0.000                                                                                
   RMAX   =    2.563    core radius for proj-oper                                                   
   RAUG   =    1.300    factor for augmentation sphere                                              
   RDEP   =    2.641    radius for radial grids                                                     
   RDEPT  =    2.031    core radius for aug-charge                                                  
                                                                                                    
   Atomic configuration                                                                             
   11 entries                                                                                       
     n  l   j            E        occ.                                                              
     1  0  0.50    -19819.0341   2.0000                                                             
     2  0  0.50     -2799.0127   2.0000                                                             
     2  1  1.50     -2502.0276   6.0000                                                             
     3  0  0.50      -476.4449   2.0000                                                             
     3  1  1.50      -379.1496   6.0000                                                             
     3  2  2.50      -220.9367  10.0000                                                             
     4  0  0.50       -64.3378   2.0000                                                             
     5  0  0.50        -4.0862   1.0000                                                             
     4  1  1.50       -38.4773   6.0000                                                             
     4  2  2.50        -3.7535   5.0000                                                             
     4  3  2.50        -1.3606   0.0000                                                             
   Description                                                                                      
     l       E           TYP  RCUT    TYP  RCUT                                                     
     0    -64.3377829     23  2.100                                                                 
     0     -4.0861640     23  2.400                                                                 
     1    -38.4772993     23  2.100                                                                 
     1     13.6058260     23  2.100                                                                 
     2     -3.7534941     23  2.400                                                                 
     2     -5.1140767     23  2.400                                                                 
     3     -4.0817478     23  2.500                                                                 
  local pseudopotential read in
  partial core-charges read in
  partial kinetic energy density read in
  atomic valenz-charges read in
  non local Contribution for L=           0  read in
    real space projection operators read in
  non local Contribution for L=           0  read in
    real space projection operators read in
  non local Contribution for L=           1  read in
    real space projection operators read in
  non local Contribution for L=           1  read in
    real space projection operators read in
  non local Contribution for L=           2  read in
    real space projection operators read in
  non local Contribution for L=           2  read in
    real space projection operators read in
    PAW grid and wavefunctions read in
 
   number of l-projection  operators is LMAX  =           6
   number of lm-projection operators is LMMAX =          18
 
 POTCAR:    PAW_PBE Si 05Jan2001                  
   VRHFIN =Si: s2p2                                                                                 
   LEXCH  = PE                                                                                      
   EATOM  =   103.0669 eV,    7.5752 Ry                                                             
                                                                                                    
   TITEL  = PAW_PBE Si 05Jan2001                                                                    
   LULTRA =        F    use ultrasoft PP ?                                                          
   IUNSCR =        1    unscreen: 0-lin 1-nonlin 2-no                                               
   RPACOR =    1.500    partial core radius                                                         
   POMASS =   28.085; ZVAL   =    4.000    mass and valenz                                          
   RCORE  =    1.900    outmost cutoff radius                                                       
   RWIGS  =    2.480; RWIGS  =    1.312    wigner-seitz radius (au A)                               
   ENMAX  =  245.345; ENMIN  =  184.009 eV                                                          
   ICORE  =        2    local potential                                                             
   LCOR   =        T    correct aug charges                                                         
   LPAW   =        T    paw PP                                                                      
   EAUG   =  322.069                                                                                
   DEXC   =    0.000                                                                                
   RMAX   =    1.950    core radius for proj-oper                                                   
   RAUG   =    1.300    factor for augmentation sphere                                              
   RDEP   =    1.993    radius for radial grids                                                     
   RDEPT  =    1.837    core radius for aug-charge                                                  
                                                                                                    
   Atomic configuration                                                                             
    6 entries                                                                                       
     n  l   j            E        occ.                                                              
     1  0  0.50     -1785.8828   2.0000                                                             
     2  0  0.50      -139.4969   2.0000                                                             
     2  1  1.50       -95.5546   6.0000                                                             
     3  0  0.50       -10.8127   2.0000                                                             
     3  1  0.50        -4.0811   2.0000                                                             
     3  2  1.50        -4.0817   0.0000                                                             
   Description                                                                                      
     l       E           TYP  RCUT    TYP  RCUT                                                     
     0    -10.8127223     23  1.900                                                                 
     0     -7.6451159     23  1.900                                                                 
     1     -4.0811372     23  1.900                                                                 
     1      2.4879257     23  1.900                                                                 
     2     -4.0817478      7  1.900                                                                 
  local pseudopotential read in
  partial core-charges read in
  partial kinetic energy density read in
  atomic valenz-charges read in
  non local Contribution for L=           0  read in
    real space projection operators read in
  non local Contribution for L=           0  read in
    real space projection operators read in
  non local Contribution for L=           1  read in
    real space projection operators read in
  non local Contribution for L=           1  read in
    real space projection operators read in
    PAW grid and wavefunctions read in
 
   number of l-projection  operators is LMAX  =           4
   number of lm-projection operators is LMMAX =           8
 
  PAW_PBE B 06Sep2000                   :
 energy of atom  1       EATOM=  -71.1703
 kinetic energy error for atom=    0.0007 (will be added to EATOM!!)
  PAW_PBE Mo_sv 02Feb2006               :
 energy of atom  2       EATOM=-1862.2866
 kinetic energy error for atom=    0.0041 (will be added to EATOM!!)
  PAW_PBE Si 05Jan2001                  :
 energy of atom  3       EATOM= -103.0669
 kinetic energy error for atom=    0.0003 (will be added to EATOM!!)
 
 
 POSCAR: EA86
  positions in direct lattice
  No initial velocities read in

 METAGGA = R2SCA    LMAXTAU =  6    LMIXTAU =  F

 exchange correlation table for  LEXCH =        8
   RHO(1)=    0.500       N(1)  =     2000
   RHO(2)=  100.500       N(2)  =     4000
 


--------------------------------------------------------------------------------------------------------


 ion  position               nearest neighbor table
   1  0.250  0.250  0.000-   4 2.30   8 2.30  12 2.36  10 2.36   9 2.36  11 2.36
   2  0.750  0.750  0.000-   4 2.30   8 2.30  10 2.36  12 2.36  11 2.36   9 2.36
   3  0.751  0.251  0.002-  11 2.30   9 2.30   8 2.36   4 2.36   7 3.34   6 3.34   7 3.34   6 3.34

   4  0.500  0.500  0.000-   1 2.30   2 2.30   7 2.36   6 2.36   3 2.36   5 2.36  10 3.30  10 3.30
                            12 3.30   9 3.30  12 3.30   9 3.30  11 3.30  11 3.30
   5  0.249  0.749  0.998-  11 2.30   9 2.30   8 2.36   4 2.36   6 3.34   7 3.34   6 3.34   7 3.34

   6  0.251  0.249  0.500-  10 2.30  12 2.30   4 2.36   8 2.36   3 3.34   5 3.34   5 3.34   3 3.34

   7  0.749  0.751  0.500-  10 2.30  12 2.30   8 2.36   4 2.36   3 3.34   5 3.34   3 3.34   5 3.34

   8  0.000  0.000  0.000-   1 2.30   2 2.30   6 2.36   7 2.36   3 2.36   5 2.36  12 3.30  12 3.30
                             9 3.30  10 3.30  10 3.30  11 3.30   9 3.30  11 3.30
   9  0.500  0.000  0.000-   3 2.30   5 2.30   1 2.36   2 2.36   4 3.30   8 3.30   4 3.30   8 3.30

  10  0.000  0.000  0.500-   6 2.30   7 2.30   1 2.36   2 2.36   4 3.30   4 3.30   8 3.30   8 3.30

  11  0.000  0.500  0.000-   3 2.30   5 2.30   1 2.36   2 2.36   4 3.30   8 3.30   8 3.30   4 3.30

  12  0.500  0.500  0.500-   6 2.30   7 2.30   2 2.36   1 2.36   8 3.30   8 3.30   4 3.30   4 3.30

 
  LATTYP: Found a body centered tetragonal cell.
 ALAT       =     6.6880309550
 C/A-ratio  =     1.3785104774
  
  Lattice vectors:
  
 A1 = (   5.7672772952,   0.0000000000,  -3.2176764763)
 A2 = (  -1.9885622350,   5.4136039416,  -3.2176764763)
 A3 = (   0.0000000000,   0.0000000000,   6.6041600000)


Analysis of symmetry for initial positions (statically):
=====================================================================
 Subroutine PRICEL returns:
 Original cell was already a primitive cell.
 

 Routine SETGRP: Setting up the symmetry group for a 
 body centered tetragonal supercell.


 Subroutine GETGRP returns: Found  4 space group operations
 (whereof  2 operations were pure point group operations)
 out of a pool of 16 trial point group operations.


The static configuration has the point symmetry S_2 .
 The point group associated with its full space group is C_2h.


Analysis of symmetry for dynamics (positions and initial velocities):
=====================================================================
 Subroutine PRICEL returns:
 Original cell was already a primitive cell.
 

 Routine SETGRP: Setting up the symmetry group for a 
 body centered tetragonal supercell.


 Subroutine GETGRP returns: Found  4 space group operations
 (whereof  2 operations were pure point group operations)
 out of a pool of 16 trial point group operations.


The dynamic configuration has the point symmetry S_2 .
 The point group associated with its full space group is C_2h.


 Subroutine INISYM returns: Found  4 space group operations
 (whereof  2 operations are pure point group operations),
 and found     1 'primitive' translations


----------------------------------------------------------------------------------------

                                     Primitive cell                                     

  volume of cell :     206.1935

  direct lattice vectors                    reciprocal lattice vectors
     5.767277295  0.000000000 -3.217676476     0.173392044  0.063691558  0.000000000
    -1.988562235  5.413603942 -3.217676476     0.000000000  0.184719830  0.000000000
     0.000000000  0.000000000  6.604160000     0.084480010  0.121030908  0.151419711

  length of vectors
     6.604160000  6.604160000  6.604160000     0.184719830  0.184719830  0.211455153

  position of ions in fractional coordinates (direct lattice)
     0.250000000  0.250000000  0.000000000
     0.750000000  0.750000000  0.000000000
     0.751130000  0.251130000  0.002250000
     0.500000000  0.500000000  0.000000000
     0.248870000  0.748870000  0.997750000
     0.251130000  0.248870000  0.500000000
     0.748870000  0.751130000  0.500000000
     0.000000000  0.000000000  0.000000000
     0.500000000  0.000000000  0.000000000
     0.000000000  0.000000000  0.500000000
     1.000000000  0.500000000  0.000000000
     0.500000000  0.500000000  0.500000000

  ion indices of the primitive-cell ions
   primitive index   ion index
                 1           1
                 2           2
                 3           3
                 4           4
                 5           5
                 6           6
                 7           7
                 8           8
                 9           9
                10          10
                11          11
                12          12

----------------------------------------------------------------------------------------

 
 
 KPOINTS: EA                                      

Automatic generation of k-mesh.
 Grid dimensions read from file:
 generate k-points for:    7    7    8

 Generating k-lattice:

  Cartesian coordinates                     Fractional coordinates (reciprocal lattice)
     0.024770292  0.009098794  0.000000000     0.142857143  0.000000000  0.000000000
     0.000000000  0.026388547  0.000000000     0.000000000  0.142857143  0.000000000
     0.010560001  0.015128863  0.018927464     0.000000000  0.000000000  0.125000000

  Length of vectors
     0.026388547  0.026388547  0.026431894

  Shift w.r.t. Gamma in fractional coordinates (k-lattice)
     0.000000000  0.000000000  0.000000000

 -----------------------------------------------------------------------------
|                                                                             |
|           W    W    AA    RRRRR   N    N  II  N    N   GGGG   !!!           |
|           W    W   A  A   R    R  NN   N  II  NN   N  G    G  !!!           |
|           W    W  A    A  R    R  N N  N  II  N N  N  G       !!!           |
|           W WW W  AAAAAA  RRRRR   N  N N  II  N  N N  G  GGG   !            |
|           WW  WW  A    A  R   R   N   NN  II  N   NN  G    G                |
|           W    W  A    A  R    R  N    N  II  N    N   GGGG   !!!           |
|                                                                             |
|     Your reciprocal lattice and k-lattice belong to different lattice       |
|     classes:                                                                |
|                                                                             |
|        The reciprocal lattice is body-centered tetragonal,                  |
|        whereas your k-lattice is base-centered monoclinic.                  |
|                                                                             |
|     Results are often still useful ...                                      |
|                                                                             |
 -----------------------------------------------------------------------------

 WARNING: IBZKPT: internal override: KBLOWUP is changed to .FALSE.
      ... skipping the blow-up phase ...

 
 Subroutine IBZKPT returns following result:
 ===========================================
 
 Found    116 irreducible k-points:
 
 Following reciprocal coordinates:
            Coordinates               Weight
  0.000000  0.000000  0.000000      1.000000
  0.142857  0.000000  0.000000      4.000000
  0.285714 -0.000000  0.000000      4.000000
  0.428571  0.000000  0.000000      4.000000
  0.142857  0.142857  0.000000      2.000000
  0.285714  0.142857  0.000000      4.000000
  0.428571  0.142857  0.000000      4.000000
 -0.428571  0.142857  0.000000      4.000000
 -0.285714  0.142857  0.000000      4.000000
 -0.142857  0.142857  0.000000      2.000000
  0.285714  0.285714  0.000000      2.000000
  0.428571  0.285714  0.000000      4.000000
 -0.428571  0.285714  0.000000      4.000000
 -0.285714  0.285714  0.000000      2.000000
  0.428571  0.428571  0.000000      2.000000
 -0.428571  0.428571  0.000000      2.000000
 -0.000000  0.000000  0.125000      2.000000
  0.142857  0.000000  0.125000      4.000000
  0.285714  0.000000  0.125000      4.000000
  0.428571  0.000000  0.125000      4.000000
 -0.428571  0.000000  0.125000      4.000000
 -0.285714  0.000000  0.125000      4.000000
 -0.142857  0.000000  0.125000      4.000000
  0.142857  0.142857  0.125000      2.000000
  0.285714  0.142857  0.125000      4.000000
  0.428571  0.142857  0.125000      4.000000
 -0.428571  0.142857  0.125000      4.000000
 -0.285714  0.142857  0.125000      4.000000
 -0.142857  0.142857  0.125000      4.000000
  0.285714  0.285714  0.125000      2.000000
  0.428571  0.285714  0.125000      4.000000
 -0.428571  0.285714  0.125000      4.000000
 -0.285714  0.285714  0.125000      4.000000
 -0.142857  0.285714  0.125000      4.000000
  0.428571  0.428571  0.125000      2.000000
 -0.428571  0.428571  0.125000      4.000000
 -0.285714  0.428571  0.125000      4.000000
 -0.142857  0.428571  0.125000      4.000000
 -0.428571 -0.428571  0.125000      2.000000
 -0.285714 -0.428571  0.125000      4.000000
 -0.142857 -0.428571  0.125000      4.000000
 -0.285714 -0.285714  0.125000      2.000000
 -0.142857 -0.285714  0.125000      4.000000
 -0.142857 -0.142857  0.125000      2.000000
 -0.000000  0.000000  0.250000      2.000000
  0.142857  0.000000  0.250000      4.000000
  0.285714  0.000000  0.250000      4.000000
  0.428571  0.000000  0.250000      4.000000
 -0.428571  0.000000  0.250000      4.000000
 -0.285714  0.000000  0.250000      4.000000
 -0.142857  0.000000  0.250000      4.000000
  0.142857  0.142857  0.250000      2.000000
  0.285714  0.142857  0.250000      4.000000
  0.428571  0.142857  0.250000      4.000000
 -0.428571  0.142857  0.250000      4.000000
 -0.285714  0.142857  0.250000      4.000000
 -0.142857  0.142857  0.250000      4.000000
  0.285714  0.285714  0.250000      2.000000
  0.428571  0.285714  0.250000      4.000000
 -0.428571  0.285714  0.250000      4.000000
 -0.285714  0.285714  0.250000      4.000000
 -0.142857  0.285714  0.250000      4.000000
  0.428571  0.428571  0.250000      2.000000
 -0.428571  0.428571  0.250000      4.000000
 -0.285714  0.428571  0.250000      4.000000
 -0.142857  0.428571  0.250000      4.000000
 -0.428571 -0.428571  0.250000      2.000000
 -0.285714 -0.428571  0.250000      4.000000
 -0.142857 -0.428571  0.250000      4.000000
 -0.285714 -0.285714  0.250000      2.000000
 -0.142857 -0.285714  0.250000      4.000000
 -0.142857 -0.142857  0.250000      2.000000
  0.000000  0.000000  0.375000      2.000000
  0.142857  0.000000  0.375000      4.000000
  0.285714  0.000000  0.375000      4.000000
  0.428571  0.000000  0.375000      4.000000
 -0.428571  0.000000  0.375000      4.000000
 -0.285714  0.000000  0.375000      4.000000
 -0.142857  0.000000  0.375000      4.000000
  0.142857  0.142857  0.375000      2.000000
  0.285714  0.142857  0.375000      4.000000
  0.428571  0.142857  0.375000      4.000000
 -0.428571  0.142857  0.375000      4.000000
 -0.285714  0.142857  0.375000      4.000000
 -0.142857  0.142857  0.375000      4.000000
  0.285714  0.285714  0.375000      2.000000
  0.428571  0.285714  0.375000      4.000000
 -0.428571  0.285714  0.375000      4.000000
 -0.285714  0.285714  0.375000      4.000000
 -0.142857  0.285714  0.375000      4.000000
  0.428571  0.428571  0.375000      2.000000
 -0.428571  0.428571  0.375000      4.000000
 -0.285714  0.428571  0.375000      4.000000
 -0.142857  0.428571  0.375000      4.000000
 -0.428571 -0.428571  0.375000      2.000000
 -0.285714 -0.428571  0.375000      4.000000
 -0.142857 -0.428571  0.375000      4.000000
 -0.285714 -0.285714  0.375000      2.000000
 -0.142857 -0.285714  0.375000      4.000000
 -0.142857 -0.142857  0.375000      2.000000
 -0.000000  0.000000  0.500000      1.000000
  0.142857  0.000000  0.500000      4.000000
  0.285714  0.000000  0.500000      4.000000
  0.428571  0.000000  0.500000      4.000000
  0.142857  0.142857  0.500000      2.000000
  0.285714  0.142857  0.500000      4.000000
  0.428571  0.142857  0.500000      4.000000
 -0.428571  0.142857  0.500000      4.000000
 -0.285714  0.142857  0.500000      4.000000
 -0.142857  0.142857  0.500000      2.000000
  0.285714  0.285714  0.500000      2.000000
  0.428571  0.285714  0.500000      4.000000
 -0.428571  0.285714  0.500000      4.000000
 -0.285714  0.285714  0.500000      2.000000
  0.428571  0.428571  0.500000      2.000000
 -0.428571  0.428571  0.500000      2.000000
 
 Following cartesian coordinates:
            Coordinates               Weight
  0.000000  0.000000  0.000000      1.000000
  0.024770  0.009099  0.000000      4.000000
  0.049541  0.018198  0.000000      4.000000
  0.074311  0.027296  0.000000      4.000000
  0.024770  0.035487  0.000000      2.000000
  0.049541  0.044586  0.000000      4.000000
  0.074311  0.053685  0.000000      4.000000
 -0.074311 -0.000908  0.000000      4.000000
 -0.049541  0.008191  0.000000      4.000000
 -0.024770  0.017290  0.000000      2.000000
  0.049541  0.070975  0.000000      2.000000
  0.074311  0.080073  0.000000      4.000000
 -0.074311  0.025481  0.000000      4.000000
 -0.049541  0.034580  0.000000      2.000000
  0.074311  0.106462  0.000000      2.000000
 -0.074311  0.051869  0.000000      2.000000
  0.010560  0.015129  0.018927      2.000000
  0.035330  0.024228  0.018927      4.000000
  0.060101  0.033326  0.018927      4.000000
  0.084871  0.042425  0.018927      4.000000
 -0.063751 -0.012168  0.018927      4.000000
 -0.038981 -0.003069  0.018927      4.000000
 -0.014210  0.006030  0.018927      4.000000
  0.035330  0.050616  0.018927      2.000000
  0.060101  0.059715  0.018927      4.000000
  0.084871  0.068814  0.018927      4.000000
 -0.063751  0.014221  0.018927      4.000000
 -0.038981  0.023320  0.018927      4.000000
 -0.014210  0.032419  0.018927      4.000000
  0.060101  0.086104  0.018927      2.000000
  0.084871  0.095202  0.018927      4.000000
 -0.063751  0.040610  0.018927      4.000000
 -0.038981  0.049708  0.018927      4.000000
 -0.014210  0.058807  0.018927      4.000000
  0.084871  0.121591  0.018927      2.000000
 -0.063751  0.066998  0.018927      4.000000
 -0.038981  0.076097  0.018927      4.000000
 -0.014210  0.085196  0.018927      4.000000
 -0.063751 -0.091333  0.018927      2.000000
 -0.038981 -0.082234  0.018927      4.000000
 -0.014210 -0.073136  0.018927      4.000000
 -0.038981 -0.055846  0.018927      2.000000
 -0.014210 -0.046747  0.018927      4.000000
 -0.014210 -0.020358  0.018927      2.000000
  0.021120  0.030258  0.037855      2.000000
  0.045890  0.039357  0.037855      4.000000
  0.070661  0.048455  0.037855      4.000000
  0.095431  0.057554  0.037855      4.000000
 -0.053191  0.002961  0.037855      4.000000
 -0.028421  0.012060  0.037855      4.000000
 -0.003650  0.021159  0.037855      4.000000
  0.045890  0.065745  0.037855      2.000000
  0.070661  0.074844  0.037855      4.000000
  0.095431  0.083943  0.037855      4.000000
 -0.053191  0.029350  0.037855      4.000000
 -0.028421  0.038449  0.037855      4.000000
 -0.003650  0.047547  0.037855      4.000000
  0.070661  0.101232  0.037855      2.000000
  0.095431  0.110331  0.037855      4.000000
 -0.053191  0.055738  0.037855      4.000000
 -0.028421  0.064837  0.037855      4.000000
 -0.003650  0.073936  0.037855      4.000000
  0.095431  0.136720  0.037855      2.000000
 -0.053191  0.082127  0.037855      4.000000
 -0.028421  0.091226  0.037855      4.000000
 -0.003650  0.100325  0.037855      4.000000
 -0.053191 -0.076204  0.037855      2.000000
 -0.028421 -0.067106  0.037855      4.000000
 -0.003650 -0.058007  0.037855      4.000000
 -0.028421 -0.040717  0.037855      2.000000
 -0.003650 -0.031618  0.037855      4.000000
 -0.003650 -0.005230  0.037855      2.000000
  0.031680  0.045387  0.056782      2.000000
  0.056450  0.054485  0.056782      4.000000
  0.081221  0.063584  0.056782      4.000000
  0.105991  0.072683  0.056782      4.000000
 -0.042631  0.018090  0.056782      4.000000
 -0.017861  0.027189  0.056782      4.000000
  0.006910  0.036288  0.056782      4.000000
  0.056450  0.080874  0.056782      2.000000
  0.081221  0.089973  0.056782      4.000000
  0.105991  0.099072  0.056782      4.000000
 -0.042631  0.044479  0.056782      4.000000
 -0.017861  0.053578  0.056782      4.000000
  0.006910  0.062676  0.056782      4.000000
  0.081221  0.116361  0.056782      2.000000
  0.105991  0.125460  0.056782      4.000000
 -0.042631  0.070867  0.056782      4.000000
 -0.017861  0.079966  0.056782      4.000000
  0.006910  0.089065  0.056782      4.000000
  0.105991  0.151849  0.056782      2.000000
 -0.042631  0.097256  0.056782      4.000000
 -0.017861  0.106355  0.056782      4.000000
  0.006910  0.115453  0.056782      4.000000
 -0.042631 -0.061075  0.056782      2.000000
 -0.017861 -0.051977  0.056782      4.000000
  0.006910 -0.042878  0.056782      4.000000
 -0.017861 -0.025588  0.056782      2.000000
  0.006910 -0.016489  0.056782      4.000000
  0.006910  0.009899  0.056782      2.000000
  0.042240  0.060515  0.075710      1.000000
  0.067010  0.069614  0.075710      4.000000
  0.091781  0.078713  0.075710      4.000000
  0.116551  0.087812  0.075710      4.000000
  0.067010  0.096003  0.075710      2.000000
  0.091781  0.105102  0.075710      4.000000
  0.116551  0.114200  0.075710      4.000000
 -0.032071  0.059608  0.075710      4.000000
 -0.007301  0.068706  0.075710      4.000000
  0.017470  0.077805  0.075710      2.000000
  0.091781  0.131490  0.075710      2.000000
  0.116551  0.140589  0.075710      4.000000
 -0.032071  0.085996  0.075710      4.000000
 -0.007301  0.095095  0.075710      2.000000
  0.116551  0.166977  0.075710      2.000000
 -0.032071  0.112385  0.075710      2.000000
 


--------------------------------------------------------------------------------------------------------




 Dimension of arrays:
   k-points           NKPTS =    116   k-points in BZ     NKDIM =    116   number of bands    NBANDS=     66
   number of dos      NEDOS =    301   number of ions     NIONS =     12
   non local maximal  LDIM  =      6   non local SUM 2l+1 LMDIM =     18
   total plane-waves  NPLWV = 157464
   max r-space proj   IRMAX =      1   max aug-charges    IRDMAX= 267341
   dimension x,y,z NGX =    54 NGY =   54 NGZ =   54
   dimension x,y,z NGXF=   108 NGYF=  108 NGZF=  108
   support grid    NGXF=   216 NGYF=  216 NGZF=  216
   ions per type =               2   6   4
   NGX,Y,Z   is equivalent  to a cutoff of  13.59, 13.59, 13.59 a.u.
   NGXF,Y,Z  is equivalent  to a cutoff of  27.19, 27.19, 27.19 a.u.

 SYSTEM =  routine with relax: pwdword             
 POSCAR =  EA86                                    

 Startparameter for this run:
   NWRITE =      2    write-flag & timer
   PREC   = acc       normal or accurate (medium, high low for compatibility)
   ISTART =      0    job   : 0-new  1-cont  2-samecut
   ICHARG =      2    charge: 1-file 2-atom 10-const
   ISPIN  =      1    spin polarized calculation?
   LNONCOLLINEAR =      F non collinear calculations
   LSORBIT =      F    spin-orbit coupling
   INIWAV =      1    electr: 0-lowe 1-rand  2-diag
   LASPH  =      T    aspherical Exc in radial PAW
   METAGGA=      F    non-selfconsistent MetaGGA calc.

 Electronic Relaxation 1
   ENCUT  =  600.0 eV  44.10 Ry    6.64 a.u.  13.19 13.19 13.19*2*pi/ulx,y,z
   ENINI  =  600.0     initial cutoff
   ENAUG  =  535.5 eV  augmentation charge cutoff
   NELM   =    100;   NELMIN=  6; NELMDL= -5     # of ELM steps 
   EDIFF  = 0.1E-08   stopping-criterion for ELM
   LREAL  =      F    real-space projection
   NLSPLINE    = F    spline interpolate recip. space projectors
   LCOMPAT=      F    compatible to vasp.4.4
   GGA_COMPAT  = T    GGA compatible to vasp.4.4-vasp.4.6
   LMAXPAW     = -100 max onsite density
   LMAXMIX     =    2 max onsite mixed and CHGCAR
   VOSKOWN=      0    Vosko Wilk Nusair interpolation
   ROPT   =    0.00000   0.00000   0.00000
 Ionic relaxation
   EDIFFG = 0.1E-07   stopping-criterion for IOM
   NSW    =      0    number of steps for IOM
   NBLOCK =      1;   KBLOCK =      1    inner block; outer block 
   IBRION =     -1    ionic relax: 0-MD 1-quasi-New 2-CG
   NFREE  =      0    steps in history (QN), initial steepest desc. (CG)
   ISIF   =     -1    stress and relaxation
   IWAVPR =     10    prediction:  0-non 1-charg 2-wave 3-comb
   ISYM   =      2    0-nonsym 1-usesym 2-fastsym
   LCORR  =      T    Harris-Foulkes like correction to forces

   POTIM  = 0.5000    time-step for ionic-motion
   TEIN   =    0.0    initial temperature
   TEBEG  =    0.0;   TEEND  =   0.0 temperature during run
   SMASS  =  -3.00    Nose mass-parameter (am)
   estimated Nose-frequenzy (Omega)   =  0.10E-29 period in steps = 0.13E+47 mass=  -0.997E-27a.u.
   SCALEE = 1.0000    scale energy and forces
   NPACO  =    256;   APACO  = 16.0  distance and # of slots for P.C.
   PSTRESS=    0.0 pullay stress

  Mass of Ions in am
   POMASS =  10.81 95.94 28.09
  Ionic Valenz
   ZVAL   =   3.00 14.00  4.00
  Atomic Wigner-Seitz radii
   RWIGS  =  -1.00 -1.00 -1.00
  virtual crystal weights 
   VCA    =   1.00  1.00  1.00
   NELECT =     106.0000    total number of electrons
   NUPDOWN=      -1.0000    fix difference up-down

 DOS related values:
   EMIN   =  10.00;   EMAX   =-10.00  energy-range for DOS
   EFERMI =   0.00
   ISMEAR =     0;   SIGMA  =   0.02  broadening in eV -4-tet -1-fermi 0-gaus

 Electronic relaxation 2 (details)
   IALGO  =     58    algorithm
   LDIAG  =      T    sub-space diagonalisation (order eigenvalues)
   LSUBROT=      F    optimize rotation matrix (better conditioning)
   TURBO    =      0    0=normal 1=particle mesh
   IRESTART =      0    0=no restart 2=restart with 2 vectors
   NREBOOT  =      0    no. of reboots
   NMIN     =      0    reboot dimension
   EREF     =   0.00    reference energy to select bands
   IMIX   =      4    mixing-type and parameters
     AMIX     =   0.40;   BMIX     =  1.00
     AMIX_MAG =   1.60;   BMIX_MAG =  1.00
     AMIN     =   0.10
     WC   =   100.;   INIMIX=   1;  MIXPRE=   1;  MAXMIX= -45

 Intra band minimization:
   WEIMIN = 0.0000     energy-eigenvalue tresh-hold
   EBREAK =  0.38E-11  absolut break condition
   DEPER  =   0.30     relativ break condition  

   TIME   =   0.40     timestep for ELM

  volume/ion in A,a.u.               =      17.18       115.96
  Fermi-wavevector in a.u.,A,eV,Ry     =   1.311450  2.478282 23.400684  1.719902
  Thomas-Fermi vector in A             =   2.441911
 
 Write flags
   LWAVE        =      T    write WAVECAR
   LDOWNSAMPLE  =      F    k-point downsampling of WAVECAR
   LCHARG       =      T    write CHGCAR
   LVTOT        =      F    write LOCPOT, total local potential
   LVHAR        =      F    write LOCPOT, Hartree potential only
   LELF         =      F    write electronic localiz. function (ELF)
   LORBIT       =      0    0 simple, 1 ext, 2 COOP (PROOUT), +10 PAW based schemes


 Dipole corrections
   LMONO  =      F    monopole corrections only (constant potential shift)
   LDIPOL =      F    correct potential (dipole corrections)
   IDIPOL =      0    1-x, 2-y, 3-z, 4-all directions 
   EPSILON=  1.0000000 bulk dielectric constant

 Exchange correlation treatment:
   GGA     =    --    GGA type
   LEXCH   =     8    internal setting for exchange type
   VOSKOWN=      0    Vosko Wilk Nusair interpolation
   LHFCALC =     F    Hartree Fock is set to
   LHFONE  =     F    Hartree Fock one center treatment
   AEXX    =    0.0000 exact exchange contribution

 Linear response parameters
   LEPSILON=     F    determine dielectric tensor
   LRPA    =     F    only Hartree local field effects (RPA)
   LNABLA  =     F    use nabla operator in PAW spheres
   LVEL    =     F    velocity operator in full k-point grid
   LINTERFAST=   F  fast interpolation
   KINTER  =     0    interpolate to denser k-point grid
   CSHIFT  =0.1000    complex shift for real part using Kramers Kronig
   OMEGAMAX=  -1.0    maximum frequency
   DEG_THRESHOLD= 0.2000000E-02 threshold for treating states as degnerate
   RTIME   =   -0.100 relaxation time in fs
  (WPLASMAI=    0.000 imaginary part of plasma frequency in eV, 0.658/RTIME)
   DFIELD  = 0.0000000 0.0000000 0.0000000 field for delta impulse in time
 
 Orbital magnetization related:
   ORBITALMAG=     F  switch on orbital magnetization
   LCHIMAG   =     F  perturbation theory with respect to B field
   DQ        =  0.001000  dq finite difference perturbation B field
   LLRAUG    =     F  two centre corrections for induced B field



--------------------------------------------------------------------------------------------------------


 Static calculation
 charge density and potential will be updated during run
 non-spin polarized calculation
 Conjugate gradient for all bands (Freysoldt, et al. PRB 79, 241103 (2009))
 preconditioned conjugated gradient                                        
 perform sub-space diagonalisation
    before iterative eigenvector-optimisation
 modified Broyden-mixing scheme, WC =      100.0
 initial mixing is a Kerker type mixing with AMIX =  0.4000 and BMIX =      1.0000
 Hartree-type preconditioning will be used
 using additional bands           13
 reciprocal scheme for non local part
 use partial core corrections
 no Harris-corrections to forces 
 use gradient corrections 
 use of overlap-Matrix (Vanderbilt PP)
 Gauss-broadening in eV      SIGMA  =   0.02


--------------------------------------------------------------------------------------------------------


  energy-cutoff  :      600.00
  volume of cell :      206.19
      direct lattice vectors                 reciprocal lattice vectors
     5.767277295  0.000000000 -3.217676476     0.173392044  0.063691558  0.000000000
    -1.988562235  5.413603942 -3.217676476     0.000000000  0.184719830  0.000000000
     0.000000000  0.000000000  6.604160000     0.084480010  0.121030908  0.151419711

  length of vectors
     6.604160000  6.604160000  6.604160000     0.184719830  0.184719830  0.211455153


 
 k-points in units of 2pi/SCALE and weight: EA                                      
   0.00000000  0.00000000  0.00000000       0.003
   0.02477029  0.00909879  0.00000000       0.010
   0.04954058  0.01819759  0.00000000       0.010
   0.07431088  0.02729638  0.00000000       0.010
   0.02477029  0.03548734  0.00000000       0.005
   0.04954058  0.04458614  0.00000000       0.010
   0.07431088  0.05368493  0.00000000       0.010
  -0.07431088 -0.00090783  0.00000000       0.010
  -0.04954058  0.00819096  0.00000000       0.010
  -0.02477029  0.01728975  0.00000000       0.005
   0.04954058  0.07097468  0.00000000       0.005
   0.07431088  0.08007348  0.00000000       0.010
  -0.07431088  0.02548071  0.00000000       0.010
  -0.04954058  0.03457951  0.00000000       0.005
   0.07431088  0.10646202  0.00000000       0.005
  -0.07431088  0.05186926  0.00000000       0.005
   0.01056000  0.01512886  0.01892746       0.005
   0.03533029  0.02422766  0.01892746       0.010
   0.06010059  0.03332645  0.01892746       0.010
   0.08487088  0.04242525  0.01892746       0.010
  -0.06375087 -0.01216752  0.01892746       0.010
  -0.03898058 -0.00306872  0.01892746       0.010
  -0.01421029  0.00603007  0.01892746       0.010
   0.03533029  0.05061620  0.01892746       0.005
   0.06010059  0.05971500  0.01892746       0.010
   0.08487088  0.06881379  0.01892746       0.010
  -0.06375087  0.01422103  0.01892746       0.010
  -0.03898058  0.02331982  0.01892746       0.010
  -0.01421029  0.03241862  0.01892746       0.010
   0.06010059  0.08610355  0.01892746       0.005
   0.08487088  0.09520234  0.01892746       0.010
  -0.06375087  0.04060958  0.01892746       0.010
  -0.03898058  0.04970837  0.01892746       0.010
  -0.01421029  0.05880716  0.01892746       0.010
   0.08487088  0.12159089  0.01892746       0.005
  -0.06375087  0.06699812  0.01892746       0.010
  -0.03898058  0.07609692  0.01892746       0.010
  -0.01421029  0.08519571  0.01892746       0.010
  -0.06375087 -0.09133316  0.01892746       0.005
  -0.03898058 -0.08223437  0.01892746       0.010
  -0.01421029 -0.07313557  0.01892746       0.010
  -0.03898058 -0.05584582  0.01892746       0.005
  -0.01421029 -0.04674702  0.01892746       0.010
  -0.01421029 -0.02035848  0.01892746       0.005
   0.02112000  0.03025773  0.03785493       0.005
   0.04589029  0.03935652  0.03785493       0.010
   0.07066059  0.04845532  0.03785493       0.010
   0.09543088  0.05755411  0.03785493       0.010
  -0.05319087  0.00296134  0.03785493       0.010
  -0.02842058  0.01206014  0.03785493       0.010
  -0.00365029  0.02115893  0.03785493       0.010
   0.04589029  0.06574507  0.03785493       0.005
   0.07066059  0.07484386  0.03785493       0.010
   0.09543088  0.08394266  0.03785493       0.010
  -0.05319087  0.02934989  0.03785493       0.010
  -0.02842058  0.03844869  0.03785493       0.010
  -0.00365029  0.04754748  0.03785493       0.010
   0.07066059  0.10123241  0.03785493       0.005
   0.09543088  0.11033120  0.03785493       0.010
  -0.05319087  0.05573844  0.03785493       0.010
  -0.02842058  0.06483723  0.03785493       0.010
  -0.00365029  0.07393603  0.03785493       0.010
   0.09543088  0.13671975  0.03785493       0.005
  -0.05319087  0.08212699  0.03785493       0.010
  -0.02842058  0.09122578  0.03785493       0.010
  -0.00365029  0.10032457  0.03785493       0.010
  -0.05319087 -0.07620430  0.03785493       0.005
  -0.02842058 -0.06710550  0.03785493       0.010
  -0.00365029 -0.05800671  0.03785493       0.010
  -0.02842058 -0.04071696  0.03785493       0.005
  -0.00365029 -0.03161816  0.03785493       0.010
  -0.00365029 -0.00522961  0.03785493       0.005
   0.03168000  0.04538659  0.05678239       0.005
   0.05645030  0.05448538  0.05678239       0.010
   0.08122059  0.06358418  0.05678239       0.010
   0.10599088  0.07268297  0.05678239       0.010
  -0.04263087  0.01809021  0.05678239       0.010
  -0.01786058  0.02718900  0.05678239       0.010
   0.00690971  0.03628780  0.05678239       0.010
   0.05645030  0.08087393  0.05678239       0.005
   0.08122059  0.08997273  0.05678239       0.010
   0.10599088  0.09907152  0.05678239       0.010
  -0.04263087  0.04447876  0.05678239       0.010
  -0.01786058  0.05357755  0.05678239       0.010
   0.00690971  0.06267634  0.05678239       0.010
   0.08122059  0.11636127  0.05678239       0.005
   0.10599088  0.12546007  0.05678239       0.010
  -0.04263087  0.07086730  0.05678239       0.010
  -0.01786058  0.07996610  0.05678239       0.010
   0.00690971  0.08906489  0.05678239       0.010
   0.10599088  0.15184861  0.05678239       0.005
  -0.04263087  0.09725585  0.05678239       0.010
  -0.01786058  0.10635464  0.05678239       0.010
   0.00690971  0.11545344  0.05678239       0.010
  -0.04263087 -0.06107543  0.05678239       0.005
  -0.01786058 -0.05197664  0.05678239       0.010
   0.00690971 -0.04287785  0.05678239       0.010
  -0.01786058 -0.02558809  0.05678239       0.005
   0.00690971 -0.01648930  0.05678239       0.010
   0.00690971  0.00989925  0.05678239       0.005
   0.04224000  0.06051545  0.07570986       0.003
   0.06701030  0.06961425  0.07570986       0.010
   0.09178059  0.07871304  0.07570986       0.010
   0.11655088  0.08781184  0.07570986       0.010
   0.06701030  0.09600280  0.07570986       0.005
   0.09178059  0.10510159  0.07570986       0.010
   0.11655088  0.11420038  0.07570986       0.010
  -0.03207087  0.05960762  0.07570986       0.010
  -0.00730058  0.06870641  0.07570986       0.010
   0.01746971  0.07780521  0.07570986       0.005
   0.09178059  0.13149014  0.07570986       0.005
   0.11655088  0.14058893  0.07570986       0.010
  -0.03207087  0.08599617  0.07570986       0.010
  -0.00730058  0.09509496  0.07570986       0.005
   0.11655088  0.16697748  0.07570986       0.005
  -0.03207087  0.11238471  0.07570986       0.005
 
 k-points in reciprocal lattice and weights: EA                                      
   0.00000000  0.00000000  0.00000000       0.003
   0.14285714  0.00000000  0.00000000       0.010
   0.28571429 -0.00000000  0.00000000       0.010
   0.42857143  0.00000000  0.00000000       0.010
   0.14285714  0.14285714  0.00000000       0.005
   0.28571429  0.14285714  0.00000000       0.010
   0.42857143  0.14285714  0.00000000       0.010
  -0.42857143  0.14285714  0.00000000       0.010
  -0.28571429  0.14285714  0.00000000       0.010
  -0.14285714  0.14285714  0.00000000       0.005
   0.28571429  0.28571429  0.00000000       0.005
   0.42857143  0.28571429  0.00000000       0.010
  -0.42857143  0.28571429  0.00000000       0.010
  -0.28571429  0.28571429  0.00000000       0.005
   0.42857143  0.42857143  0.00000000       0.005
  -0.42857143  0.42857143  0.00000000       0.005
  -0.00000000  0.00000000  0.12500000       0.005
   0.14285714  0.00000000  0.12500000       0.010
   0.28571429  0.00000000  0.12500000       0.010
   0.42857143  0.00000000  0.12500000       0.010
  -0.42857143  0.00000000  0.12500000       0.010
  -0.28571429  0.00000000  0.12500000       0.010
  -0.14285714  0.00000000  0.12500000       0.010
   0.14285714  0.14285714  0.12500000       0.005
   0.28571429  0.14285714  0.12500000       0.010
   0.42857143  0.14285714  0.12500000       0.010
  -0.42857143  0.14285714  0.12500000       0.010
  -0.28571429  0.14285714  0.12500000       0.010
  -0.14285714  0.14285714  0.12500000       0.010
   0.28571429  0.28571429  0.12500000       0.005
   0.42857143  0.28571429  0.12500000       0.010
  -0.42857143  0.28571429  0.12500000       0.010
  -0.28571429  0.28571429  0.12500000       0.010
  -0.14285714  0.28571429  0.12500000       0.010
   0.42857143  0.42857143  0.12500000       0.005
  -0.42857143  0.42857143  0.12500000       0.010
  -0.28571429  0.42857143  0.12500000       0.010
  -0.14285714  0.42857143  0.12500000       0.010
  -0.42857143 -0.42857143  0.12500000       0.005
  -0.28571429 -0.42857143  0.12500000       0.010
  -0.14285714 -0.42857143  0.12500000       0.010
  -0.28571429 -0.28571429  0.12500000       0.005
  -0.14285714 -0.28571429  0.12500000       0.010
  -0.14285714 -0.14285714  0.12500000       0.005
  -0.00000000  0.00000000  0.25000000       0.005
   0.14285714  0.00000000  0.25000000       0.010
   0.28571429  0.00000000  0.25000000       0.010
   0.42857143  0.00000000  0.25000000       0.010
  -0.42857143  0.00000000  0.25000000       0.010
  -0.28571429  0.00000000  0.25000000       0.010
  -0.14285714  0.00000000  0.25000000       0.010
   0.14285714  0.14285714  0.25000000       0.005
   0.28571429  0.14285714  0.25000000       0.010
   0.42857143  0.14285714  0.25000000       0.010
  -0.42857143  0.14285714  0.25000000       0.010
  -0.28571429  0.14285714  0.25000000       0.010
  -0.14285714  0.14285714  0.25000000       0.010
   0.28571429  0.28571429  0.25000000       0.005
   0.42857143  0.28571429  0.25000000       0.010
  -0.42857143  0.28571429  0.25000000       0.010
  -0.28571429  0.28571429  0.25000000       0.010
  -0.14285714  0.28571429  0.25000000       0.010
   0.42857143  0.42857143  0.25000000       0.005
  -0.42857143  0.42857143  0.25000000       0.010
  -0.28571429  0.42857143  0.25000000       0.010
  -0.14285714  0.42857143  0.25000000       0.010
  -0.42857143 -0.42857143  0.25000000       0.005
  -0.28571429 -0.42857143  0.25000000       0.010
  -0.14285714 -0.42857143  0.25000000       0.010
  -0.28571429 -0.28571429  0.25000000       0.005
  -0.14285714 -0.28571429  0.25000000       0.010
  -0.14285714 -0.14285714  0.25000000       0.005
   0.00000000  0.00000000  0.37500000       0.005
   0.14285714  0.00000000  0.37500000       0.010
   0.28571429  0.00000000  0.37500000       0.010
   0.42857143  0.00000000  0.37500000       0.010
  -0.42857143  0.00000000  0.37500000       0.010
  -0.28571429  0.00000000  0.37500000       0.010
  -0.14285714  0.00000000  0.37500000       0.010
   0.14285714  0.14285714  0.37500000       0.005
   0.28571429  0.14285714  0.37500000       0.010
   0.42857143  0.14285714  0.37500000       0.010
  -0.42857143  0.14285714  0.37500000       0.010
  -0.28571429  0.14285714  0.37500000       0.010
  -0.14285714  0.14285714  0.37500000       0.010
   0.28571429  0.28571429  0.37500000       0.005
   0.42857143  0.28571429  0.37500000       0.010
  -0.42857143  0.28571429  0.37500000       0.010
  -0.28571429  0.28571429  0.37500000       0.010
  -0.14285714  0.28571429  0.37500000       0.010
   0.42857143  0.42857143  0.37500000       0.005
  -0.42857143  0.42857143  0.37500000       0.010
  -0.28571429  0.42857143  0.37500000       0.010
  -0.14285714  0.42857143  0.37500000       0.010
  -0.42857143 -0.42857143  0.37500000       0.005
  -0.28571429 -0.42857143  0.37500000       0.010
  -0.14285714 -0.42857143  0.37500000       0.010
  -0.28571429 -0.28571429  0.37500000       0.005
  -0.14285714 -0.28571429  0.37500000       0.010
  -0.14285714 -0.14285714  0.37500000       0.005
  -0.00000000  0.00000000  0.50000000       0.003
   0.14285714  0.00000000  0.50000000       0.010
   0.28571429  0.00000000  0.50000000       0.010
   0.42857143  0.00000000  0.50000000       0.010
   0.14285714  0.14285714  0.50000000       0.005
   0.28571429  0.14285714  0.50000000       0.010
   0.42857143  0.14285714  0.50000000       0.010
  -0.42857143  0.14285714  0.50000000       0.010
  -0.28571429  0.14285714  0.50000000       0.010
  -0.14285714  0.14285714  0.50000000       0.005
   0.28571429  0.28571429  0.50000000       0.005
   0.42857143  0.28571429  0.50000000       0.010
  -0.42857143  0.28571429  0.50000000       0.010
  -0.28571429  0.28571429  0.50000000       0.005
   0.42857143  0.42857143  0.50000000       0.005
  -0.42857143  0.42857143  0.50000000       0.005
 
 position of ions in fractional coordinates (direct lattice) 
   0.25000000  0.25000000  0.00000000
   0.75000000  0.75000000  0.00000000
   0.75113000  0.25113000  0.00225000
   0.50000000  0.50000000  0.00000000
   0.24887000  0.74887000  0.99775000
   0.25113000  0.24887000  0.50000000
   0.74887000  0.75113000  0.50000000
   0.00000000  0.00000000  0.00000000
   0.50000000  0.00000000  0.00000000
   0.00000000  0.00000000  0.50000000
   0.00000000  0.50000000  0.00000000
   0.50000000  0.50000000  0.50000000
 
 position of ions in cartesian coordinates  (Angst):
   0.94467877  1.35340099 -1.60883824
   2.83403630  4.06020296 -4.82651471
   3.83258736  1.35951836 -3.21008907
   1.88935753  2.70680197 -3.21767648
  -0.05387230  4.05408558  3.37889611
   0.95344286  1.34728361  1.69324176
   2.82527220  4.06632033 -1.52443471
   0.00000000  0.00000000  0.00000000
   2.88363865  0.00000000 -1.60883824
   0.00000000  0.00000000  3.30208000
  -0.99428112  2.70680197 -1.60883824
   1.88935753  2.70680197  0.08440352
 


--------------------------------------------------------------------------------------------------------


 k-point   1 :   0.0000 0.0000 0.0000  plane waves:    6863
 k-point   2 :   0.1429 0.0000 0.0000  plane waves:    6866
 k-point   3 :   0.2857-0.0000 0.0000  plane waves:    6887
 k-point   4 :   0.4286 0.0000 0.0000  plane waves:    6884
 k-point   5 :   0.1429 0.1429 0.0000  plane waves:    6888
 k-point   6 :   0.2857 0.1429 0.0000  plane waves:    6877
 k-point   7 :   0.4286 0.1429 0.0000  plane waves:    6888
 k-point   8 :  -0.4286 0.1429 0.0000  plane waves:    6883
 k-point   9 :  -0.2857 0.1429 0.0000  plane waves:    6891
 k-point  10 :  -0.1429 0.1429 0.0000  plane waves:    6887
 k-point  11 :   0.2857 0.2857 0.0000  plane waves:    6891
 k-point  12 :   0.4286 0.2857 0.0000  plane waves:    6875
 k-point  13 :  -0.4286 0.2857 0.0000  plane waves:    6882
 k-point  14 :  -0.2857 0.2857 0.0000  plane waves:    6877
 k-point  15 :   0.4286 0.4286 0.0000  plane waves:    6871
 k-point  16 :  -0.4286 0.4286 0.0000  plane waves:    6883
 k-point  17 :  -0.0000 0.0000 0.1250  plane waves:    6887
 k-point  18 :   0.1429 0.0000 0.1250  plane waves:    6884
 k-point  19 :   0.2857 0.0000 0.1250  plane waves:    6888
 k-point  20 :   0.4286 0.0000 0.1250  plane waves:    6881
 k-point  21 :  -0.4286 0.0000 0.1250  plane waves:    6884
 k-point  22 :  -0.2857 0.0000 0.1250  plane waves:    6885
 k-point  23 :  -0.1429 0.0000 0.1250  plane waves:    6870
 k-point  24 :   0.1429 0.1429 0.1250  plane waves:    6873
 k-point  25 :   0.2857 0.1429 0.1250  plane waves:    6874
 k-point  26 :   0.4286 0.1429 0.1250  plane waves:    6875
 k-point  27 :  -0.4286 0.1429 0.1250  plane waves:    6879
 k-point  28 :  -0.2857 0.1429 0.1250  plane waves:    6890
 k-point  29 :  -0.1429 0.1429 0.1250  plane waves:    6883
 k-point  30 :   0.2857 0.2857 0.1250  plane waves:    6869
 k-point  31 :   0.4286 0.2857 0.1250  plane waves:    6876
 k-point  32 :  -0.4286 0.2857 0.1250  plane waves:    6879
 k-point  33 :  -0.2857 0.2857 0.1250  plane waves:    6890
 k-point  34 :  -0.1429 0.2857 0.1250  plane waves:    6889
 k-point  35 :   0.4286 0.4286 0.1250  plane waves:    6874
 k-point  36 :  -0.4286 0.4286 0.1250  plane waves:    6890
 k-point  37 :  -0.2857 0.4286 0.1250  plane waves:    6887
 k-point  38 :  -0.1429 0.4286 0.1250  plane waves:    6883
 k-point  39 :  -0.4286-0.4286 0.1250  plane waves:    6874
 k-point  40 :  -0.2857-0.4286 0.1250  plane waves:    6887
 k-point  41 :  -0.1429-0.4286 0.1250  plane waves:    6881
 k-point  42 :  -0.2857-0.2857 0.1250  plane waves:    6883
 k-point  43 :  -0.1429-0.2857 0.1250  plane waves:    6881
 k-point  44 :  -0.1429-0.1429 0.1250  plane waves:    6859
 k-point  45 :  -0.0000 0.0000 0.2500  plane waves:    6861
 k-point  46 :   0.1429 0.0000 0.2500  plane waves:    6886
 k-point  47 :   0.2857 0.0000 0.2500  plane waves:    6881
 k-point  48 :   0.4286 0.0000 0.2500  plane waves:    6886
 k-point  49 :  -0.4286 0.0000 0.2500  plane waves:    6878
 k-point  50 :  -0.2857 0.0000 0.2500  plane waves:    6886
 k-point  51 :  -0.1429 0.0000 0.2500  plane waves:    6881
 k-point  52 :   0.1429 0.1429 0.2500  plane waves:    6868
 k-point  53 :   0.2857 0.1429 0.2500  plane waves:    6862
 k-point  54 :   0.4286 0.1429 0.2500  plane waves:    6868
 k-point  55 :  -0.4286 0.1429 0.2500  plane waves:    6891
 k-point  56 :  -0.2857 0.1429 0.2500  plane waves:    6886
 k-point  57 :  -0.1429 0.1429 0.2500  plane waves:    6878
 k-point  58 :   0.2857 0.2857 0.2500  plane waves:    6864
 k-point  59 :   0.4286 0.2857 0.2500  plane waves:    6861
 k-point  60 :  -0.4286 0.2857 0.2500  plane waves:    6886
 k-point  61 :  -0.2857 0.2857 0.2500  plane waves:    6882
 k-point  62 :  -0.1429 0.2857 0.2500  plane waves:    6881
 k-point  63 :   0.4286 0.4286 0.2500  plane waves:    6871
 k-point  64 :  -0.4286 0.4286 0.2500  plane waves:    6866
 k-point  65 :  -0.2857 0.4286 0.2500  plane waves:    6882
 k-point  66 :  -0.1429 0.4286 0.2500  plane waves:    6887
 k-point  67 :  -0.4286-0.4286 0.2500  plane waves:    6888
 k-point  68 :  -0.2857-0.4286 0.2500  plane waves:    6881
 k-point  69 :  -0.1429-0.4286 0.2500  plane waves:    6878
 k-point  70 :  -0.2857-0.2857 0.2500  plane waves:    6881
 k-point  71 :  -0.1429-0.2857 0.2500  plane waves:    6883
 k-point  72 :  -0.1429-0.1429 0.2500  plane waves:    6878
 k-point  73 :   0.0000 0.0000 0.3750  plane waves:    6875
 k-point  74 :   0.1429 0.0000 0.3750  plane waves:    6875
 k-point  75 :   0.2857 0.0000 0.3750  plane waves:    6863
 k-point  76 :   0.4286 0.0000 0.3750  plane waves:    6877
 k-point  77 :  -0.4286 0.0000 0.3750  plane waves:    6879
 k-point  78 :  -0.2857 0.0000 0.3750  plane waves:    6893
 k-point  79 :  -0.1429 0.0000 0.3750  plane waves:    6880
 k-point  80 :   0.1429 0.1429 0.3750  plane waves:    6884
 k-point  81 :   0.2857 0.1429 0.3750  plane waves:    6869
 k-point  82 :   0.4286 0.1429 0.3750  plane waves:    6882
 k-point  83 :  -0.4286 0.1429 0.3750  plane waves:    6884
 k-point  84 :  -0.2857 0.1429 0.3750  plane waves:    6885
 k-point  85 :  -0.1429 0.1429 0.3750  plane waves:    6883
 k-point  86 :   0.2857 0.2857 0.3750  plane waves:    6881
 k-point  87 :   0.4286 0.2857 0.3750  plane waves:    6885
 k-point  88 :  -0.4286 0.2857 0.3750  plane waves:    6884
 k-point  89 :  -0.2857 0.2857 0.3750  plane waves:    6886
 k-point  90 :  -0.1429 0.2857 0.3750  plane waves:    6869
 k-point  91 :   0.4286 0.4286 0.3750  plane waves:    6888
 k-point  92 :  -0.4286 0.4286 0.3750  plane waves:    6909
 k-point  93 :  -0.2857 0.4286 0.3750  plane waves:    6897
 k-point  94 :  -0.1429 0.4286 0.3750  plane waves:    6888
 k-point  95 :  -0.4286-0.4286 0.3750  plane waves:    6908
 k-point  96 :  -0.2857-0.4286 0.3750  plane waves:    6896
 k-point  97 :  -0.1429-0.4286 0.3750  plane waves:    6875
 k-point  98 :  -0.2857-0.2857 0.3750  plane waves:    6884
 k-point  99 :  -0.1429-0.2857 0.3750  plane waves:    6875
 k-point 100 :  -0.1429-0.1429 0.3750  plane waves:    6878
 k-point 101 :  -0.0000 0.0000 0.5000  plane waves:    6902
 k-point 102 :   0.1429 0.0000 0.5000  plane waves:    6877
 k-point 103 :   0.2857 0.0000 0.5000  plane waves:    6884
 k-point 104 :   0.4286 0.0000 0.5000  plane waves:    6881
 k-point 105 :   0.1429 0.1429 0.5000  plane waves:    6867
 k-point 106 :   0.2857 0.1429 0.5000  plane waves:    6883
 k-point 107 :   0.4286 0.1429 0.5000  plane waves:    6876
 k-point 108 :  -0.4286 0.1429 0.5000  plane waves:    6888
 k-point 109 :  -0.2857 0.1429 0.5000  plane waves:    6866
 k-point 110 :  -0.1429 0.1429 0.5000  plane waves:    6870
 k-point 111 :   0.2857 0.2857 0.5000  plane waves:    6888
 k-point 112 :   0.4286 0.2857 0.5000  plane waves:    6884
 k-point 113 :  -0.4286 0.2857 0.5000  plane waves:    6897
 k-point 114 :  -0.2857 0.2857 0.5000  plane waves:    6884
 k-point 115 :   0.4286 0.4286 0.5000  plane waves:    6909
 k-point 116 :  -0.4286 0.4286 0.5000  plane waves:    6912

 maximum and minimum number of plane-waves per node :      3463     3413

 maximum number of plane-waves:      6912
 maximum index in each direction: 
   IXMAX=   13   IYMAX=   13   IZMAX=   13
   IXMIN=  -13   IYMIN=  -13   IZMIN=  -13


 parallel 3D FFT for wavefunctions:
    minimum data exchange during FFTs selected (reduces bandwidth)
 parallel 3D FFT for charge:
    minimum data exchange during FFTs selected (reduces bandwidth)


 total amount of memory used by VASP MPI-rank0   452862. kBytes
=======================================================================

   base      :      30000. kBytes
   nonl-proj :     174454. kBytes
   fftplans  :      17772. kBytes
   grid      :      13358. kBytes
   one-center:         93. kBytes
   wavefun   :     217185. kBytes
 
     INWAV:  cpu time    0.0001: real time    0.0001
 Broyden mixing: mesh for mixing (old mesh)
   NGX = 27   NGY = 27   NGZ = 27
  (NGX  =108   NGY  =108   NGZ  =108)
  gives a total of  19683 points

 initial charge density was supplied:
 charge density of overlapping atoms calculated
 number of electron     106.0000000 magnetization 
 keeping initial charge density in first step


--------------------------------------------------------------------------------------------------------


 Maximum index for augmentation-charges        21763 (set IRDMAX)


--------------------------------------------------------------------------------------------------------


 First call to EWALD:  gamma=   0.300
 Maximum number of real-space cells 3x 3x 3
 Maximum number of reciprocal cells 3x 3x 3

    FEWALD:  cpu time    0.0373: real time    0.0375


--------------------------------------- Iteration      1(   1)  ---------------------------------------


    POTLOK:  cpu time    0.1731: real time    0.1743
    SETDIJ:  cpu time    0.6421: real time    0.6453
    TRIAL :  cpu time   31.7327: real time   31.9724
    CORREC:  cpu time    0.0019: real time    0.0019
    --------------------------------------------
      LOOP:  cpu time   32.6202: real time   32.9239

 eigenvalue-minimisations  : 16356
 total energy-change (2. order) : 0.1035078E+04  (-0.6949722E+04)
 number of electron     106.0000000 magnetization 
 augmentation part      106.0000000 magnetization 

 Free energy of the ion-electron system (eV)
  ---------------------------------------------------
  alpha Z        PSCENC =       446.90332849
  Ewald energy   TEWEN  =     -7859.32337077
  -Hartree energ DENC   =     -3659.79149872
  -exchange      EXHF   =         0.00000000
  -V(xc)+E(xc)   XCENC  =       454.69195161
  PAW double counting   =      9333.50011946    -9270.82734050
  entropy T*S    EENTRO =        -0.00081377
  eigenvalues    EBANDS =      -138.37498171
  atomic energy  EATOM  =     11728.30056431
  ---------------------------------------------------
  free energy    TOTEN  =      1035.07795840 eV

  energy without entropy =     1035.07877217  energy(sigma->0) =     1035.07836528


--------------------------------------------------------------------------------------------------------




--------------------------------------- Iteration      1(   2)  ---------------------------------------


    TRIAL :  cpu time   32.4255: real time   33.2646
    CORREC:  cpu time    0.0018: real time    0.0019
    --------------------------------------------
      LOOP:  cpu time   32.4301: real time   33.2696

 eigenvalue-minimisations  : 17262
 total energy-change (2. order) :-0.1212806E+04  (-0.1186494E+04)
 number of electron     106.0000000 magnetization 
 augmentation part      106.0000000 magnetization 

 Free energy of the ion-electron system (eV)
  ---------------------------------------------------
  alpha Z        PSCENC =       446.90332849
  Ewald energy   TEWEN  =     -7859.32337077
  -Hartree energ DENC   =     -3659.79149872
  -exchange      EXHF   =         0.00000000
  -V(xc)+E(xc)   XCENC  =       454.69195161
  PAW double counting   =      9333.50011946    -9270.82734050
  entropy T*S    EENTRO =        -0.00151951
  eigenvalues    EBANDS =     -1351.18043992
  atomic energy  EATOM  =     11728.30056431
  ---------------------------------------------------
  free energy    TOTEN  =      -177.72820556 eV

  energy without entropy =     -177.72668605  energy(sigma->0) =     -177.72744580


--------------------------------------------------------------------------------------------------------




--------------------------------------- Iteration      1(   3)  ---------------------------------------


    TRIAL :  cpu time   37.4024: real time   38.2718
    CORREC:  cpu time    0.0018: real time    0.0018
    --------------------------------------------
      LOOP:  cpu time   37.4054: real time   38.2764

 eigenvalue-minimisations  : 20682
 total energy-change (2. order) :-0.4970156E+02  (-0.4822294E+02)
 number of electron     106.0000000 magnetization 
 augmentation part      106.0000000 magnetization 

 Free energy of the ion-electron system (eV)
  ---------------------------------------------------
  alpha Z        PSCENC =       446.90332849
  Ewald energy   TEWEN  =     -7859.32337077
  -Hartree energ DENC   =     -3659.79149872
  -exchange      EXHF   =         0.00000000
  -V(xc)+E(xc)   XCENC  =       454.69195161
  PAW double counting   =      9333.50011946    -9270.82734050
  entropy T*S    EENTRO =        -0.00151331
  eigenvalues    EBANDS =     -1400.88200545
  atomic energy  EATOM  =     11728.30056431
  ---------------------------------------------------
  free energy    TOTEN  =      -227.42976489 eV

  energy without entropy =     -227.42825158  energy(sigma->0) =     -227.42900823


--------------------------------------------------------------------------------------------------------




--------------------------------------- Iteration      1(   4)  ---------------------------------------


    TRIAL :  cpu time   35.0356: real time   35.8640
    CORREC:  cpu time    0.0017: real time    0.0017
    --------------------------------------------
      LOOP:  cpu time   35.0396: real time   35.8685

 eigenvalue-minimisations  : 18672
 total energy-change (2. order) :-0.1244750E+01  (-0.1228223E+01)
 number of electron     106.0000000 magnetization 
 augmentation part      106.0000000 magnetization 

 Free energy of the ion-electron system (eV)
  ---------------------------------------------------
  alpha Z        PSCENC =       446.90332849
  Ewald energy   TEWEN  =     -7859.32337077
  -Hartree energ DENC   =     -3659.79149872
  -exchange      EXHF   =         0.00000000
  -V(xc)+E(xc)   XCENC  =       454.69195161
  PAW double counting   =      9333.50011946    -9270.82734050
  entropy T*S    EENTRO =        -0.00161219
  eigenvalues    EBANDS =     -1402.12665695
  atomic energy  EATOM  =     11728.30056431
  ---------------------------------------------------
  free energy    TOTEN  =      -228.67451526 eV

  energy without entropy =     -228.67290307  energy(sigma->0) =     -228.67370916


--------------------------------------------------------------------------------------------------------




--------------------------------------- Iteration      1(   5)  ---------------------------------------


    TRIAL :  cpu time   35.5508: real time   36.2909
    CORREC:  cpu time    0.0019: real time    0.0019
    CHARGE:  cpu time    2.1508: real time    2.1643
    --------------------------------------------
      LOOP:  cpu time   37.7056: real time   38.4600

 eigenvalue-minimisations  : 19332
 total energy-change (2. order) :-0.3023900E-01  (-0.3015539E-01)
 number of electron     106.0000001 magnetization 
 augmentation part       12.5736213 magnetization 

 Free energy of the ion-electron system (eV)
  ---------------------------------------------------
  alpha Z        PSCENC =       446.90332849
  Ewald energy   TEWEN  =     -7859.32337077
  -Hartree energ DENC   =     -3659.79149872
  -exchange      EXHF   =         0.00000000
  -V(xc)+E(xc)   XCENC  =       454.69195161
  PAW double counting   =      9333.50011946    -9270.82734050
  entropy T*S    EENTRO =        -0.00162909
  eigenvalues    EBANDS =     -1402.15687904
  atomic energy  EATOM  =     11728.30056431
  ---------------------------------------------------
  free energy    TOTEN  =      -228.70475425 eV

  energy without entropy =     -228.70312516  energy(sigma->0) =     -228.70393971


--------------------------------------------------------------------------------------------------------




--------------------------------------- Iteration      1(   6)  ---------------------------------------


    POTLOK:  cpu time    0.1754: real time    0.1766
    SETDIJ:  cpu time    0.5492: real time    0.5523
    TRIAL :  cpu time   28.1322: real time   33.9282
    CORREC:  cpu time    9.1421: real time    9.2071
    CHARGE:  cpu time    2.7806: real time    2.7964
    --------------------------------------------
      LOOP:  cpu time   40.7822: real time   46.6643

 eigenvalue-minimisations  :     0
 total energy-change (2. order) : 0.4809139E+02  (-0.5659878E+01)
 number of electron     106.0000001 magnetization 
 augmentation part       13.7831932 magnetization 

 Free energy of the ion-electron system (eV)
  ---------------------------------------------------
  alpha Z        PSCENC =       446.90332849
  Ewald energy   TEWEN  =     -7859.32337077
  -Hartree energ DENC   =     -3427.61570148
  -exchange      EXHF   =         0.00000000
  -V(xc)+E(xc)   XCENC  =       459.75815286
  PAW double counting   =     14215.02657332   -14183.01758320
  entropy T*S    EENTRO =        -0.00178896
  eigenvalues    EBANDS =     -1560.64369804
  atomic energy  EATOM  =     11728.30056431
  ---------------------------------------------------
  free energy    TOTEN  =      -180.61336359 eV

  energy without entropy =     -180.61157462  energy(sigma->0) =     -180.61246910


--------------------------------------------------------------------------------------------------------




--------------------------------------- Iteration      1(   7)  ---------------------------------------


    POTLOK:  cpu time    0.1518: real time    0.1526
    SETDIJ:  cpu time    0.9657: real time    0.9699
    TRIAL :  cpu time   30.6335: real time   30.9704
    CORREC:  cpu time    9.9554: real time   10.0267
    CHARGE:  cpu time    2.0619: real time    2.0743
    --------------------------------------------
      LOOP:  cpu time   43.7691: real time   44.1957

 eigenvalue-minimisations  :     0
 total energy-change (2. order) :-0.5881681E+01  (-0.8373391E+00)
 number of electron     106.0000001 magnetization 
 augmentation part       13.7943267 magnetization 

 Free energy of the ion-electron system (eV)
  ---------------------------------------------------
  alpha Z        PSCENC =       446.90332849
  Ewald energy   TEWEN  =     -7859.32337077
  -Hartree energ DENC   =     -3588.77786836
  -exchange      EXHF   =         0.00000000
  -V(xc)+E(xc)   XCENC  =       466.25605094
  PAW double counting   =     13733.75546059   -13691.78117241
  entropy T*S    EENTRO =        -0.00121027
  eigenvalues    EBANDS =     -1421.82624796
  atomic energy  EATOM  =     11728.30056431
  ---------------------------------------------------
  free energy    TOTEN  =      -186.49504413 eV

  energy without entropy =     -186.49383385  energy(sigma->0) =     -186.49443899


--------------------------------------------------------------------------------------------------------




--------------------------------------- Iteration      1(   8)  ---------------------------------------


    POTLOK:  cpu time    0.1326: real time    0.1334
    SETDIJ:  cpu time    0.6328: real time    0.6372
    TRIAL :  cpu time   29.9592: real time   30.2387
    CORREC:  cpu time   10.8782: real time   11.2965
    CHARGE:  cpu time    2.5065: real time    2.5225
    --------------------------------------------
      LOOP:  cpu time   44.1130: real time   44.8330

 eigenvalue-minimisations  :     0
 total energy-change (2. order) :-0.8354833E+00  (-0.2636006E+00)
 number of electron     106.0000001 magnetization 
 augmentation part       13.8087569 magnetization 

 Free energy of the ion-electron system (eV)
  ---------------------------------------------------
  alpha Z        PSCENC =       446.90332849
  Ewald energy   TEWEN  =     -7859.32337077
  -Hartree energ DENC   =     -3597.23469047
  -exchange      EXHF   =         0.00000000
  -V(xc)+E(xc)   XCENC  =       466.59687223
  PAW double counting   =     13487.89061138   -13444.23113881
  entropy T*S    EENTRO =        -0.00138754
  eigenvalues    EBANDS =     -1416.23149353
  atomic energy  EATOM  =     11728.30056431
  ---------------------------------------------------
  free energy    TOTEN  =      -187.33052743 eV

  energy without entropy =     -187.32913988  energy(sigma->0) =     -187.32983366


--------------------------------------------------------------------------------------------------------




--------------------------------------- Iteration      1(   9)  ---------------------------------------


    POTLOK:  cpu time    0.1452: real time    0.1461
    SETDIJ:  cpu time    1.4444: real time    1.4520
    TRIAL :  cpu time   30.9150: real time   31.5761
    CORREC:  cpu time    9.9182: real time    9.9882
    CHARGE:  cpu time    3.1433: real time    3.1600
    --------------------------------------------
      LOOP:  cpu time   45.5704: real time   46.3275

 eigenvalue-minimisations  :     0
 total energy-change (2. order) :-0.2636148E+00  (-0.8852208E-01)
 number of electron     106.0000001 magnetization 
 augmentation part       13.8343856 magnetization 

 Free energy of the ion-electron system (eV)
  ---------------------------------------------------
  alpha Z        PSCENC =       446.90332849
  Ewald energy   TEWEN  =     -7859.32337077
  -Hartree energ DENC   =     -3589.51291593
  -exchange      EXHF   =         0.00000000
  -V(xc)+E(xc)   XCENC  =       466.48019318
  PAW double counting   =     13355.81270607   -13311.02697546
  entropy T*S    EENTRO =        -0.00141391
  eigenvalues    EBANDS =     -1425.22628460
  atomic energy  EATOM  =     11728.30056431
  ---------------------------------------------------
  free energy    TOTEN  =      -187.59414226 eV

  energy without entropy =     -187.59272835  energy(sigma->0) =     -187.59343530


--------------------------------------------------------------------------------------------------------




--------------------------------------- Iteration      1(  10)  ---------------------------------------


    POTLOK:  cpu time    0.1357: real time    0.1365
    SETDIJ:  cpu time    0.5810: real time    0.5839
    TRIAL :  cpu time   31.0464: real time   31.5038
    CORREC:  cpu time    9.5471: real time    9.6137
    CHARGE:  cpu time    2.8649: real time    2.8824
    --------------------------------------------
      LOOP:  cpu time   44.1785: real time   44.7251

 eigenvalue-minimisations  :     0
 total energy-change (2. order) :-0.8850941E-01  (-0.2838073E-01)
 number of electron     106.0000001 magnetization 
 augmentation part       13.8463970 magnetization 

 Free energy of the ion-electron system (eV)
  ---------------------------------------------------
  alpha Z        PSCENC =       446.90332849
  Ewald energy   TEWEN  =     -7859.32337077
  -Hartree energ DENC   =     -3589.53280010
  -exchange      EXHF   =         0.00000000
  -V(xc)+E(xc)   XCENC  =       466.61947698
  PAW double counting   =     13307.97870263   -13262.47250688
  entropy T*S    EENTRO =        -0.00144285
  eigenvalues    EBANDS =     -1426.15463243
  atomic energy  EATOM  =     11728.30056431
  ---------------------------------------------------
  free energy    TOTEN  =      -187.68265167 eV

  energy without entropy =     -187.68120881  energy(sigma->0) =     -187.68193024


--------------------------------------------------------------------------------------------------------




--------------------------------------- Iteration      1(  11)  ---------------------------------------


    POTLOK:  cpu time    0.1340: real time    0.1347
    SETDIJ:  cpu time    0.5807: real time    0.5837
[...]
     58       9.0488      0.00000
     59       9.4719      0.00000
     60       9.6323      0.00000
     61       9.7977      0.00000
     62       9.8881      0.00000
     63      10.3784      0.00000
     64      10.4752      0.00000
     65      10.9722      0.00000
     66      11.0728      0.00000

 k-point   110 :      -0.1429    0.1429    0.5000
  band No.  band energies     occupation 
      1     -54.9769      2.00000
      2     -54.9375      2.00000
      3     -54.4333      2.00000
      4     -54.4268      2.00000
      5     -54.3069      2.00000
      6     -54.2541      2.00000
      7     -29.8444      2.00000
      8     -29.7095      2.00000
      9     -29.0489      2.00000
     10     -28.5094      2.00000
     11     -28.3339      2.00000
     12     -28.2936      2.00000
     13     -28.2144      2.00000
     14     -27.9351      2.00000
     15     -27.9191      2.00000
     16     -27.8197      2.00000
     17     -27.7939      2.00000
     18     -27.7899      2.00000
     19     -27.7555      2.00000
     20     -27.7457      2.00000
     21     -27.6752      2.00000
     22     -27.5434      2.00000
     23     -26.8297      2.00000
     24     -26.6392      2.00000
     25      -2.7129      2.00000
     26      -2.0492      2.00000
     27      -1.3375      2.00000
     28      -0.0716      2.00000
     29       1.4641      2.00000
     30       1.9220      2.00000
     31       2.3108      2.00000
     32       3.4408      2.00000
     33       3.8431      2.00000
     34       3.9065      2.00000
     35       3.9070      2.00000
     36       3.9128      2.00000
     37       4.0965      2.00000
     38       4.2355      2.00000
     39       4.8648      2.00000
     40       5.0377      2.00000
     41       5.3241      2.00000
     42       5.4890      2.00000
     43       5.7248      2.00000
     44       5.7884      2.00000
     45       5.8346      2.00000
     46       6.2173      2.00000
     47       6.4658      2.00000
     48       6.8525      2.00000
     49       6.9072      2.00000
     50       7.1666      2.00000
     51       7.4615      2.00000
     52       7.5378      2.00000
     53       7.5696      2.00000
     54       8.1906      0.00000
     55       8.2284      0.00000
     56       8.2658      0.00000
     57       8.3357      0.00000
     58       8.8094      0.00000
     59       8.8932      0.00000
     60       9.3581      0.00000
     61       9.9627      0.00000
     62      10.3610      0.00000
     63      10.4109      0.00000
     64      10.4535      0.00000
     65      10.7714      0.00000
     66      10.8932      0.00000

 k-point   111 :       0.2857    0.2857    0.5000
  band No.  band energies     occupation 
      1     -55.0206      2.00000
      2     -54.8807      2.00000
      3     -54.4404      2.00000
      4     -54.4196      2.00000
      5     -54.3565      2.00000
      6     -54.2176      2.00000
      7     -29.8595      2.00000
      8     -29.5458      2.00000
      9     -29.2986      2.00000
     10     -28.4879      2.00000
     11     -28.3680      2.00000
     12     -28.2485      2.00000
     13     -28.2305      2.00000
     14     -27.9334      2.00000
     15     -27.9174      2.00000
     16     -27.8654      2.00000
     17     -27.7969      2.00000
     18     -27.7586      2.00000
     19     -27.7419      2.00000
     20     -27.7263      2.00000
     21     -27.6614      2.00000
     22     -27.3037      2.00000
     23     -27.0121      2.00000
     24     -26.6447      2.00000
     25      -2.8944      2.00000
     26      -2.0308      2.00000
     27      -0.9342      2.00000
     28       0.4121      2.00000
     29       0.4206      2.00000
     30       2.1667      2.00000
     31       2.6411      2.00000
     32       3.1569      2.00000
     33       3.3734      2.00000
     34       3.4181      2.00000
     35       4.1359      2.00000
     36       4.2020      2.00000
     37       4.2213      2.00000
     38       4.3784      2.00000
     39       4.4255      2.00000
     40       4.8456      2.00000
     41       4.9935      2.00000
     42       5.3705      2.00000
     43       6.2433      2.00000
     44       6.2973      2.00000
     45       6.3215      2.00000
     46       6.4124      2.00000
     47       6.5833      2.00000
     48       6.8336      2.00000
     49       6.8957      2.00000
     50       7.0865      2.00000
     51       7.4106      2.00000
     52       7.4555      2.00000
     53       7.8032      1.99881
     54       7.9900      0.00000
     55       8.0014      0.00000
     56       8.1755      0.00000
     57       8.6358      0.00000
     58       8.8149      0.00000
     59       8.8964      0.00000
     60       8.9367      0.00000
     61       9.7433      0.00000
     62      10.1202      0.00000
     63      10.1222      0.00000
     64      10.5052      0.00000
     65      10.5456      0.00000
     66      10.8993      0.00000

 k-point   112 :       0.4286    0.2857    0.5000
  band No.  band energies     occupation 
      1     -55.0341      2.00000
      2     -54.8586      2.00000
      3     -54.4371      2.00000
      4     -54.4188      2.00000
      5     -54.3846      2.00000
      6     -54.2023      2.00000
      7     -29.8268      2.00000
      8     -29.7153      2.00000
      9     -29.0206      2.00000
     10     -28.7200      2.00000
     11     -28.3811      2.00000
     12     -28.2287      2.00000
     13     -27.9835      2.00000
     14     -27.9278      2.00000
     15     -27.9187      2.00000
     16     -27.8861      2.00000
     17     -27.8077      2.00000
     18     -27.7488      2.00000
     19     -27.7418      2.00000
     20     -27.7207      2.00000
     21     -27.6658      2.00000
     22     -27.6120      2.00000
     23     -26.8070      2.00000
     24     -26.6874      2.00000
     25      -2.7433      2.00000
     26      -2.0406      2.00000
     27      -0.9502      2.00000
     28      -0.1698      2.00000
     29       1.0070      2.00000
     30       1.7302      2.00000
     31       2.4564      2.00000
     32       2.7791      2.00000
     33       3.2481      2.00000
     34       3.4426      2.00000
     35       3.8188      2.00000
     36       4.1340      2.00000
     37       4.4183      2.00000
     38       4.6298      2.00000
     39       5.0234      2.00000
     40       5.1685      2.00000
     41       5.4517      2.00000
     42       5.5291      2.00000
     43       5.7433      2.00000
     44       6.2287      2.00000
     45       6.3482      2.00000
     46       6.4476      2.00000
     47       6.5062      2.00000
     48       6.7429      2.00000
     49       7.0250      2.00000
     50       7.1788      2.00000
     51       7.4520      2.00000
     52       7.5119      2.00000
     53       7.7188      2.00000
     54       7.8843      0.01272
     55       8.1688      0.00000
     56       8.2590      0.00000
     57       8.3221      0.00000
     58       9.0718      0.00000
     59       9.2443      0.00000
     60       9.3322      0.00000
     61       9.6501      0.00000
     62      10.1715      0.00000
     63      10.2104      0.00000
     64      10.6224      0.00000
     65      11.1116      0.00000
     66      11.2588      0.00000

 k-point   113 :      -0.4286    0.2857    0.5000
  band No.  band energies     occupation 
      1     -55.0338      2.00000
      2     -54.8593      2.00000
      3     -54.4290      2.00000
      4     -54.4200      2.00000
      5     -54.3922      2.00000
      6     -54.2014      2.00000
      7     -29.8182      2.00000
      8     -29.7236      2.00000
      9     -29.0287      2.00000
     10     -28.7131      2.00000
     11     -28.3821      2.00000
     12     -28.2287      2.00000
     13     -27.9729      2.00000
     14     -27.9213      2.00000
     15     -27.9204      2.00000
     16     -27.8894      2.00000
     17     -27.8052      2.00000
     18     -27.7493      2.00000
     19     -27.7420      2.00000
     20     -27.7207      2.00000
     21     -27.6700      2.00000
     22     -27.6198      2.00000
     23     -26.8167      2.00000
     24     -26.6775      2.00000
     25      -2.5429      2.00000
     26      -2.1442      2.00000
     27      -1.0610      2.00000
     28      -0.2459      2.00000
     29       1.0957      2.00000
     30       1.6399      2.00000
     31       2.0351      2.00000
     32       3.0376      2.00000
     33       3.2601      2.00000
     34       3.4477      2.00000
     35       3.8190      2.00000
     36       4.1810      2.00000
     37       4.5082      2.00000
     38       4.6928      2.00000
     39       5.1385      2.00000
     40       5.3093      2.00000
     41       5.3966      2.00000
     42       5.6062      2.00000
     43       5.7740      2.00000
     44       6.2188      2.00000
     45       6.3586      2.00000
     46       6.4106      2.00000
     47       6.4603      2.00000
     48       6.4797      2.00000
     49       6.6935      2.00000
     50       6.9243      2.00000
     51       7.6585      2.00000
     52       7.8176      1.97380
     53       7.9809      0.00000
     54       8.0397      0.00000
     55       8.0920      0.00000
     56       8.3173      0.00000
     57       8.3519      0.00000
     58       9.1185      0.00000
     59       9.2936      0.00000
     60       9.4728      0.00000
     61      10.0958      0.00000
     62      10.3435      0.00000
     63      10.4406      0.00000
     64      10.4500      0.00000
     65      10.9582      0.00000
     66      11.3361      0.00000

 k-point   114 :      -0.2857    0.2857    0.5000
  band No.  band energies     occupation 
      1     -55.0196      2.00000
      2     -54.8826      2.00000
      3     -54.4268      2.00000
      4     -54.4230      2.00000
      5     -54.3687      2.00000
      6     -54.2148      2.00000
      7     -29.8507      2.00000
      8     -29.5539      2.00000
      9     -29.3072      2.00000
     10     -28.4860      2.00000
     11     -28.3705      2.00000
     12     -28.2480      2.00000
     13     -28.2145      2.00000
     14     -27.9249      2.00000
     15     -27.9190      2.00000
     16     -27.8688      2.00000
     17     -27.7940      2.00000
     18     -27.7600      2.00000
     19     -27.7403      2.00000
     20     -27.7285      2.00000
     21     -27.6638      2.00000
     22     -27.3140      2.00000
     23     -27.0215      2.00000
     24     -26.6347      2.00000
     25      -2.3730      2.00000
     26      -2.3361      2.00000
     27      -1.2529      2.00000
     28       0.2307      2.00000
     29       0.7098      2.00000
     30       1.7881      2.00000
     31       1.9779      2.00000
     32       3.3946      2.00000
     33       3.4134      2.00000
     34       3.4298      2.00000
     35       4.2132      2.00000
     36       4.2433      2.00000
     37       4.2713      2.00000
     38       4.4668      2.00000
     39       4.9474      2.00000
     40       5.3128      2.00000
     41       5.5104      2.00000
     42       5.6178      2.00000
     43       5.7422      2.00000
     44       5.7997      2.00000
     45       6.0872      2.00000
     46       6.2171      2.00000
     47       6.4676      2.00000
     48       6.4818      2.00000
     49       6.7461      2.00000
     50       7.0984      2.00000
     51       7.4392      2.00000
     52       7.6728      2.00000
     53       8.0893      0.00000
     54       8.1109      0.00000
     55       8.2515      0.00000
     56       8.3446      0.00000
     57       8.5818      0.00000
     58       9.0893      0.00000
     59       9.4368      0.00000
     60       9.5284      0.00000
     61       9.7473      0.00000
     62      10.3149      0.00000
     63      10.4038      0.00000
     64      10.5116      0.00000
     65      10.8597      0.00000
     66      11.2255      0.00000

 k-point   115 :       0.4286    0.4286    0.5000
  band No.  band energies     occupation 
      1     -55.0504      2.00000
      2     -54.8262      2.00000
      3     -54.4406      2.00000
      4     -54.4176      2.00000
      5     -54.4166      2.00000
      6     -54.1841      2.00000
      7     -29.8643      2.00000
      8     -29.8211      2.00000
      9     -28.7077      2.00000
     10     -28.4684      2.00000
     11     -28.3961      2.00000
     12     -28.2318      2.00000
     13     -28.2003      2.00000
     14     -27.9585      2.00000
     15     -27.9287      2.00000
     16     -27.9190      2.00000
     17     -27.9111      2.00000
     18     -27.8229      2.00000
     19     -27.7361      2.00000
     20     -27.7358      2.00000
     21     -27.7220      2.00000
     22     -27.6582      2.00000
     23     -26.6754      2.00000
     24     -26.6409      2.00000
     25      -2.6399      2.00000
     26      -1.6928      2.00000
     27      -1.1455      2.00000
     28      -0.7946      2.00000
     29       1.5102      2.00000
     30       1.7310      2.00000
     31       1.9245      2.00000
     32       2.6169      2.00000
     33       3.1025      2.00000
     34       3.2897      2.00000
     35       3.5627      2.00000
     36       4.1284      2.00000
     37       4.5707      2.00000
     38       4.7434      2.00000
     39       5.0835      2.00000
     40       5.6106      2.00000
     41       5.6371      2.00000
     42       5.9345      2.00000
     43       5.9658      2.00000
     44       6.2538      2.00000
     45       6.2870      2.00000
     46       6.4634      2.00000
     47       6.5524      2.00000
     48       6.6114      2.00000
     49       6.9470      2.00000
     50       7.4881      2.00000
     51       7.4938      2.00000
     52       7.6111      2.00000
     53       7.9133      0.00001
     54       7.9691      0.00000
     55       8.0659      0.00000
     56       8.0789      0.00000
     57       8.3722      0.00000
     58       9.1357      0.00000
     59       9.1803      0.00000
     60       9.7205      0.00000
     61       9.9840      0.00000
     62      10.3349      0.00000
     63      10.3483      0.00000
     64      10.7291      0.00000
     65      11.1059      0.00000
     66      11.4505      0.00000

 k-point   116 :      -0.4286    0.4286    0.5000
  band No.  band energies     occupation 
      1     -55.0503      2.00000
      2     -54.8266      2.00000
      3     -54.4301      2.00000
      4     -54.4268      2.00000
      5     -54.4179      2.00000
      6     -54.1838      2.00000
      7     -29.8558      2.00000
      8     -29.8295      2.00000
      9     -28.7149      2.00000
     10     -28.4659      2.00000
     11     -28.3965      2.00000
     12     -28.2159      2.00000
     13     -28.2004      2.00000
     14     -27.9699      2.00000
     15     -27.9199      2.00000
     16     -27.9191      2.00000
     17     -27.9190      2.00000
     18     -27.8226      2.00000
     19     -27.7363      2.00000
     20     -27.7359      2.00000
     21     -27.7220      2.00000
     22     -27.6584      2.00000
     23     -26.6852      2.00000
     24     -26.6311      2.00000
     25      -2.5596      2.00000
     26      -1.7259      2.00000
     27      -1.1807      2.00000
     28      -0.8293      2.00000
     29       1.4981      2.00000
     30       1.6918      2.00000
     31       1.7675      2.00000
     32       2.8332      2.00000
     33       3.1062      2.00000
     34       3.2924      2.00000
     35       3.5610      2.00000
     36       4.1546      2.00000
     37       4.4108      2.00000
     38       4.6077      2.00000
     39       5.4745      2.00000
     40       5.7496      2.00000
     41       5.7752      2.00000
     42       5.9086      2.00000
     43       5.9314      2.00000
     44       5.9755      2.00000
     45       6.2932      2.00000
     46       6.3404      2.00000
     47       6.5261      2.00000
     48       6.5721      2.00000
     49       6.9433      2.00000
     50       7.3485      2.00000
     51       7.4899      2.00000
     52       7.6648      2.00000
     53       7.8765      0.05219
     54       8.0000      0.00000
     55       8.2542      0.00000
     56       8.3451      0.00000
     57       8.4202      0.00000
     58       9.1744      0.00000
     59       9.2049      0.00000
     60       9.6661      0.00000
     61      10.2381      0.00000
     62      10.4391      0.00000
     63      10.4906      0.00000
     64      10.5268      0.00000
     65      10.9373      0.00000
     66      11.3134      0.00000


--------------------------------------------------------------------------------------------------------


 soft charge-density along one line, spin component           1
         0         1         2         3         4         5         6         7         8         9
 total charge-density along one line
 
 pseudopotential strength for first ion, spin component:           1
  6.060   9.192   0.000  -0.000  -0.000   0.000  -0.000  -0.000
  9.192  13.934   0.000  -0.000  -0.000   0.000  -0.000  -0.000
  0.000   0.000  -2.031   0.004  -0.003  -3.404   0.008  -0.005
 -0.000  -0.000   0.004  -2.033   0.003   0.008  -3.407   0.006
 -0.000  -0.000  -0.003   0.003  -2.029  -0.005   0.006  -3.400
  0.000   0.000  -3.404   0.008  -0.005  -5.494   0.015  -0.009
 -0.000  -0.000   0.008  -3.407   0.006   0.015  -5.499   0.011
 -0.000  -0.000  -0.005   0.006  -3.400  -0.009   0.011  -5.487
 total augmentation occupancy for first ion, spin component:           1
  2.970  -0.607  -0.000  -0.000   0.000   0.000   0.000  -0.000
 -0.607   0.155  -0.000  -0.000   0.000   0.000   0.000  -0.000
 -0.000  -0.000   1.879  -0.187   0.113  -0.458   0.029  -0.017
  0.000   0.000  -0.187   1.947  -0.130   0.029  -0.468   0.020
  0.000   0.000   0.113  -0.130   1.797  -0.017   0.020  -0.445
  0.000   0.000  -0.458   0.029  -0.017   0.116  -0.003   0.002
 -0.000   0.000   0.029  -0.468   0.020  -0.003   0.117  -0.002
 -0.000  -0.000  -0.017   0.020  -0.445   0.002  -0.002   0.115


------------------------ aborting loop because EDIFF is reached ----------------------------------------




--------------------------------------------------------------------------------------------------------



  FREE ENERGIE OF THE ION-ELECTRON SYSTEM (eV)
  ---------------------------------------------------
  free  energy   TOTEN  =      -187.73562475 eV

  energy  without entropy=     -187.73395714  energy(sigma->0) =     -187.73479095
 


--------------------------------------------------------------------------------------------------------


    POTLOK:  cpu time    1.1922: real time    1.1988


--------------------------------------------------------------------------------------------------------


 writing wavefunctions
     LOOP+:  cpu time 1494.5214: real time 1519.9845
    4ORBIT:  cpu time    0.0000: real time    0.0000

 total amount of memory used by VASP MPI-rank0   452862. kBytes
=======================================================================

   base      :      30000. kBytes
   nonl-proj :     174454. kBytes
   fftplans  :      17772. kBytes
   grid      :      13358. kBytes
   one-center:         93. kBytes
   wavefun   :     217185. kBytes
 
  
  
 General timing and accounting informations for this job:
 ========================================================
  
                  Total CPU time used (sec):     1502.071
                            User time (sec):     1452.725
                          System time (sec):       49.345
                         Elapsed time (sec):     1533.877
  
                   Maximum memory used (kb):      642552.
                   Average memory used (kb):          N/A
  
                          Minor page faults:      5937827
                          Major page faults:           31
                 Voluntary context switches:        15407
