<?xml version="1.0" encoding="ISO-8859-1"?>
<modeling>
 <generator>
  <i name="program" type="string">vasp </i>
  <i name="version" type="string">6.2.0  </i>
  <i name="subversion" type="string">18Jan21 (build Jan 05 2022 15:41:44) complex                          parallel </i>
  <i name="platform" type="string">LinuxIFC </i>
  <i name="date" type="string">2025 05 07 </i>
  <i name="time" type="string">16:32:08 </i>
 </generator>
 <incar>
  <i type="string" name="SYSTEM">routine with relax: pwdword</i>
  <i type="string" name="PREC">Acc</i>
  <i type="int" name="IALGO">    38</i>
  <i type="string" name="ALGO">A</i>
  <i type="logical" name="ADDGRID"> T  </i>
  <i type="int" name="ICHARG">     2</i>
  <i type="int" name="NELM">   100</i>
  <i type="int" name="NELMIN">     6</i>
  <i name="EDIFF">      0.00000000</i>
  <i type="int" name="NSW">     0</i>
  <i type="int" name="ISIF">    -1</i>
  <i name="ENCUT">    600.00000000</i>
  <i type="logical" name="LREAL"> F  </i>
  <i type="int" name="ISMEAR">     0</i>
  <i name="SIGMA">      0.02000000</i>
  <i type="logical" name="LASPH"> T  </i>
  <i type="string" name="METAGGA">R2SCAN</i>
  <i type="logical" name="LMIXTAU"> F  </i>
 </incar>
 <primitive_cell>
  <structure name="primitive_cell" >
   <crystal>
    <varray name="basis" >
     <v>       5.76727730       0.00000000      -3.21767648 </v>
     <v>      -1.98856223       5.41360394      -3.21767648 </v>
     <v>       0.00000000       0.00000000       6.60416000 </v>
    </varray>
    <i name="volume">    206.19346615 </i>
    <varray name="rec_basis" >
     <v>       0.17339204       0.06369156       0.00000000 </v>
     <v>       0.00000000       0.18471983       0.00000000 </v>
     <v>       0.08448001       0.12103091       0.15141971 </v>
    </varray>
   </crystal>
   <varray name="positions" >
    <v>       0.25000000       0.25000000       0.00000000 </v>
    <v>       0.75000000       0.75000000       0.00000000 </v>
    <v>       0.75113000       0.25113000       0.00225000 </v>
    <v>       0.50000000       0.50000000       0.00000000 </v>
    <v>       0.24887000       0.74887000       0.99775000 </v>
    <v>       0.25113000       0.24887000       0.50000000 </v>
    <v>       0.74887000       0.75113000       0.50000000 </v>
    <v>       0.00000000       0.00000000       0.00000000 </v>
    <v>       0.50000000       0.00000000       0.00000000 </v>
    <v>       0.00000000       0.00000000       0.50000000 </v>
    <v>       1.00000000       0.50000000       0.00000000 </v>
    <v>       0.50000000       0.50000000       0.50000000 </v>
   </varray>
  </structure>
  <varray name="primitive_index" >
   <v type="int" >        1 </v>
   <v type="int" >        2 </v>
   <v type="int" >        3 </v>
   <v type="int" >        4 </v>
   <v type="int" >        5 </v>
   <v type="int" >        6 </v>
   <v type="int" >        7 </v>
   <v type="int" >        8 </v>
   <v type="int" >        9 </v>
   <v type="int" >       10 </v>
   <v type="int" >       11 </v>
   <v type="int" >       12 </v>
  </varray>
 </primitive_cell>
 <kpoints>
  <generation param="Gamma">
   <v type="int" name="divisions">       7        7        8 </v>
   <v name="usershift">      0.00000000       0.00000000       0.00000000 </v>
   <v name="genvec1">      0.14285714       0.00000000       0.00000000 </v>
   <v name="genvec2">      0.00000000       0.14285714       0.00000000 </v>
   <v name="genvec3">      0.00000000       0.00000000       0.12500000 </v>
   <v name="shift">      0.00000000       0.00000000       0.00000000 </v>
  </generation>
  <varray name="kpointlist" >
   <v>       0.00000000       0.00000000       0.00000000 </v>
   <v>       0.14285714       0.00000000       0.00000000 </v>
   <v>       0.28571429      -0.00000000       0.00000000 </v>
   <v>       0.42857143       0.00000000       0.00000000 </v>
   <v>       0.14285714       0.14285714       0.00000000 </v>
   <v>       0.28571429       0.14285714       0.00000000 </v>
   <v>       0.42857143       0.14285714       0.00000000 </v>
   <v>      -0.42857143       0.14285714       0.00000000 </v>
   <v>      -0.28571429       0.14285714       0.00000000 </v>
   <v>      -0.14285714       0.14285714       0.00000000 </v>
   <v>       0.28571429       0.28571429       0.00000000 </v>
   <v>       0.42857143       0.28571429       0.00000000 </v>
   <v>      -0.42857143       0.28571429       0.00000000 </v>
   <v>      -0.28571429       0.28571429       0.00000000 </v>
   <v>       0.42857143       0.42857143       0.00000000 </v>
   <v>      -0.42857143       0.42857143       0.00000000 </v>
   <v>      -0.00000000       0.00000000       0.12500000 </v>
   <v>       0.14285714       0.00000000       0.12500000 </v>
   <v>       0.28571429       0.00000000       0.12500000 </v>
   <v>       0.42857143       0.00000000       0.12500000 </v>
   <v>      -0.42857143       0.00000000       0.12500000 </v>
   <v>      -0.28571429       0.00000000       0.12500000 </v>
   <v>      -0.14285714       0.00000000       0.12500000 </v>
   <v>       0.14285714       0.14285714       0.12500000 </v>
   <v>       0.28571429       0.14285714       0.12500000 </v>
   <v>       0.42857143       0.14285714       0.12500000 </v>
   <v>      -0.42857143       0.14285714       0.12500000 </v>
   <v>      -0.28571429       0.14285714       0.12500000 </v>
   <v>      -0.14285714       0.14285714       0.12500000 </v>
   <v>       0.28571429       0.28571429       0.12500000 </v>
   <v>       0.42857143       0.28571429       0.12500000 </v>
   <v>      -0.42857143       0.28571429       0.12500000 </v>
   <v>      -0.28571429       0.28571429       0.12500000 </v>
   <v>      -0.14285714       0.28571429       0.12500000 </v>
   <v>       0.42857143       0.42857143       0.12500000 </v>
   <v>      -0.42857143       0.42857143       0.12500000 </v>
   <v>      -0.28571429       0.42857143       0.12500000 </v>
   <v>      -0.14285714       0.42857143       0.12500000 </v>
   <v>      -0.42857143      -0.42857143       0.12500000 </v>
   <v>      -0.28571429      -0.42857143       0.12500000 </v>
   <v>      -0.14285714      -0.42857143       0.12500000 </v>
   <v>      -0.28571429      -0.28571429       0.12500000 </v>
   <v>      -0.14285714      -0.28571429       0.12500000 </v>
   <v>      -0.14285714      -0.14285714       0.12500000 </v>
   <v>      -0.00000000       0.00000000       0.25000000 </v>
   <v>       0.14285714       0.00000000       0.25000000 </v>
   <v>       0.28571429       0.00000000       0.25000000 </v>
   <v>       0.42857143       0.00000000       0.25000000 </v>
   <v>      -0.42857143       0.00000000       0.25000000 </v>
   <v>      -0.28571429       0.00000000       0.25000000 </v>
   <v>      -0.14285714       0.00000000       0.25000000 </v>
   <v>       0.14285714       0.14285714       0.25000000 </v>
   <v>       0.28571429       0.14285714       0.25000000 </v>
   <v>       0.42857143       0.14285714       0.25000000 </v>
   <v>      -0.42857143       0.14285714       0.25000000 </v>
   <v>      -0.28571429       0.14285714       0.25000000 </v>
   <v>      -0.14285714       0.14285714       0.25000000 </v>
   <v>       0.28571429       0.28571429       0.25000000 </v>
   <v>       0.42857143       0.28571429       0.25000000 </v>
   <v>      -0.42857143       0.28571429       0.25000000 </v>
   <v>      -0.28571429       0.28571429       0.25000000 </v>
   <v>      -0.14285714       0.28571429       0.25000000 </v>
   <v>       0.42857143       0.42857143       0.25000000 </v>
   <v>      -0.42857143       0.42857143       0.25000000 </v>
   <v>      -0.28571429       0.42857143       0.25000000 </v>
   <v>      -0.14285714       0.42857143       0.25000000 </v>
   <v>      -0.42857143      -0.42857143       0.25000000 </v>
   <v>      -0.28571429      -0.42857143       0.25000000 </v>
   <v>      -0.14285714      -0.42857143       0.25000000 </v>
   <v>      -0.28571429      -0.28571429       0.25000000 </v>
   <v>      -0.14285714      -0.28571429       0.25000000 </v>
   <v>      -0.14285714      -0.14285714       0.25000000 </v>
   <v>       0.00000000       0.00000000       0.37500000 </v>
   <v>       0.14285714       0.00000000       0.37500000 </v>
   <v>       0.28571429       0.00000000       0.37500000 </v>
   <v>       0.42857143       0.00000000       0.37500000 </v>
   <v>      -0.42857143       0.00000000       0.37500000 </v>
   <v>      -0.28571429       0.00000000       0.37500000 </v>
   <v>      -0.14285714       0.00000000       0.37500000 </v>
   <v>       0.14285714       0.14285714       0.37500000 </v>
   <v>       0.28571429       0.14285714       0.37500000 </v>
   <v>       0.42857143       0.14285714       0.37500000 </v>
   <v>      -0.42857143       0.14285714       0.37500000 </v>
   <v>      -0.28571429       0.14285714       0.37500000 </v>
   <v>      -0.14285714       0.14285714       0.37500000 </v>
   <v>       0.28571429       0.28571429       0.37500000 </v>
   <v>       0.42857143       0.28571429       0.37500000 </v>
   <v>      -0.42857143       0.28571429       0.37500000 </v>
   <v>      -0.28571429       0.28571429       0.37500000 </v>
   <v>      -0.14285714       0.28571429       0.37500000 </v>
   <v>       0.42857143       0.42857143       0.37500000 </v>
   <v>      -0.42857143       0.42857143       0.37500000 </v>
   <v>      -0.28571429       0.42857143       0.37500000 </v>
   <v>      -0.14285714       0.42857143       0.37500000 </v>
   <v>      -0.42857143      -0.42857143       0.37500000 </v>
   <v>      -0.28571429      -0.42857143       0.37500000 </v>
   <v>      -0.14285714      -0.42857143       0.37500000 </v>
   <v>      -0.28571429      -0.28571429       0.37500000 </v>
   <v>      -0.14285714      -0.28571429       0.37500000 </v>
   <v>      -0.14285714      -0.14285714       0.37500000 </v>
   <v>      -0.00000000       0.00000000       0.50000000 </v>
   <v>       0.14285714       0.00000000       0.50000000 </v>
   <v>       0.28571429       0.00000000       0.50000000 </v>
   <v>       0.42857143       0.00000000       0.50000000 </v>
   <v>       0.14285714       0.14285714       0.50000000 </v>
   <v>       0.28571429       0.14285714       0.50000000 </v>
   <v>       0.42857143       0.14285714       0.50000000 </v>
   <v>      -0.42857143       0.14285714       0.50000000 </v>
   <v>      -0.28571429       0.14285714       0.50000000 </v>
   <v>      -0.14285714       0.14285714       0.50000000 </v>
   <v>       0.28571429       0.28571429       0.50000000 </v>
   <v>       0.42857143       0.28571429       0.50000000 </v>
   <v>      -0.42857143       0.28571429       0.50000000 </v>
   <v>      -0.28571429       0.28571429       0.50000000 </v>
   <v>       0.42857143       0.42857143       0.50000000 </v>
   <v>      -0.42857143       0.42857143       0.50000000 </v>
  </varray>
  <varray name="weights" >
   <v>       0.00255102 </v>
   <v>       0.01020408 </v>
   <v>       0.01020408 </v>
   <v>       0.01020408 </v>
   <v>       0.00510204 </v>
   <v>       0.01020408 </v>
   <v>       0.01020408 </v>
   <v>       0.01020408 </v>
   <v>       0.01020408 </v>
   <v>       0.00510204 </v>
   <v>       0.00510204 </v>
   <v>       0.01020408 </v>
   <v>       0.01020408 </v>
   <v>       0.00510204 </v>
   <v>       0.00510204 </v>
   <v>       0.00510204 </v>
   <v>       0.00510204 </v>
   <v>       0.01020408 </v>
   <v>       0.01020408 </v>
   <v>       0.01020408 </v>
   <v>       0.01020408 </v>
   <v>       0.01020408 </v>
   <v>       0.01020408 </v>
   <v>       0.00510204 </v>
   <v>       0.01020408 </v>
   <v>       0.01020408 </v>
   <v>       0.01020408 </v>
   <v>       0.01020408 </v>
   <v>       0.01020408 </v>
   <v>       0.00510204 </v>
   <v>       0.01020408 </v>
   <v>       0.01020408 </v>
   <v>       0.01020408 </v>
   <v>       0.01020408 </v>
   <v>       0.00510204 </v>
   <v>       0.01020408 </v>
   <v>       0.01020408 </v>
   <v>       0.01020408 </v>
   <v>       0.00510204 </v>
   <v>       0.01020408 </v>
   <v>       0.01020408 </v>
   <v>       0.00510204 </v>
   <v>       0.01020408 </v>
   <v>       0.00510204 </v>
   <v>       0.00510204 </v>
   <v>       0.01020408 </v>
   <v>       0.01020408 </v>
   <v>       0.01020408 </v>
   <v>       0.01020408 </v>
   <v>       0.01020408 </v>
   <v>       0.01020408 </v>
   <v>       0.00510204 </v>
   <v>       0.01020408 </v>
   <v>       0.01020408 </v>
   <v>       0.01020408 </v>
   <v>       0.01020408 </v>
   <v>       0.01020408 </v>
   <v>       0.00510204 </v>
   <v>       0.01020408 </v>
   <v>       0.01020408 </v>
   <v>       0.01020408 </v>
   <v>       0.01020408 </v>
   <v>       0.00510204 </v>
   <v>       0.01020408 </v>
   <v>       0.01020408 </v>
   <v>       0.01020408 </v>
   <v>       0.00510204 </v>
   <v>       0.01020408 </v>
   <v>       0.01020408 </v>
   <v>       0.00510204 </v>
   <v>       0.01020408 </v>
   <v>       0.00510204 </v>
   <v>       0.00510204 </v>
   <v>       0.01020408 </v>
   <v>       0.01020408 </v>
   <v>       0.01020408 </v>
   <v>       0.01020408 </v>
   <v>       0.01020408 </v>
   <v>       0.01020408 </v>
   <v>       0.00510204 </v>
   <v>       0.01020408 </v>
   <v>       0.01020408 </v>
   <v>       0.01020408 </v>
   <v>       0.01020408 </v>
   <v>       0.01020408 </v>
   <v>       0.00510204 </v>
   <v>       0.01020408 </v>
   <v>       0.01020408 </v>
   <v>       0.01020408 </v>
   <v>       0.01020408 </v>
   <v>       0.00510204 </v>
   <v>       0.01020408 </v>
   <v>       0.01020408 </v>
   <v>       0.01020408 </v>
   <v>       0.00510204 </v>
   <v>       0.01020408 </v>
   <v>       0.01020408 </v>
   <v>       0.00510204 </v>
   <v>       0.01020408 </v>
   <v>       0.00510204 </v>
   <v>       0.00255102 </v>
   <v>       0.01020408 </v>
   <v>       0.01020408 </v>
   <v>       0.01020408 </v>
   <v>       0.00510204 </v>
   <v>       0.01020408 </v>
   <v>       0.01020408 </v>
   <v>       0.01020408 </v>
   <v>       0.01020408 </v>
   <v>       0.00510204 </v>
   <v>       0.00510204 </v>
   <v>       0.01020408 </v>
   <v>       0.01020408 </v>
   <v>       0.00510204 </v>
   <v>       0.00510204 </v>
   <v>       0.00510204 </v>
  </varray>
 </kpoints>
 <parameters>
  <separator name="general" >
   <i type="string" name="SYSTEM">routine with relax: pwdword</i>
   <i type="logical" name="LCOMPAT"> F  </i>
  </separator>
  <separator name="electronic" >
   <i type="string" name="PREC">acc</i>
   <i name="ENMAX">    600.00000000</i>
   <i name="ENAUG">    535.51400000</i>
   <i name="EDIFF">      0.00000000</i>
   <i type="int" name="IALGO">    58</i>
   <i type="int" name="IWAVPR">    10</i>
   <i type="int" name="NBANDS">    66</i>
   <i type="int" name="NBANDSLOW">    -1</i>
   <i type="int" name="NBANDSHIGH">    -1</i>
   <i name="NELECT">    106.00000000</i>
   <i type="int" name="TURBO">     0</i>
   <i type="int" name="IRESTART">     0</i>
   <i type="int" name="NREBOOT">     0</i>
   <i type="int" name="NMIN">     0</i>
   <i name="EREF">      0.00000000</i>
   <separator name="electronic smearing" >
    <i type="int" name="ISMEAR">     0</i>
    <i name="SIGMA">      0.02000000</i>
    <i name="KSPACING">      0.50000000</i>
    <i type="logical" name="KGAMMA"> T  </i>
    <i type="logical" name="KBLOWUP"> F  </i>
   </separator>
   <separator name="electronic projectors" >
    <i type="logical" name="LREAL"> F  </i>
    <v name="ROPT">      0.00000000      0.00000000      0.00000000</v>
    <i type="int" name="LMAXPAW">  -100</i>
    <i type="int" name="LMAXMIX">     2</i>
    <i type="logical" name="NLSPLINE"> F  </i>
   </separator>
   <separator name="electronic startup" >
    <i type="int" name="ISTART">     0</i>
    <i type="int" name="ICHARG">     2</i>
    <i type="int" name="INIWAV">     1</i>
   </separator>
   <separator name="electronic spin" >
    <i type="int" name="ISPIN">     1</i>
    <i type="logical" name="LNONCOLLINEAR"> F  </i>
    <v name="MAGMOM">      1.00000000      1.00000000      1.00000000      1.00000000      1.00000000      1.00000000      1.00000000      1.00000000      1.00000000      1.00000000      1.00000000      1.00000000</v>
    <i name="NUPDOWN">     -1.00000000</i>
    <i type="logical" name="LSORBIT"> F  </i>
    <v name="SAXIS">      0.00000000      0.00000000      1.00000000</v>
    <i type="logical" name="LSPIRAL"> F  </i>
    <v name="QSPIRAL">      0.00000000      0.00000000      0.00000000</v>
    <i type="logical" name="LZEROZ"> F  </i>
   </separator>
   <separator name="electronic exchange-correlation" >
    <i type="logical" name="LASPH"> T  </i>
    <i type="logical" name="LMETAGGA"> F  </i>
   </separator>
   <separator name="electronic convergence" >
    <i type="int" name="NELM">   100</i>
    <i type="int" name="NELMDL">    -5</i>
    <i type="int" name="NELMIN">     6</i>
    <i name="ENINI">    600.00000000</i>
    <separator name="electronic convergence detail" >
     <i type="logical" name="LDIAG"> T  </i>
     <i type="logical" name="LSUBROT"> F  </i>
     <i name="WEIMIN">      0.00000000</i>
     <i name="EBREAK">      0.00000000</i>
     <i name="DEPER">      0.30000000</i>
     <i type="int" name="NRMM">     4</i>
     <i name="TIME">      0.40000000</i>
    </separator>
   </separator>
   <separator name="electronic mixer" >
    <i name="AMIX">      0.40000000</i>
    <i name="BMIX">      1.00000000</i>
    <i name="AMIN">      0.10000000</i>
    <i name="AMIX_MAG">      1.60000000</i>
    <i name="BMIX_MAG">      1.00000000</i>
    <separator name="electronic mixer details" >
     <i type="int" name="IMIX">     4</i>
     <i type="logical" name="MIXFIRST"> F  </i>
     <i type="int" name="MAXMIX">   -45</i>
     <i name="WC">    100.00000000</i>
     <i type="int" name="INIMIX">     1</i>
     <i type="int" name="MIXPRE">     1</i>
     <i type="int" name="MREMOVE">     5</i>
    </separator>
   </separator>
   <separator name="electronic dipolcorrection" >
    <i type="logical" name="LDIPOL"> F  </i>
    <i type="logical" name="LMONO"> F  </i>
    <i type="int" name="IDIPOL">     0</i>
    <i name="EPSILON">      1.00000000</i>
    <v name="DIPOL">   -100.00000000   -100.00000000   -100.00000000</v>
    <i name="EFIELD">      0.00000000</i>
   </separator>
  </separator>
  <separator name="grids" >
   <i type="int" name="NGX">    54</i>
   <i type="int" name="NGY">    54</i>
   <i type="int" name="NGZ">    54</i>
   <i type="int" name="NGXF">   108</i>
   <i type="int" name="NGYF">   108</i>
   <i type="int" name="NGZF">   108</i>
   <i type="logical" name="ADDGRID"> T  </i>
  </separator>
  <separator name="ionic" >
   <i type="int" name="NSW">     0</i>
   <i type="int" name="IBRION">    -1</i>
   <i type="int" name="MDALGO">     0</i>
   <i type="int" name="ISIF">    -1</i>
   <i name="PSTRESS">      0.00000000</i>
   <i name="EDIFFG">      0.00000001</i>
   <i type="int" name="NFREE">     0</i>
   <i name="POTIM">      0.50000000</i>
   <i name="SMASS">     -3.00000000</i>
   <i name="SCALEE">      1.00000000</i>
  </separator>
  <separator name="ionic md" >
   <i name="TEBEG">      0.00010000</i>
   <i name="TEEND">      0.00010000</i>
   <i type="int" name="NBLOCK">     1</i>
   <i type="int" name="KBLOCK">     1</i>
   <i type="int" name="NPACO">   256</i>
   <i name="APACO">     16.00000000</i>
  </separator>
  <separator name="symmetry" >
   <i type="int" name="ISYM">     2</i>
   <i name="SYMPREC">      0.00001000</i>
  </separator>
  <separator name="dos" >
   <i type="int" name="LORBIT">     0</i>
   <v name="RWIGS">     -1.00000000     -1.00000000     -1.00000000</v>
   <i type="int" name="NEDOS">   301</i>
   <i name="EMIN">     10.00000000</i>
   <i name="EMAX">    -10.00000000</i>
   <i name="EFERMI">      0.00000000</i>
  </separator>
  <separator name="writing" >
   <i type="int" name="NWRITE">     2</i>
   <i type="logical" name="LWAVE"> T  </i>
   <i type="logical" name="LDOWNSAMPLE"> F  </i>
   <i type="logical" name="LCHARG"> T  </i>
   <i type="logical" name="LPARD"> F  </i>
   <i type="logical" name="LVTOT"> F  </i>
   <i type="logical" name="LVHAR"> F  </i>
   <i type="logical" name="LELF"> F  </i>
   <i type="logical" name="LOPTICS"> F  </i>
   <v name="STM">      0.00000000      0.00000000      0.00000000      0.00000000      0.00000000      0.00000000      0.00000000</v>
  </separator>
  <separator name="performance" >
   <i type="int" name="NPAR">     6</i>
   <i type="int" name="NSIM">     4</i>
   <i type="int" name="NBLK">    -1</i>
   <i type="logical" name="LPLANE"> T  </i>
   <i type="logical" name="LSCALAPACK"> T  </i>
   <i type="logical" name="LSCAAWARE"> F  </i>
   <i type="logical" name="LSCALU"> F  </i>
   <i type="logical" name="LASYNC"> F  </i>
   <i type="logical" name="LORBITALREAL"> F  </i>
  </separator>
  <separator name="miscellaneous" >
   <i type="int" name="IDIOT">     3</i>
   <i type="int" name="PHON_NSTRUCT">    -1</i>
   <i type="logical" name="LMUSIC"> F  </i>
   <v name="POMASS">     10.81100000     95.94000000     28.08500000</v>
   <v name="DARWINR">      0.00000000      0.00000000      0.00000000</v>
   <v name="DARWINV">      1.00000000      1.00000000      1.00000000</v>
   <i type="logical" name="LCORR"> T  </i>
  </separator>
  <i type="logical" name="GGA_COMPAT"> T  </i>
  <i type="logical" name="LBERRY"> F  </i>
  <i type="int" name="ICORELEVEL">     0</i>
  <i type="logical" name="LDAU"> F  </i>
  <i type="int" name="I_CONSTRAINED_M">     0</i>
  <separator name="electronic exchange-correlation" >
   <i type="string" name="GGA">--</i>
   <i type="int" name="VOSKOWN">     0</i>
   <i type="logical" name="LHFCALC"> F  </i>
   <i type="string" name="PRECFOCK"></i>
   <i type="logical" name="LSYMGRAD"> F  </i>
   <i type="logical" name="LHFONE"> F  </i>
   <i type="logical" name="LRHFCALC"> F  </i>
   <i type="logical" name="LTHOMAS"> F  </i>
   <i type="logical" name="LMODELHF"> F  </i>
   <i type="logical" name="LFOCKACE"> F  </i>
   <i name="ENCUT4O">     -1.00000000</i>
   <i type="int" name="EXXOEP">     0</i>
   <i type="int" name="FOURORBIT">     0</i>
   <i name="AEXX">      0.00000000</i>
   <i name="HFALPHA">      0.00000000</i>
   <i name="MCALPHA">      0.00000000</i>
   <i name="ALDAX">      1.00000000</i>
   <i name="AGGAX">      1.00000000</i>
   <i name="ALDAC">      1.00000000</i>
   <i name="AGGAC">      1.00000000</i>
   <i type="int" name="NKREDX">     1</i>
   <i type="int" name="NKREDY">     1</i>
   <i type="int" name="NKREDZ">     1</i>
   <i type="logical" name="SHIFTRED"> F  </i>
   <i type="logical" name="ODDONLY"> F  </i>
   <i type="logical" name="EVENONLY"> F  </i>
   <i type="int" name="LMAXFOCK">     0</i>
   <i type="int" name="NMAXFOCKAE">     0</i>
   <i type="logical" name="LFOCKAEDFT"> F  </i>
   <i name="HFSCREEN">      0.00000000</i>
   <i name="HFSCREENC">      0.00000000</i>
   <i type="int" name="NBANDSGWLOW">     0</i>
  </separator>
  <separator name="vdW DFT" >
   <i type="logical" name="LUSE_VDW"> F  </i>
   <i name="Zab_VDW">     -0.84910000</i>
   <i name="PARAM1">      0.12340000</i>
   <i name="PARAM2">      1.00000000</i>
   <i name="PARAM3">      0.00000000</i>
  </separator>
  <separator name="model GW" >
   <i type="int" name="MODEL_GW">     0</i>
   <i name="MODEL_EPS0">     10.30967331</i>
   <i name="MODEL_ALPHA">      1.00000000</i>
  </separator>
  <separator name="linear response parameters" >
   <i type="logical" name="LEPSILON"> F  </i>
   <i type="logical" name="LRPA"> F  </i>
   <i type="logical" name="LNABLA"> F  </i>
   <i type="logical" name="LVEL"> F  </i>
   <i type="int" name="KINTER">     0</i>
   <i name="CSHIFT">      0.10000000</i>
   <i name="OMEGAMAX">     -1.00000000</i>
   <i name="DEG_THRESHOLD">      0.00200000</i>
   <i name="RTIME">     -0.10000000</i>
   <i name="WPLASMAI">      0.00000000</i>
   <v name="DFIELD">      0.00000000      0.00000000      0.00000000</v>
   <v name="WPLASMA">      0.00000000      0.00000000      0.00000000      0.00000000      0.00000000      0.00000000      0.00000000      0.00000000      0.00000000</v>
  </separator>
  <separator name="orbital magnetization" >
   <i type="logical" name="NUCIND"> F  </i>
   <v name="MAGPOS">      0.00000000      0.00000000      0.00000000</v>
   <i type="logical" name="LNICSALL"> T  </i>
   <i type="logical" name="ORBITALMAG"> F  </i>
   <i type="logical" name="LMAGBLOCH"> F  </i>
   <i type="logical" name="LCHIMAG"> F  </i>
   <i type="logical" name="LGAUGE"> T  </i>
   <i type="int" name="MAGATOM">     0</i>
   <v name="MAGDIPOL">      0.00000000      0.00000000      0.00000000</v>
   <v name="AVECCONST">      0.00000000      0.00000000      0.00000000</v>
  </separator>
  <separator name="response functions" >
   <i type="logical" name="LFINITE_TEMPERATURE"> F  </i>
   <i type="logical" name="LADDER"> F  </i>
   <i type="logical" name="LRPAFORCE"> F  </i>
   <i type="logical" name="LFXC"> F  </i>
   <i type="logical" name="LHARTREE"> T  </i>
   <i type="int" name="IBSE">     0</i>
   <v type="int" name="KPOINT">    -1     0     0     0</v>
   <i type="logical" name="LTCTC"> F  </i>
   <i type="logical" name="LTCTE"> F  </i>
   <i type="logical" name="LTETE"> F  </i>
   <i type="logical" name="LTRIPLET"> F  </i>
   <i type="logical" name="LFXCEPS"> F  </i>
   <i type="logical" name="LFXHEG"> F  </i>
   <i type="int" name="NATURALO">     2</i>
   <i type="logical" name="LHOLEGF"> F  </i>
   <i type="logical" name="L2ORDER"> F  </i>
   <i type="logical" name="LDMP1"> F  </i>
   <i type="logical" name="LMP2LT"> F  </i>
   <i type="logical" name="LSMP2LT"> F  </i>
   <i type="logical" name="LGWLF"> F  </i>
   <i name="ENCUTGW">     -2.00000000</i>
   <i name="ENCUTGWSOFT">     -2.00000000</i>
   <i name="ENCUTLF">     -1.00000000</i>
   <i type="logical" name="LESF_SPLINES"> F  </i>
   <i type="int" name="LMAXMP2">    -1</i>
   <i name="SCISSOR">      0.00000000</i>
   <i type="int" name="NOMEGA">     0</i>
   <i type="int" name="NOMEGAR">     0</i>
   <i type="int" name="NBANDSGW">    -1</i>
   <i type="int" name="NBANDSO">    -1</i>
   <i type="int" name="NBANDSV">    -1</i>
   <i type="int" name="NELM">   100</i>
   <i type="int" name="NELMHF">     1</i>
   <i type="int" name="DIM">     3</i>
   <i type="int" name="IESPILON">     4</i>
   <i type="int" name="ANTIRES">     0</i>
   <i name="OMEGAMAX">    -30.00000000</i>
   <i name="OMEGAMIN">    -30.00000000</i>
   <i name="OMEGATL">   -200.00000000</i>
   <i type="int" name="OMEGAGRID">     0</i>
   <i name="CSHIFT">     -0.10000000</i>
   <i type="logical" name="LSELFENERGY"> F  </i>
   <i type="logical" name="LSPECTRAL"> F  </i>
   <i type="logical" name="LSPECTRALGW"> F  </i>
   <i type="logical" name="LSINGLES"> F  </i>
   <i type="logical" name="LFERMIGW"> F  </i>
   <i type="logical" name="ODDONLYGW"> F  </i>
   <i type="logical" name="EVENONLYGW"> F  </i>
   <i type="int" name="NKREDLFX">     1</i>
   <i type="int" name="NKREDLFY">     1</i>
   <i type="int" name="NKREDLFZ">     1</i>
   <i type="int" name="MAXMEM">  2800</i>
   <i type="int" name="TELESCOPE">     0</i>
   <i type="int" name="NTAUPAR">    -1</i>
   <i type="int" name="NOMEGAPAR">    -1</i>
   <i name="DAMP_NEWTON">      0.80000001</i>
   <i name="LAMBDA">      1.00000000</i>
  </separator>
  <separator name="External order field" >
   <i name="OFIELD_KAPPA">      0.00000000</i>
   <v name="OFIELD_K">      0.00000000      0.00000000      0.00000000</v>
   <i name="OFIELD_Q6_NEAR">      0.00000000</i>
   <i name="OFIELD_Q6_FAR">      0.00000000</i>
   <i name="OFIELD_A">      0.00000000</i>
  </separator>
 </parameters>
 <atominfo>
  <atoms>      12 </atoms>
  <types>       3 </types>
  <array name="atoms" >
   <dimension dim="1">ion</dimension>
   <field type="string">element</field>
   <field type="int">atomtype</field>
   <set>
    <rc><c>B </c><c>   1</c></rc>
    <rc><c>B </c><c>   1</c></rc>
    <rc><c>Mo</c><c>   2</c></rc>
    <rc><c>Mo</c><c>   2</c></rc>
    <rc><c>Mo</c><c>   2</c></rc>
    <rc><c>Mo</c><c>   2</c></rc>
    <rc><c>Mo</c><c>   2</c></rc>
    <rc><c>Mo</c><c>   2</c></rc>
    <rc><c>Si</c><c>   3</c></rc>
    <rc><c>Si</c><c>   3</c></rc>
    <rc><c>Si</c><c>   3</c></rc>
    <rc><c>Si</c><c>   3</c></rc>
   </set>
  </array>
  <array name="atomtypes" >
   <dimension dim="1">type</dimension>
   <field type="int">atomspertype</field>
   <field type="string">element</field>
   <field>mass</field>
   <field>valence</field>
   <field type="string">pseudopotential</field>
   <set>
    <rc><c>   2</c><c>B </c><c>     10.81100000</c><c>      3.00000000</c><c>  PAW_PBE B 06Sep2000                   </c></rc>
    <rc><c>   6</c><c>Mo</c><c>     95.94000000</c><c>     14.00000000</c><c>  PAW_PBE Mo_sv 02Feb2006               </c></rc>
    <rc><c>   4</c><c>Si</c><c>     28.08500000</c><c>      4.00000000</c><c>  PAW_PBE Si 05Jan2001                  </c></rc>
   </set>
  </array>
 </atominfo>
 <structure name="initialpos" >
  <crystal>
   <varray name="basis" >
    <v>       5.76727730       0.00000000      -3.21767648 </v>
    <v>      -1.98856223       5.41360394      -3.21767648 </v>
    <v>       0.00000000       0.00000000       6.60416000 </v>
   </varray>
   <i name="volume">    206.19346615 </i>
   <varray name="rec_basis" >
    <v>       0.17339204       0.06369156       0.00000000 </v>
    <v>       0.00000000       0.18471983       0.00000000 </v>
    <v>       0.08448001       0.12103091       0.15141971 </v>
   </varray>
  </crystal>
  <varray name="positions" >
   <v>       0.25000000       0.25000000       0.00000000 </v>
   <v>       0.75000000       0.75000000       0.00000000 </v>
   <v>       0.75113000       0.25113000       0.00225000 </v>
   <v>       0.50000000       0.50000000       0.00000000 </v>
   <v>       0.24887000       0.74887000       0.99775000 </v>
   <v>       0.25113000       0.24887000       0.50000000 </v>
   <v>       0.74887000       0.75113000       0.50000000 </v>
   <v>       0.00000000       0.00000000       0.00000000 </v>
   <v>       0.50000000       0.00000000       0.00000000 </v>
   <v>       0.00000000       0.00000000       0.50000000 </v>
   <v>       0.00000000       0.50000000       0.00000000 </v>
   <v>       0.50000000       0.50000000       0.50000000 </v>
  </varray>
 </structure>
 <calculation>
  <scstep>
   <time name="total">   32.62   32.92</time>
   <energy>
    <i name="alphaZ">    446.90332849 </i>
    <i name="ewald">  -7859.32337077 </i>
    <i name="hartreedc">  -3659.79149872 </i>
    <i name="XCdc">    454.69195161 </i>
    <i name="pawpsdc">   9333.50011946 </i>
    <i name="pawaedc">  -9270.82734050 </i>
    <i name="eentropy">     -0.00081377 </i>
    <i name="bandstr">   -138.37498171 </i>
    <i name="atom">  11728.30056431 </i>
    <i name="e_fr_energy">   1035.07795840 </i>
    <i name="e_wo_entrp">   1035.07877217 </i>
    <i name="e_0_energy">   1035.07836528 </i>
   </energy>
  </scstep>
  <scstep>
   <time name="total">   32.43   33.27</time>
   <energy>
    <i name="e_fr_energy">   -177.72820556 </i>
    <i name="e_wo_entrp">   -177.72668605 </i>
    <i name="e_0_energy">   -177.72744580 </i>
   </energy>
  </scstep>
  <scstep>
   <time name="total">   37.41   38.28</time>
   <energy>
    <i name="e_fr_energy">   -227.42976489 </i>
    <i name="e_wo_entrp">   -227.42825158 </i>
    <i name="e_0_energy">   -227.42900823 </i>
   </energy>
  </scstep>
  <scstep>
   <time name="total">   35.04   35.87</time>
   <energy>
    <i name="e_fr_energy">   -228.67451526 </i>
    <i name="e_wo_entrp">   -228.67290307 </i>
    <i name="e_0_energy">   -228.67370916 </i>
   </energy>
  </scstep>
  <scstep>
   <time name="total">   37.71   38.46</time>
   <energy>
    <i name="e_fr_energy">   -228.70475425 </i>
    <i name="e_wo_entrp">   -228.70312516 </i>
    <i name="e_0_energy">   -228.70393971 </i>
   </energy>
  </scstep>
  <scstep>
   <time name="total">   40.78   46.66</time>
   <energy>
    <i name="e_fr_energy">   -180.61336359 </i>
    <i name="e_wo_entrp">   -180.61157462 </i>
    <i name="e_0_energy">   -180.61246910 </i>
   </energy>
  </scstep>
  <scstep>
   <time name="total">   43.77   44.20</time>
   <energy>
    <i name="e_fr_energy">   -186.49504413 </i>
    <i name="e_wo_entrp">   -186.49383385 </i>
    <i name="e_0_energy">   -186.49443899 </i>
   </energy>
  </scstep>
  <scstep>
   <time name="total">   44.11   44.83</time>
   <energy>
    <i name="e_fr_energy">   -187.33052743 </i>
    <i name="e_wo_entrp">   -187.32913988 </i>
    <i name="e_0_energy">   -187.32983366 </i>
   </energy>
  </scstep>
  <scstep>
   <time name="total">   45.57   46.33</time>
   <energy>
    <i name="e_fr_energy">   -187.59414226 </i>
    <i name="e_wo_entrp">   -187.59272835 </i>
    <i name="e_0_energy">   -187.59343530 </i>
   </energy>
  </scstep>
  <scstep>
   <time name="total">   44.18   44.73</time>
   <energy>
    <i name="e_fr_energy">   -187.68265167 </i>
    <i name="e_wo_entrp">   -187.68120881 </i>
    <i name="e_0_energy">   -187.68193024 </i>
   </energy>
  </scstep>
  <scstep>
   <time name="total">   45.73   46.38</time>
   <energy>
    <i name="e_fr_energy">   -187.71104538 </i>
    <i name="e_wo_entrp">   -187.70947213 </i>
    <i name="e_0_energy">   -187.71025876 </i>
   </energy>
  </scstep>
  <scstep>
   <time name="total">   42.20   42.52</time>
   <energy>
    <i name="e_fr_energy">   -187.72525805 </i>
    <i name="e_wo_entrp">   -187.72364768 </i>
    <i name="e_0_energy">   -187.72445287 </i>
   </energy>
  </scstep>
  <scstep>
   <time name="total">   42.05   42.79</time>
   <energy>
    <i name="e_fr_energy">   -187.73145609 </i>
    <i name="e_wo_entrp">   -187.72981537 </i>
    <i name="e_0_energy">   -187.73063573 </i>
   </energy>
  </scstep>
  <scstep>
   <time name="total">   42.22   42.88</time>
   <energy>
    <i name="e_fr_energy">   -187.73402882 </i>
    <i name="e_wo_entrp">   -187.73237098 </i>
    <i name="e_0_energy">   -187.73319990 </i>
   </energy>
  </scstep>
  <scstep>
   <time name="total">   41.03   41.43</time>
   <energy>
    <i name="e_fr_energy">   -187.73493911 </i>
    <i name="e_wo_entrp">   -187.73326988 </i>
    <i name="e_0_energy">   -187.73410450 </i>
   </energy>
  </scstep>
  <scstep>
   <time name="total">   41.96   42.39</time>
   <energy>
    <i name="e_fr_energy">   -187.73530955 </i>
    <i name="e_wo_entrp">   -187.73363898 </i>
    <i name="e_0_energy">   -187.73447427 </i>
   </energy>
  </scstep>
  <scstep>
   <time name="total">   43.72   44.35</time>
   <energy>
    <i name="e_fr_energy">   -187.73547744 </i>
    <i name="e_wo_entrp">   -187.73380071 </i>
    <i name="e_0_energy">   -187.73463907 </i>
   </energy>
  </scstep>
  <scstep>
   <time name="total">   42.72   43.16</time>
   <energy>
    <i name="e_fr_energy">   -187.73554966 </i>
    <i name="e_wo_entrp">   -187.73387722 </i>
    <i name="e_0_energy">   -187.73471344 </i>
   </energy>
  </scstep>
  <scstep>
   <time name="total">   44.13   44.46</time>
   <energy>
    <i name="e_fr_energy">   -187.73558699 </i>
    <i name="e_wo_entrp">   -187.73391428 </i>
    <i name="e_0_energy">   -187.73475064 </i>
   </energy>
  </scstep>
  <scstep>
   <time name="total">   45.28   45.62</time>
   <energy>
    <i name="e_fr_energy">   -187.73560760 </i>
    <i name="e_wo_entrp">   -187.73393745 </i>
    <i name="e_0_energy">   -187.73477252 </i>
   </energy>
  </scstep>
  <scstep>
   <time name="total">   43.28   43.62</time>
   <energy>
    <i name="e_fr_energy">   -187.73561696 </i>
    <i name="e_wo_entrp">   -187.73394677 </i>
    <i name="e_0_energy">   -187.73478186 </i>
   </energy>
  </scstep>
  <scstep>
   <time name="total">   42.65   43.24</time>
   <energy>
    <i name="e_fr_energy">   -187.73562062 </i>
    <i name="e_wo_entrp">   -187.73395228 </i>
    <i name="e_0_energy">   -187.73478645 </i>
   </energy>
  </scstep>
  <scstep>
   <time name="total">   47.02   47.95</time>
   <energy>
    <i name="e_fr_energy">   -187.73562275 </i>
    <i name="e_wo_entrp">   -187.73395460 </i>
    <i name="e_0_energy">   -187.73478868 </i>
   </energy>
  </scstep>
  <scstep>
   <time name="total">   43.30   43.93</time>
   <energy>
    <i name="e_fr_energy">   -187.73562387 </i>
    <i name="e_wo_entrp">   -187.73395650 </i>
    <i name="e_0_energy">   -187.73479018 </i>
   </energy>
  </scstep>
  <scstep>
   <time name="total">   43.65   44.63</time>
   <energy>
    <i name="e_fr_energy">   -187.73562431 </i>
    <i name="e_wo_entrp">   -187.73395704 </i>
    <i name="e_0_energy">   -187.73479067 </i>
   </energy>
  </scstep>
  <scstep>
   <time name="total">   44.97   45.66</time>
   <energy>
    <i name="e_fr_energy">   -187.73562453 </i>
    <i name="e_wo_entrp">   -187.73395721 </i>
    <i name="e_0_energy">   -187.73479087 </i>
   </energy>
  </scstep>
  <scstep>
   <time name="total">   41.95   42.29</time>
   <energy>
    <i name="e_fr_energy">   -187.73562463 </i>
    <i name="e_wo_entrp">   -187.73395734 </i>
    <i name="e_0_energy">   -187.73479099 </i>
   </energy>
  </scstep>
  <scstep>
   <time name="total">   44.11   44.56</time>
   <energy>
    <i name="e_fr_energy">   -187.73562470 </i>
    <i name="e_wo_entrp">   -187.73395724 </i>
    <i name="e_0_energy">   -187.73479097 </i>
   </energy>
  </scstep>
  <scstep>
   <time name="total">   46.06   46.47</time>
   <energy>
    <i name="e_fr_energy">   -187.73562472 </i>
    <i name="e_wo_entrp">   -187.73395723 </i>
    <i name="e_0_energy">   -187.73479098 </i>
   </energy>
  </scstep>
  <scstep>
   <time name="total">   42.22   42.59</time>
   <energy>
    <i name="e_fr_energy">   -187.73562474 </i>
    <i name="e_wo_entrp">   -187.73395721 </i>
    <i name="e_0_energy">   -187.73479097 </i>
   </energy>
  </scstep>
  <scstep>
   <time name="total">   45.84   46.28</time>
   <energy>
    <i name="e_fr_energy">   -187.73562475 </i>
    <i name="e_wo_entrp">   -187.73395717 </i>
    <i name="e_0_energy">   -187.73479096 </i>
   </energy>
  </scstep>
  <scstep>
   <time name="total">   44.75   45.26</time>
   <energy>
    <i name="e_fr_energy">   -187.73562475 </i>
    <i name="e_wo_entrp">   -187.73395716 </i>
    <i name="e_0_energy">   -187.73479095 </i>
   </energy>
  </scstep>
  <scstep>
   <time name="total">   42.49   43.34</time>
   <energy>
    <i name="e_fr_energy">   -187.73562475 </i>
    <i name="e_wo_entrp">   -187.73395715 </i>
    <i name="e_0_energy">   -187.73479095 </i>
   </energy>
  </scstep>
  <scstep>
   <time name="total">   43.76   44.39</time>
   <energy>
    <i name="e_fr_energy">   -187.73562475 </i>
    <i name="e_wo_entrp">   -187.73395714 </i>
    <i name="e_0_energy">   -187.73479094 </i>
   </energy>
  </scstep>
  <scstep>
   <time name="total">   48.06   48.43</time>
   <energy>
    <i name="alphaZ">    446.90332849 </i>
    <i name="ewald">  -7859.32337077 </i>
    <i name="hartreedc">  -3592.04999775 </i>
    <i name="XCdc">    466.69038572 </i>
    <i name="pawpsdc">  13369.04741188 </i>
    <i name="pawaedc"> -13323.39999212 </i>
    <i name="eentropy">     -0.00166761 </i>
    <i name="bandstr">  -1423.90228691 </i>
    <i name="atom">  11728.30056431 </i>
    <i name="e_fr_energy">   -187.73562475 </i>
    <i name="e_wo_entrp">   -187.73395714 </i>
    <i name="e_0_energy">   -187.73479095 </i>
   </energy>
  </scstep>
  <structure>
   <crystal>
    <varray name="basis" >
     <v>       5.76727730       0.00000000      -3.21767648 </v>
     <v>      -1.98856223       5.41360394      -3.21767648 </v>
     <v>       0.00000000       0.00000000       6.60416000 </v>
    </varray>
    <i name="volume">    206.19346615 </i>
    <varray name="rec_basis" >
     <v>       0.17339204       0.06369156       0.00000000 </v>
     <v>       0.00000000       0.18471983       0.00000000 </v>
     <v>       0.08448001       0.12103091       0.15141971 </v>
    </varray>
   </crystal>
   <varray name="positions" >
    <v>       0.25000000       0.25000000       0.00000000 </v>
    <v>       0.75000000       0.75000000       0.00000000 </v>
    <v>       0.75113000       0.25113000       0.00225000 </v>
    <v>       0.50000000       0.50000000       0.00000000 </v>
    <v>       0.24887000       0.74887000       0.99775000 </v>
    <v>       0.25113000       0.24887000       0.50000000 </v>
    <v>       0.74887000       0.75113000       0.50000000 </v>
    <v>       0.00000000       0.00000000       0.00000000 </v>
    <v>       0.50000000       0.00000000       0.00000000 </v>
    <v>       0.00000000       0.00000000       0.50000000 </v>
    <v>       0.00000000       0.50000000       0.00000000 </v>
    <v>       0.50000000       0.50000000       0.50000000 </v>
   </varray>
  </structure>
  <varray name="forces" >
   <v>       0.00000000       0.00000000       0.00000000 </v>
   <v>       0.00000000       0.00000000       0.00000000 </v>
   <v>       0.00000000       0.00000000       0.00000000 </v>
   <v>       0.00000000       0.00000000       0.00000000 </v>
   <v>       0.00000000       0.00000000       0.00000000 </v>
   <v>       0.00000000       0.00000000       0.00000000 </v>
   <v>       0.00000000       0.00000000       0.00000000 </v>
   <v>       0.00000000       0.00000000       0.00000000 </v>
   <v>       0.00000000       0.00000000       0.00000000 </v>
   <v>       0.00000000       0.00000000       0.00000000 </v>
   <v>       0.00000000       0.00000000       0.00000000 </v>
   <v>       0.00000000       0.00000000       0.00000000 </v>
  </varray>
  <varray name="stress" >
   <v>       0.00000000       0.00000000       0.00000000 </v>
   <v>       0.00000000       0.00000000       0.00000000 </v>
   <v>       0.00000000       0.00000000       0.00000000 </v>
  </varray>
  <energy>
   <i name="e_fr_energy">   -187.73562475 </i>
   <i name="e_wo_entrp">   -187.73395714 </i>
   <i name="e_0_energy">   -187.73479095 </i>
  </energy>
  <time name="totalsc"> 1494.52 1519.98</time>
  <eigenvalues>
   <array>
    <dimension dim="1">band</dimension>
    <dimension dim="2">kpoint</dimension>
    <dimension dim="3">spin</dimension>
    <field>eigene</field>
    <field>occ</field>
    <set>
     <set comment="spin 1">
      <set comment="kpoint 1">
       <r>  -55.0547    1.0000 </r>
       <r>  -54.8169    1.0000 </r>
       <r>  -54.4401    1.0000 </r>
       <r>  -54.4263    1.0000 </r>
       <r>  -54.4179    1.0000 </r>
       <r>  -54.1797    1.0000 </r>
       <r>  -29.8656    1.0000 </r>
       <r>  -29.8571    1.0000 </r>
       <r>  -28.4649    1.0000 </r>
       <r>  -28.4623    1.0000 </r>
       <r>  -28.3915    1.0000 </r>
       <r>  -28.2518    1.0000 </r>
       <r>  -28.1940    1.0000 </r>
       <r>  -28.1922    1.0000 </r>
       <r>  -27.9418    1.0000 </r>
       <r>  -27.9328    1.0000 </r>
       <r>  -27.9062    1.0000 </r>
       <r>  -27.8264    1.0000 </r>
       <r>  -27.7354    1.0000 </r>
       <r>  -27.7251    1.0000 </r>
       <r>  -27.7216    1.0000 </r>
       <r>  -27.6577    1.0000 </r>
       <r>  -26.6404    1.0000 </r>
       <r>  -26.6306    1.0000 </r>
       <r>   -3.7279    1.0000 </r>
       <r>   -0.8671    1.0000 </r>
       <r>   -0.1280    1.0000 </r>
       <r>   -0.1240    1.0000 </r>
       <r>    0.6580    1.0000 </r>
       <r>    2.9986    1.0000 </r>
       <r>    3.2329    1.0000 </r>
       <r>    3.2366    1.0000 </r>
       <r>    3.5287    1.0000 </r>
       <r>    3.5310    1.0000 </r>
       <r>    3.5748    1.0000 </r>
       <r>    3.6267    1.0000 </r>
       <r>    3.7399    1.0000 </r>
       <r>    3.7401    1.0000 </r>
       <r>    3.7452    1.0000 </r>
       <r>    3.9432    1.0000 </r>
       <r>    3.9486    1.0000 </r>
       <r>    5.3076    1.0000 </r>
       <r>    5.8442    1.0000 </r>
       <r>    6.1019    1.0000 </r>
       <r>    6.1703    1.0000 </r>
       <r>    6.1751    1.0000 </r>
       <r>    6.7344    1.0000 </r>
       <r>    7.5530    1.0000 </r>
       <r>    7.6013    1.0000 </r>
       <r>    7.6046    1.0000 </r>
       <r>    7.6174    1.0000 </r>
       <r>    7.7252    1.0000 </r>
       <r>    7.7810    1.0000 </r>
       <r>    7.7874    1.0000 </r>
       <r>    8.0673    0.0000 </r>
       <r>    8.2056    0.0000 </r>
       <r>    8.2162    0.0000 </r>
       <r>    9.5841    0.0000 </r>
       <r>    9.5861    0.0000 </r>
       <r>    9.7169    0.0000 </r>
       <r>    9.9617    0.0000 </r>
       <r>   10.5730    0.0000 </r>
       <r>   10.6713    0.0000 </r>
       <r>   10.8425    0.0000 </r>
       <r>   11.0272    0.0000 </r>
       <r>   11.5392    0.0000 </r>
      </set>
      <set comment="kpoint 2">
       <r>  -55.0462    1.0000 </r>
       <r>  -54.8355    1.0000 </r>
       <r>  -54.4346    1.0000 </r>
       <r>  -54.4186    1.0000 </r>
       <r>  -54.4116    1.0000 </r>
       <r>  -54.1889    1.0000 </r>
       <r>  -29.8294    1.0000 </r>
       <r>  -29.8208    1.0000 </r>
       <r>  -28.7216    1.0000 </r>
       <r>  -28.7026    1.0000 </r>
       <r>  -28.3849    1.0000 </r>
       <r>  -28.2110    1.0000 </r>
       <r>  -27.9892    1.0000 </r>
       <r>  -27.9485    1.0000 </r>
       <r>  -27.9368    1.0000 </r>
       <r>  -27.9185    1.0000 </r>
       <r>  -27.9077    1.0000 </r>
       <r>  -27.8162    1.0000 </r>
       <r>  -27.7377    1.0000 </r>
       <r>  -27.7324    1.0000 </r>
       <r>  -27.7215    1.0000 </r>
       <r>  -27.6578    1.0000 </r>
       <r>  -26.6859    1.0000 </r>
       <r>  -26.6759    1.0000 </r>
       <r>   -3.6298    1.0000 </r>
       <r>   -1.1398    1.0000 </r>
       <r>   -0.1468    1.0000 </r>
       <r>    0.0358    1.0000 </r>
       <r>    0.5385    1.0000 </r>
       <r>    2.5865    1.0000 </r>
       <r>    3.0773    1.0000 </r>
       <r>    3.3388    1.0000 </r>
       <r>    3.3727    1.0000 </r>
       <r>    3.4134    1.0000 </r>
       <r>    3.5493    1.0000 </r>
       <r>    3.7751    1.0000 </r>
       <r>    3.8145    1.0000 </r>
       <r>    3.8766    1.0000 </r>
       <r>    4.2226    1.0000 </r>
       <r>    4.4897    1.0000 </r>
       <r>    4.6128    1.0000 </r>
       <r>    5.0954    1.0000 </r>
       <r>    5.4241    1.0000 </r>
       <r>    6.1274    1.0000 </r>
       <r>    6.1646    1.0000 </r>
       <r>    6.3186    1.0000 </r>
       <r>    6.3517    1.0000 </r>
       <r>    6.9291    1.0000 </r>
       <r>    7.1454    1.0000 </r>
       <r>    7.4047    1.0000 </r>
       <r>    7.6021    1.0000 </r>
       <r>    7.6726    1.0000 </r>
       <r>    7.7080    1.0000 </r>
       <r>    8.1629    0.0000 </r>
       <r>    8.1988    0.0000 </r>
       <r>    8.6996    0.0000 </r>
       <r>    8.9914    0.0000 </r>
       <r>    9.1438    0.0000 </r>
       <r>    9.4701    0.0000 </r>
       <r>    9.4979    0.0000 </r>
       <r>   10.0320    0.0000 </r>
       <r>   10.0812    0.0000 </r>
       <r>   10.5626    0.0000 </r>
       <r>   10.9710    0.0000 </r>
       <r>   11.0740    0.0000 </r>
       <r>   11.2863    0.0000 </r>
      </set>
      <set comment="kpoint 3">
       <r>  -55.0215    1.0000 </r>
       <r>  -54.8802    1.0000 </r>
       <r>  -54.4309    1.0000 </r>
       <r>  -54.4208    1.0000 </r>
       <r>  -54.3663    1.0000 </r>
       <r>  -54.2158    1.0000 </r>
       <r>  -29.7225    1.0000 </r>
       <r>  -29.7130    1.0000 </r>
       <r>  -29.0370    1.0000 </r>
       <r>  -29.0173    1.0000 </r>
       <r>  -28.3655    1.0000 </r>
       <r>  -28.2502    1.0000 </r>
       <r>  -27.9317    1.0000 </r>
       <r>  -27.9120    1.0000 </r>
       <r>  -27.8781    1.0000 </r>
       <r>  -27.8201    1.0000 </r>
       <r>  -27.7539    1.0000 </r>
       <r>  -27.7502    1.0000 </r>
       <r>  -27.7159    1.0000 </r>
       <r>  -27.6989    1.0000 </r>
       <r>  -27.6259    1.0000 </r>
       <r>  -27.5812    1.0000 </r>
       <r>  -26.8198    1.0000 </r>
       <r>  -26.8077    1.0000 </r>
       <r>   -3.3431    1.0000 </r>
       <r>   -1.6967    1.0000 </r>
       <r>   -0.1705    1.0000 </r>
       <r>    0.2756    1.0000 </r>
       <r>    0.3396    1.0000 </r>
       <r>    1.8414    1.0000 </r>
       <r>    3.3032    1.0000 </r>
       <r>    3.3547    1.0000 </r>
       <r>    3.4074    1.0000 </r>
       <r>    3.6576    1.0000 </r>
       <r>    3.8520    1.0000 </r>
       <r>    4.0066    1.0000 </r>
       <r>    4.0944    1.0000 </r>
       <r>    4.1120    1.0000 </r>
       <r>    4.5479    1.0000 </r>
       <r>    4.5889    1.0000 </r>
       <r>    4.8991    1.0000 </r>
       <r>    5.4666    1.0000 </r>
       <r>    5.6450    1.0000 </r>
       <r>    5.7194    1.0000 </r>
       <r>    5.9394    1.0000 </r>
       <r>    5.9723    1.0000 </r>
       <r>    6.1876    1.0000 </r>
       <r>    6.7462    1.0000 </r>
       <r>    6.9881    1.0000 </r>
       <r>    7.1009    1.0000 </r>
       <r>    7.2105    1.0000 </r>
       <r>    7.5553    1.0000 </r>
       <r>    7.6056    1.0000 </r>
       <r>    8.1992    0.0000 </r>
       <r>    8.6883    0.0000 </r>
       <r>    8.9672    0.0000 </r>
       <r>    8.9902    0.0000 </r>
       <r>    9.0469    0.0000 </r>
       <r>    9.3511    0.0000 </r>
       <r>    9.6398    0.0000 </r>
       <r>    9.7203    0.0000 </r>
       <r>    9.8769    0.0000 </r>
       <r>   10.2812    0.0000 </r>
       <r>   10.4061    0.0000 </r>
       <r>   10.4372    0.0000 </r>
       <r>   11.1189    0.0000 </r>
      </set>
      <set comment="kpoint 4">
       <r>  -54.9825    1.0000 </r>
       <r>  -54.9332    1.0000 </r>
       <r>  -54.4275    1.0000 </r>
       <r>  -54.4239    1.0000 </r>
       <r>  -54.3106    1.0000 </r>
       <r>  -54.2579    1.0000 </r>
       <r>  -29.5497    1.0000 </r>
       <r>  -29.5375    1.0000 </r>
       <r>  -29.3180    1.0000 </r>
       <r>  -29.3018    1.0000 </r>
       <r>  -28.3345    1.0000 </r>
       <r>  -28.2945    1.0000 </r>
       <r>  -27.9252    1.0000 </r>
       <r>  -27.9182    1.0000 </r>
       <r>  -27.8311    1.0000 </r>
       <r>  -27.7946    1.0000 </r>
       <r>  -27.7879    1.0000 </r>
       <r>  -27.7707    1.0000 </r>
       <r>  -27.7047    1.0000 </r>
       <r>  -27.6931    1.0000 </r>
       <r>  -27.3094    1.0000 </r>
       <r>  -27.2837    1.0000 </r>
       <r>  -27.0329    1.0000 </r>
       <r>  -27.0152    1.0000 </r>
       <r>   -2.8915    1.0000 </r>
       <r>   -2.3187    1.0000 </r>
       <r>   -0.1270    1.0000 </r>
       <r>    0.0255    1.0000 </r>
       <r>    0.7266    1.0000 </r>
       <r>    1.2212    1.0000 </r>
       <r>    3.5600    1.0000 </r>
       <r>    3.6455    1.0000 </r>
       <r>    3.6626    1.0000 </r>
       <r>    3.9860    1.0000 </r>
       <r>    4.0004    1.0000 </r>
       <r>    4.0683    1.0000 </r>
       <r>    4.1676    1.0000 </r>
       <r>    4.2099    1.0000 </r>
       <r>    4.4275    1.0000 </r>
       <r>    4.4785    1.0000 </r>
       <r>    4.8496    1.0000 </r>
       <r>    4.9602    1.0000 </r>
       <r>    5.3219    1.0000 </r>
       <r>    5.8120    1.0000 </r>
       <r>    6.2915    1.0000 </r>
       <r>    6.5120    1.0000 </r>
       <r>    6.7408    1.0000 </r>
       <r>    6.8298    1.0000 </r>
       <r>    6.9517    1.0000 </r>
       <r>    6.9896    1.0000 </r>
       <r>    7.0936    1.0000 </r>
       <r>    7.5724    1.0000 </r>
       <r>    7.6063    1.0000 </r>
       <r>    7.6774    1.0000 </r>
       <r>    8.2677    0.0000 </r>
       <r>    8.4410    0.0000 </r>
       <r>    8.6732    0.0000 </r>
       <r>    8.7511    0.0000 </r>
       <r>    9.4408    0.0000 </r>
       <r>    9.5150    0.0000 </r>
       <r>    9.9127    0.0000 </r>
       <r>    9.9622    0.0000 </r>
       <r>   10.2756    0.0000 </r>
       <r>   10.4873    0.0000 </r>
       <r>   10.5135    0.0000 </r>
       <r>   10.6057    0.0000 </r>
      </set>
      <set comment="kpoint 5">
       <r>  -55.0386    1.0000 </r>
       <r>  -54.8502    1.0000 </r>
       <r>  -54.4402    1.0000 </r>
       <r>  -54.4187    1.0000 </r>
       <r>  -54.3900    1.0000 </r>
       <r>  -54.1978    1.0000 </r>
       <r>  -29.8627    1.0000 </r>
       <r>  -29.7165    1.0000 </r>
       <r>  -29.0190    1.0000 </r>
       <r>  -28.4762    1.0000 </r>
       <r>  -28.3797    1.0000 </r>
       <r>  -28.2306    1.0000 </r>
       <r>  -28.2238    1.0000 </r>
       <r>  -27.9392    1.0000 </r>
       <r>  -27.9100    1.0000 </r>
       <r>  -27.8985    1.0000 </r>
       <r>  -27.8120    1.0000 </r>
       <r>  -27.7402    1.0000 </r>
       <r>  -27.7378    1.0000 </r>
       <r>  -27.7240    1.0000 </r>
       <r>  -27.6593    1.0000 </r>
       <r>  -27.6210    1.0000 </r>
       <r>  -26.8063    1.0000 </r>
       <r>  -26.6425    1.0000 </r>
       <r>   -3.4528    1.0000 </r>
       <r>   -1.3994    1.0000 </r>
       <r>   -0.4430    1.0000 </r>
       <r>    0.2053    1.0000 </r>
       <r>    0.4738    1.0000 </r>
       <r>    2.5448    1.0000 </r>
       <r>    2.7767    1.0000 </r>
       <r>    3.1603    1.0000 </r>
       <r>    3.3296    1.0000 </r>
       <r>    3.5903    1.0000 </r>
       <r>    3.7423    1.0000 </r>
       <r>    3.8547    1.0000 </r>
       <r>    3.9340    1.0000 </r>
       <r>    4.2043    1.0000 </r>
       <r>    4.4056    1.0000 </r>
       <r>    4.5182    1.0000 </r>
       <r>    5.0414    1.0000 </r>
       <r>    5.2791    1.0000 </r>
       <r>    5.5809    1.0000 </r>
       <r>    5.6902    1.0000 </r>
       <r>    6.1747    1.0000 </r>
       <r>    6.2677    1.0000 </r>
       <r>    6.5897    1.0000 </r>
       <r>    6.6474    1.0000 </r>
       <r>    7.3386    1.0000 </r>
       <r>    7.4302    1.0000 </r>
       <r>    7.5529    1.0000 </r>
       <r>    7.6292    1.0000 </r>
       <r>    7.8672    0.0999 </r>
       <r>    7.9257    0.0000 </r>
       <r>    8.0977    0.0000 </r>
       <r>    8.2318    0.0000 </r>
       <r>    8.9823    0.0000 </r>
       <r>    9.2780    0.0000 </r>
       <r>    9.3541    0.0000 </r>
       <r>    9.6478    0.0000 </r>
       <r>    9.7429    0.0000 </r>
       <r>    9.8808    0.0000 </r>
       <r>   10.0771    0.0000 </r>
       <r>   10.2493    0.0000 </r>
       <r>   10.9012    0.0000 </r>
       <r>   11.2001    0.0000 </r>
      </set>
      <set comment="kpoint 6">
       <r>  -55.0160    1.0000 </r>
       <r>  -54.8881    1.0000 </r>
       <r>  -54.4377    1.0000 </r>
       <r>  -54.4202    1.0000 </r>
       <r>  -54.3509    1.0000 </r>
       <r>  -54.2227    1.0000 </r>
       <r>  -29.8241    1.0000 </r>
       <r>  -29.5451    1.0000 </r>
       <r>  -29.2995    1.0000 </r>
       <r>  -28.7261    1.0000 </r>
       <r>  -28.3624    1.0000 </r>
       <r>  -28.2559    1.0000 </r>
       <r>  -27.9920    1.0000 </r>
       <r>  -27.9342    1.0000 </r>
       <r>  -27.9148    1.0000 </r>
       <r>  -27.8634    1.0000 </r>
       <r>  -27.7901    1.0000 </r>
       <r>  -27.7606    1.0000 </r>
       <r>  -27.7483    1.0000 </r>
       <r>  -27.7206    1.0000 </r>
       <r>  -27.6590    1.0000 </r>
       <r>  -27.3020    1.0000 </r>
       <r>  -27.0131    1.0000 </r>
       <r>  -26.6897    1.0000 </r>
       <r>   -3.1041    1.0000 </r>
       <r>   -1.9234    1.0000 </r>
       <r>   -0.6026    1.0000 </r>
       <r>    0.2161    1.0000 </r>
       <r>    0.5399    1.0000 </r>
       <r>    2.0220    1.0000 </r>
       <r>    2.9637    1.0000 </r>
       <r>    3.3829    1.0000 </r>
       <r>    3.4644    1.0000 </r>
       <r>    3.7806    1.0000 </r>
       <r>    3.9056    1.0000 </r>
       <r>    4.0988    1.0000 </r>
       <r>    4.1080    1.0000 </r>
       <r>    4.2895    1.0000 </r>
       <r>    4.3056    1.0000 </r>
       <r>    4.5898    1.0000 </r>
       <r>    4.9465    1.0000 </r>
       <r>    5.1211    1.0000 </r>
       <r>    5.8538    1.0000 </r>
       <r>    6.1822    1.0000 </r>
       <r>    6.3596    1.0000 </r>
       <r>    6.5190    1.0000 </r>
       <r>    6.6757    1.0000 </r>
       <r>    6.6918    1.0000 </r>
       <r>    6.8718    1.0000 </r>
       <r>    7.1271    1.0000 </r>
       <r>    7.1521    1.0000 </r>
       <r>    7.4029    1.0000 </r>
       <r>    7.6574    1.0000 </r>
       <r>    7.8249    0.9565 </r>
       <r>    8.3190    0.0000 </r>
       <r>    8.5417    0.0000 </r>
       <r>    8.8265    0.0000 </r>
       <r>    8.8654    0.0000 </r>
       <r>    8.9385    0.0000 </r>
       <r>    9.4517    0.0000 </r>
       <r>    9.7748    0.0000 </r>
       <r>    9.8420    0.0000 </r>
       <r>   10.0108    0.0000 </r>
       <r>   10.4057    0.0000 </r>
       <r>   10.6083    0.0000 </r>
       <r>   10.6585    0.0000 </r>
      </set>
      <set comment="kpoint 7">
       <r>  -54.9805    1.0000 </r>
       <r>  -54.9348    1.0000 </r>
       <r>  -54.4330    1.0000 </r>
       <r>  -54.4226    1.0000 </r>
       <r>  -54.3033    1.0000 </r>
       <r>  -54.2613    1.0000 </r>
       <r>  -29.7152    1.0000 </r>
       <r>  -29.5323    1.0000 </r>
       <r>  -29.3137    1.0000 </r>
       <r>  -29.0407    1.0000 </r>
       <r>  -28.3343    1.0000 </r>
       <r>  -28.2944    1.0000 </r>
       <r>  -27.9266    1.0000 </r>
       <r>  -27.9210    1.0000 </r>
       <r>  -27.8231    1.0000 </r>
       <r>  -27.8059    1.0000 </r>
       <r>  -27.7920    1.0000 </r>
       <r>  -27.7710    1.0000 </r>
       <r>  -27.7225    1.0000 </r>
       <r>  -27.7113    1.0000 </r>
       <r>  -27.5681    1.0000 </r>
       <r>  -27.2790    1.0000 </r>
       <r>  -27.0267    1.0000 </r>
       <r>  -26.8243    1.0000 </r>
       <r>   -2.6222    1.0000 </r>
       <r>   -2.5149    1.0000 </r>
       <r>   -0.5725    1.0000 </r>
       <r>   -0.0242    1.0000 </r>
       <r>    0.9820    1.0000 </r>
       <r>    1.4937    1.0000 </r>
       <r>    3.3018    1.0000 </r>
       <r>    3.4929    1.0000 </r>
       <r>    3.7325    1.0000 </r>
       <r>    3.8295    1.0000 </r>
       <r>    3.9821    1.0000 </r>
       <r>    4.0174    1.0000 </r>
       <r>    4.1347    1.0000 </r>
       <r>    4.3373    1.0000 </r>
       <r>    4.3817    1.0000 </r>
       <r>    4.5194    1.0000 </r>
       <r>    4.9293    1.0000 </r>
       <r>    5.3851    1.0000 </r>
       <r>    5.7253    1.0000 </r>
       <r>    5.8334    1.0000 </r>
       <r>    6.2919    1.0000 </r>
       <r>    6.5341    1.0000 </r>
       <r>    6.6713    1.0000 </r>
       <r>    6.8146    1.0000 </r>
       <r>    6.8457    1.0000 </r>
       <r>    7.0340    1.0000 </r>
       <r>    7.2933    1.0000 </r>
       <r>    7.5753    1.0000 </r>
       <r>    7.6929    1.0000 </r>
       <r>    7.7213    1.0000 </r>
       <r>    8.0166    0.0000 </r>
       <r>    8.2748    0.0000 </r>
       <r>    8.4823    0.0000 </r>
       <r>    8.6424    0.0000 </r>
       <r>    9.2403    0.0000 </r>
       <r>    9.4971    0.0000 </r>
       <r>    9.6975    0.0000 </r>
       <r>   10.0932    0.0000 </r>
       <r>   10.1042    0.0000 </r>
       <r>   10.4545    0.0000 </r>
       <r>   10.5720    0.0000 </r>
       <r>   10.7823    0.0000 </r>
      </set>
      <set comment="kpoint 8">
       <r>  -54.9795    1.0000 </r>
       <r>  -54.9362    1.0000 </r>
       <r>  -54.4280    1.0000 </r>
       <r>  -54.4251    1.0000 </r>
       <r>  -54.3094    1.0000 </r>
       <r>  -54.2574    1.0000 </r>
       <r>  -29.7069    1.0000 </r>
       <r>  -29.5406    1.0000 </r>
       <r>  -29.3221    1.0000 </r>
       <r>  -29.0327    1.0000 </r>
       <r>  -28.3304    1.0000 </r>
       <r>  -28.2981    1.0000 </r>
       <r>  -27.9272    1.0000 </r>
       <r>  -27.9188    1.0000 </r>
       <r>  -27.8312    1.0000 </r>
       <r>  -27.8076    1.0000 </r>
       <r>  -27.7856    1.0000 </r>
       <r>  -27.7699    1.0000 </r>
       <r>  -27.7147    1.0000 </r>
       <r>  -27.7125    1.0000 </r>
       <r>  -27.5650    1.0000 </r>
       <r>  -27.2878    1.0000 </r>
       <r>  -27.0367    1.0000 </r>
       <r>  -26.8144    1.0000 </r>
       <r>   -3.0346    1.0000 </r>
       <r>   -2.0733    1.0000 </r>
       <r>   -0.3814    1.0000 </r>
       <r>   -0.1695    1.0000 </r>
       <r>    1.0726    1.0000 </r>
       <r>    1.5293    1.0000 </r>
       <r>    3.0522    1.0000 </r>
       <r>    3.6718    1.0000 </r>
       <r>    3.7071    1.0000 </r>
       <r>    3.8193    1.0000 </r>
       <r>    3.8732    1.0000 </r>
       <r>    4.1453    1.0000 </r>
       <r>    4.2830    1.0000 </r>
       <r>    4.3464    1.0000 </r>
       <r>    4.5139    1.0000 </r>
       <r>    4.6706    1.0000 </r>
       <r>    4.9120    1.0000 </r>
       <r>    5.0011    1.0000 </r>
       <r>    5.6169    1.0000 </r>
       <r>    5.6572    1.0000 </r>
       <r>    5.8487    1.0000 </r>
       <r>    6.0433    1.0000 </r>
       <r>    6.8357    1.0000 </r>
       <r>    6.8888    1.0000 </r>
       <r>    6.9237    1.0000 </r>
       <r>    6.9962    1.0000 </r>
       <r>    7.1489    1.0000 </r>
       <r>    7.3364    1.0000 </r>
       <r>    7.5963    1.0000 </r>
       <r>    8.0916    0.0000 </r>
       <r>    8.2718    0.0000 </r>
       <r>    8.4292    0.0000 </r>
       <r>    8.8859    0.0000 </r>
       <r>    8.9633    0.0000 </r>
       <r>    9.1667    0.0000 </r>
       <r>    9.6217    0.0000 </r>
       <r>   10.0062    0.0000 </r>
       <r>   10.1600    0.0000 </r>
       <r>   10.3008    0.0000 </r>
       <r>   10.3594    0.0000 </r>
       <r>   10.4954    0.0000 </r>
       <r>   10.7113    0.0000 </r>
      </set>
      <set comment="kpoint 9">
       <r>  -55.0153    1.0000 </r>
       <r>  -54.8896    1.0000 </r>
       <r>  -54.4266    1.0000 </r>
       <r>  -54.4236    1.0000 </r>
       <r>  -54.3602    1.0000 </r>
       <r>  -54.2204    1.0000 </r>
       <r>  -29.8158    1.0000 </r>
       <r>  -29.5536    1.0000 </r>
       <r>  -29.3077    1.0000 </r>
       <r>  -28.7192    1.0000 </r>
       <r>  -28.3592    1.0000 </r>
       <r>  -28.2588    1.0000 </r>
       <r>  -27.9818    1.0000 </r>
       <r>  -27.9316    1.0000 </r>
       <r>  -27.9125    1.0000 </r>
       <r>  -27.8732    1.0000 </r>
       <r>  -27.7852    1.0000 </r>
       <r>  -27.7562    1.0000 </r>
       <r>  -27.7478    1.0000 </r>
       <r>  -27.7219    1.0000 </r>
       <r>  -27.6620    1.0000 </r>
       <r>  -27.3121    1.0000 </r>
       <r>  -27.0226    1.0000 </r>
       <r>  -26.6798    1.0000 </r>
       <r>   -3.4137    1.0000 </r>
       <r>   -1.5589    1.0000 </r>
       <r>   -0.2211    1.0000 </r>
       <r>   -0.0639    1.0000 </r>
       <r>    0.7218    1.0000 </r>
       <r>    2.1448    1.0000 </r>
       <r>    3.0039    1.0000 </r>
       <r>    3.3544    1.0000 </r>
       <r>    3.4767    1.0000 </r>
       <r>    3.5591    1.0000 </r>
       <r>    3.8398    1.0000 </r>
       <r>    4.1659    1.0000 </r>
       <r>    4.2502    1.0000 </r>
       <r>    4.2667    1.0000 </r>
       <r>    4.6019    1.0000 </r>
       <r>    4.6179    1.0000 </r>
       <r>    4.8093    1.0000 </r>
       <r>    5.0223    1.0000 </r>
       <r>    5.1096    1.0000 </r>
       <r>    5.5439    1.0000 </r>
       <r>    5.6966    1.0000 </r>
       <r>    6.2208    1.0000 </r>
       <r>    6.5020    1.0000 </r>
       <r>    6.7231    1.0000 </r>
       <r>    6.9631    1.0000 </r>
       <r>    7.2479    1.0000 </r>
       <r>    7.4012    1.0000 </r>
       <r>    7.4315    1.0000 </r>
       <r>    7.7293    1.0000 </r>
       <r>    8.1830    0.0000 </r>
       <r>    8.6350    0.0000 </r>
       <r>    8.7115    0.0000 </r>
       <r>    8.9785    0.0000 </r>
       <r>    9.0745    0.0000 </r>
       <r>    9.5910    0.0000 </r>
       <r>    9.6797    0.0000 </r>
       <r>    9.8202    0.0000 </r>
       <r>    9.9661    0.0000 </r>
       <r>   10.4703    0.0000 </r>
       <r>   10.5507    0.0000 </r>
       <r>   10.9429    0.0000 </r>
       <r>   11.2003    0.0000 </r>
      </set>
      <set comment="kpoint 10">
       <r>  -55.0382    1.0000 </r>
       <r>  -54.8513    1.0000 </r>
       <r>  -54.4263    1.0000 </r>
       <r>  -54.4203    1.0000 </r>
       <r>  -54.4027    1.0000 </r>
       <r>  -54.1967    1.0000 </r>
       <r>  -29.8543    1.0000 </r>
       <r>  -29.7250    1.0000 </r>
       <r>  -29.0270    1.0000 </r>
       <r>  -28.4738    1.0000 </r>
       <r>  -28.3778    1.0000 </r>
       <r>  -28.2254    1.0000 </r>
       <r>  -28.2144    1.0000 </r>
       <r>  -27.9328    1.0000 </r>
       <r>  -27.9089    1.0000 </r>
       <r>  -27.9086    1.0000 </r>
       <r>  -27.8107    1.0000 </r>
       <r>  -27.7380    1.0000 </r>
       <r>  -27.7379    1.0000 </r>
       <r>  -27.7241    1.0000 </r>
       <r>  -27.6603    1.0000 </r>
       <r>  -27.6316    1.0000 </r>
       <r>  -26.8160    1.0000 </r>
       <r>  -26.6326    1.0000 </r>
       <r>   -3.6172    1.0000 </r>
       <r>   -1.2088    1.0000 </r>
       <r>   -0.1956    1.0000 </r>
       <r>    0.2993    1.0000 </r>
       <r>    0.3687    1.0000 </r>
       <r>    2.6116    1.0000 </r>
       <r>    3.1442    1.0000 </r>
       <r>    3.1822    1.0000 </r>
       <r>    3.3390    1.0000 </r>
       <r>    3.5877    1.0000 </r>
       <r>    3.7286    1.0000 </r>
       <r>    3.7941    1.0000 </r>
       <r>    3.8779    1.0000 </r>
       <r>    3.9800    1.0000 </r>
       <r>    4.0850    1.0000 </r>
       <r>    4.3952    1.0000 </r>
       <r>    4.7780    1.0000 </r>
       <r>    5.2341    1.0000 </r>
       <r>    5.3229    1.0000 </r>
       <r>    5.7010    1.0000 </r>
       <r>    5.9049    1.0000 </r>
       <r>    6.1427    1.0000 </r>
       <r>    6.6300    1.0000 </r>
       <r>    6.6432    1.0000 </r>
       <r>    7.3367    1.0000 </r>
       <r>    7.4231    1.0000 </r>
       <r>    7.7068    1.0000 </r>
       <r>    7.7438    1.0000 </r>
       <r>    7.7815    1.0000 </r>
       <r>    7.8575    0.2749 </r>
       <r>    8.1408    0.0000 </r>
       <r>    8.8361    0.0000 </r>
       <r>    9.0833    0.0000 </r>
       <r>    9.3943    0.0000 </r>
       <r>    9.4156    0.0000 </r>
       <r>    9.5890    0.0000 </r>
       <r>    9.7479    0.0000 </r>
       <r>   10.6267    0.0000 </r>
       <r>   10.6477    0.0000 </r>
       <r>   10.6906    0.0000 </r>
       <r>   10.8739    0.0000 </r>
       <r>   11.0028    0.0000 </r>
      </set>
      <set comment="kpoint 11">
       <r>  -54.9994    1.0000 </r>
       <r>  -54.9105    1.0000 </r>
       <r>  -54.4405    1.0000 </r>
       <r>  -54.4214    1.0000 </r>
       <r>  -54.3231    1.0000 </r>
       <r>  -54.2406    1.0000 </r>
       <r>  -29.8562    1.0000 </r>
       <r>  -29.5291    1.0000 </r>
       <r>  -29.3173    1.0000 </r>
       <r>  -28.5001    1.0000 </r>
       <r>  -28.3501    1.0000 </r>
       <r>  -28.2737    1.0000 </r>
       <r>  -28.2305    1.0000 </r>
       <r>  -27.9335    1.0000 </r>
       <r>  -27.9201    1.0000 </r>
       <r>  -27.8384    1.0000 </r>
       <r>  -27.7799    1.0000 </r>
       <r>  -27.7757    1.0000 </r>
       <r>  -27.7527    1.0000 </r>
       <r>  -27.7290    1.0000 </r>
       <r>  -27.6642    1.0000 </r>
       <r>  -27.2733    1.0000 </r>
       <r>  -27.0302    1.0000 </r>
       <r>  -26.6471    1.0000 </r>
       <r>   -2.7291    1.0000 </r>
       <r>   -2.2386    1.0000 </r>
       <r>   -0.9861    1.0000 </r>
       <r>   -0.0394    1.0000 </r>
       <r>    0.9760    1.0000 </r>
       <r>    2.2335    1.0000 </r>
       <r>    2.7740    1.0000 </r>
       <r>    3.2914    1.0000 </r>
       <r>    3.4681    1.0000 </r>
       <r>    3.6009    1.0000 </r>
       <r>    4.0671    1.0000 </r>
       <r>    4.1807    1.0000 </r>
       <r>    4.1921    1.0000 </r>
       <r>    4.3538    1.0000 </r>
       <r>    4.3548    1.0000 </r>
       <r>    4.7049    1.0000 </r>
       <r>    4.9053    1.0000 </r>
       <r>    5.4654    1.0000 </r>
       <r>    6.2346    1.0000 </r>
       <r>    6.2739    1.0000 </r>
       <r>    6.3333    1.0000 </r>
       <r>    6.3665    1.0000 </r>
       <r>    6.6297    1.0000 </r>
       <r>    6.6935    1.0000 </r>
       <r>    6.9963    1.0000 </r>
       <r>    7.0933    1.0000 </r>
       <r>    7.1947    1.0000 </r>
       <r>    7.6598    1.0000 </r>
       <r>    7.7999    0.9997 </r>
       <r>    7.9314    0.0000 </r>
       <r>    7.9411    0.0000 </r>
       <r>    8.0383    0.0000 </r>
       <r>    8.4626    0.0000 </r>
       <r>    8.6606    0.0000 </r>
       <r>    8.7724    0.0000 </r>
       <r>    9.1652    0.0000 </r>
       <r>    9.7150    0.0000 </r>
       <r>    9.8678    0.0000 </r>
       <r>   10.0748    0.0000 </r>
       <r>   10.5857    0.0000 </r>
       <r>   10.6257    0.0000 </r>
       <r>   10.7330    0.0000 </r>
      </set>
      <set comment="kpoint 12">
       <r>  -54.9740    1.0000 </r>
       <r>  -54.9409    1.0000 </r>
       <r>  -54.4385    1.0000 </r>
       <r>  -54.4237    1.0000 </r>
       <r>  -54.2910    1.0000 </r>
       <r>  -54.2676    1.0000 </r>
       <r>  -29.8175    1.0000 </r>
       <r>  -29.7015    1.0000 </r>
       <r>  -29.0404    1.0000 </r>
       <r>  -28.7392    1.0000 </r>
       <r>  -28.3298    1.0000 </r>
       <r>  -28.2980    1.0000 </r>
       <r>  -28.0069    1.0000 </r>
       <r>  -27.9287    1.0000 </r>
       <r>  -27.9262    1.0000 </r>
       <r>  -27.8109    1.0000 </r>
       <r>  -27.8001    1.0000 </r>
       <r>  -27.7977    1.0000 </r>
       <r>  -27.7597    1.0000 </r>
       <r>  -27.7291    1.0000 </r>
       <r>  -27.6572    1.0000 </r>
       <r>  -27.5444    1.0000 </r>
       <r>  -26.8189    1.0000 </r>
       <r>  -26.6946    1.0000 </r>
       <r>   -2.6463    1.0000 </r>
       <r>   -2.2807    1.0000 </r>
       <r>   -1.0706    1.0000 </r>
       <r>   -0.2464    1.0000 </r>
       <r>    1.5134    1.0000 </r>
       <r>    1.9010    1.0000 </r>
       <r>    2.8205    1.0000 </r>
       <r>    3.4487    1.0000 </r>
       <r>    3.5451    1.0000 </r>
       <r>    3.8041    1.0000 </r>
       <r>    3.8599    1.0000 </r>
       <r>    3.9131    1.0000 </r>
       <r>    4.0654    1.0000 </r>
       <r>    4.3337    1.0000 </r>
       <r>    4.5269    1.0000 </r>
       <r>    4.8661    1.0000 </r>
       <r>    5.5948    1.0000 </r>
       <r>    5.6479    1.0000 </r>
       <r>    5.7514    1.0000 </r>
       <r>    5.8166    1.0000 </r>
       <r>    5.9168    1.0000 </r>
       <r>    6.5265    1.0000 </r>
       <r>    6.5724    1.0000 </r>
       <r>    6.8896    1.0000 </r>
       <r>    6.9267    1.0000 </r>
       <r>    7.1087    1.0000 </r>
       <r>    7.2450    1.0000 </r>
       <r>    7.4210    1.0000 </r>
       <r>    7.6100    1.0000 </r>
       <r>    7.7910    1.0000 </r>
       <r>    8.0437    0.0000 </r>
       <r>    8.0906    0.0000 </r>
       <r>    8.5674    0.0000 </r>
       <r>    8.8754    0.0000 </r>
       <r>    9.0463    0.0000 </r>
       <r>    9.2447    0.0000 </r>
       <r>    9.4163    0.0000 </r>
       <r>   10.1099    0.0000 </r>
       <r>   10.1690    0.0000 </r>
       <r>   10.5781    0.0000 </r>
       <r>   10.9395    0.0000 </r>
       <r>   11.0441    0.0000 </r>
      </set>
      <set comment="kpoint 13">
       <r>  -54.9719    1.0000 </r>
       <r>  -54.9433    1.0000 </r>
       <r>  -54.4337    1.0000 </r>
       <r>  -54.4256    1.0000 </r>
       <r>  -54.3006    1.0000 </r>
       <r>  -54.2604    1.0000 </r>
       <r>  -29.8093    1.0000 </r>
       <r>  -29.7097    1.0000 </r>
       <r>  -29.0484    1.0000 </r>
       <r>  -28.7325    1.0000 </r>
       <r>  -28.3230    1.0000 </r>
       <r>  -28.3046    1.0000 </r>
       <r>  -27.9971    1.0000 </r>
       <r>  -27.9311    1.0000 </r>
       <r>  -27.9222    1.0000 </r>
       <r>  -27.8244    1.0000 </r>
       <r>  -27.7960    1.0000 </r>
       <r>  -27.7861    1.0000 </r>
       <r>  -27.7489    1.0000 </r>
       <r>  -27.7427    1.0000 </r>
       <r>  -27.6650    1.0000 </r>
       <r>  -27.5465    1.0000 </r>
       <r>  -26.8290    1.0000 </r>
       <r>  -26.6846    1.0000 </r>
       <r>   -3.0356    1.0000 </r>
       <r>   -1.8602    1.0000 </r>
       <r>   -0.8878    1.0000 </r>
       <r>   -0.3494    1.0000 </r>
       <r>    1.5461    1.0000 </r>
       <r>    2.0765    1.0000 </r>
       <r>    2.7028    1.0000 </r>
       <r>    3.5249    1.0000 </r>
       <r>    3.6750    1.0000 </r>
       <r>    3.7800    1.0000 </r>
       <r>    3.7971    1.0000 </r>
       <r>    3.8580    1.0000 </r>
       <r>    4.2687    1.0000 </r>
       <r>    4.3350    1.0000 </r>
       <r>    4.5525    1.0000 </r>
       <r>    4.7446    1.0000 </r>
       <r>    5.0706    1.0000 </r>
       <r>    5.1485    1.0000 </r>
       <r>    5.5166    1.0000 </r>
       <r>    5.5297    1.0000 </r>
       <r>    6.2385    1.0000 </r>
       <r>    6.4533    1.0000 </r>
       <r>    6.7591    1.0000 </r>
       <r>    6.9717    1.0000 </r>
       <r>    7.0511    1.0000 </r>
       <r>    7.0523    1.0000 </r>
       <r>    7.2123    1.0000 </r>
       <r>    7.2131    1.0000 </r>
       <r>    7.7896    1.0000 </r>
       <r>    7.9294    0.0000 </r>
       <r>    8.1532    0.0000 </r>
       <r>    8.4243    0.0000 </r>
       <r>    8.5860    0.0000 </r>
       <r>    8.7186    0.0000 </r>
       <r>    8.7324    0.0000 </r>
       <r>    9.3981    0.0000 </r>
       <r>   10.0026    0.0000 </r>
       <r>   10.1645    0.0000 </r>
       <r>   10.3061    0.0000 </r>
       <r>   10.6753    0.0000 </r>
       <r>   10.8841    0.0000 </r>
       <r>   11.0606    0.0000 </r>
      </set>
      <set comment="kpoint 14">
       <r>  -54.9980    1.0000 </r>
       <r>  -54.9129    1.0000 </r>
       <r>  -54.4282    1.0000 </r>
       <r>  -54.4263    1.0000 </r>
       <r>  -54.3343    1.0000 </r>
       <r>  -54.2358    1.0000 </r>
       <r>  -29.8480    1.0000 </r>
       <r>  -29.5373    1.0000 </r>
       <r>  -29.3257    1.0000 </r>
       <r>  -28.4980    1.0000 </r>
       <r>  -28.3444    1.0000 </r>
       <r>  -28.2789    1.0000 </r>
       <r>  -28.2142    1.0000 </r>
       <r>  -27.9329    1.0000 </r>
       <r>  -27.9162    1.0000 </r>
       <r>  -27.8518    1.0000 </r>
       <r>  -27.7744    1.0000 </r>
       <r>  -27.7672    1.0000 </r>
       <r>  -27.7433    1.0000 </r>
       <r>  -27.7408    1.0000 </r>
       <r>  -27.6687    1.0000 </r>
       <r>  -27.2818    1.0000 </r>
       <r>  -27.0403    1.0000 </r>
       <r>  -26.6371    1.0000 </r>
       <r>   -3.3067    1.0000 </r>
       <r>   -1.5949    1.0000 </r>
       <r>   -0.5204    1.0000 </r>
       <r>   -0.3391    1.0000 </r>
       <r>    1.1754    1.0000 </r>
       <r>    2.3960    1.0000 </r>
       <r>    2.7771    1.0000 </r>
       <r>    3.4015    1.0000 </r>
       <r>    3.5208    1.0000 </r>
       <r>    3.6953    1.0000 </r>
       <r>    3.7296    1.0000 </r>
       <r>    4.0543    1.0000 </r>
       <r>    4.3494    1.0000 </r>
       <r>    4.4542    1.0000 </r>
       <r>    4.5382    1.0000 </r>
       <r>    4.6124    1.0000 </r>
       <r>    4.8612    1.0000 </r>
       <r>    4.9064    1.0000 </r>
       <r>    5.0393    1.0000 </r>
       <r>    5.3411    1.0000 </r>
       <r>    6.0043    1.0000 </r>
       <r>    6.4643    1.0000 </r>
       <r>    6.6860    1.0000 </r>
       <r>    6.8341    1.0000 </r>
       <r>    7.0213    1.0000 </r>
       <r>    7.3682    1.0000 </r>
       <r>    7.5389    1.0000 </r>
       <r>    7.6514    1.0000 </r>
       <r>    7.6572    1.0000 </r>
       <r>    7.8075    0.9984 </r>
       <r>    8.0698    0.0000 </r>
       <r>    8.2591    0.0000 </r>
       <r>    9.0288    0.0000 </r>
       <r>    9.1703    0.0000 </r>
       <r>    9.1864    0.0000 </r>
       <r>    9.3266    0.0000 </r>
       <r>    9.7415    0.0000 </r>
       <r>   10.2796    0.0000 </r>
       <r>   10.2939    0.0000 </r>
       <r>   10.7477    0.0000 </r>
       <r>   11.0724    0.0000 </r>
       <r>   11.1687    0.0000 </r>
      </set>
      <set comment="kpoint 15">
       <r>  -54.9642    1.0000 </r>
       <r>  -54.9504    1.0000 </r>
       <r>  -54.4406    1.0000 </r>
       <r>  -54.4255    1.0000 </r>
       <r>  -54.2780    1.0000 </r>
       <r>  -54.2768    1.0000 </r>
       <r>  -29.8510    1.0000 </r>
       <r>  -29.8064    1.0000 </r>
       <r>  -28.7383    1.0000 </r>
       <r>  -28.5181    1.0000 </r>
       <r>  -28.3222    1.0000 </r>
       <r>  -28.3049    1.0000 </r>
       <r>  -28.2306    1.0000 </r>
       <r>  -28.0025    1.0000 </r>
       <r>  -27.9310    1.0000 </r>
       <r>  -27.9288    1.0000 </r>
       <r>  -27.8053    1.0000 </r>
       <r>  -27.7991    1.0000 </r>
       <r>  -27.7526    1.0000 </r>
       <r>  -27.7331    1.0000 </r>
       <r>  -27.6709    1.0000 </r>
       <r>  -27.6676    1.0000 </r>
       <r>  -26.6867    1.0000 </r>
       <r>  -26.6508    1.0000 </r>
       <r>   -2.7673    1.0000 </r>
       <r>   -1.9645    1.0000 </r>
       <r>   -1.3316    1.0000 </r>
       <r>   -0.4023    1.0000 </r>
       <r>    2.0079    1.0000 </r>
       <r>    2.0881    1.0000 </r>
       <r>    2.5753    1.0000 </r>
       <r>    3.4460    1.0000 </r>
       <r>    3.5457    1.0000 </r>
       <r>    3.7060    1.0000 </r>
       <r>    3.7320    1.0000 </r>
       <r>    4.0151    1.0000 </r>
       <r>    4.0409    1.0000 </r>
       <r>    4.1124    1.0000 </r>
       <r>    4.6648    1.0000 </r>
       <r>    4.9126    1.0000 </r>
       <r>    5.1435    1.0000 </r>
       <r>    5.6889    1.0000 </r>
       <r>    5.7645    1.0000 </r>
       <r>    5.9033    1.0000 </r>
       <r>    6.1779    1.0000 </r>
       <r>    6.4682    1.0000 </r>
       <r>    6.9498    1.0000 </r>
       <r>    7.0039    1.0000 </r>
       <r>    7.1006    1.0000 </r>
       <r>    7.1152    1.0000 </r>
       <r>    7.1445    1.0000 </r>
       <r>    7.4935    1.0000 </r>
       <r>    7.5457    1.0000 </r>
       <r>    8.0295    0.0000 </r>
       <r>    8.1496    0.0000 </r>
       <r>    8.1642    0.0000 </r>
       <r>    8.2306    0.0000 </r>
       <r>    8.3300    0.0000 </r>
       <r>    8.5629    0.0000 </r>
       <r>    9.2863    0.0000 </r>
       <r>    9.8136    0.0000 </r>
       <r>   10.0316    0.0000 </r>
       <r>   10.1533    0.0000 </r>
       <r>   10.4036    0.0000 </r>
       <r>   10.7222    0.0000 </r>
       <r>   11.0754    0.0000 </r>
      </set>
      <set comment="kpoint 16">
       <r>  -54.9615    1.0000 </r>
       <r>  -54.9532    1.0000 </r>
       <r>  -54.4387    1.0000 </r>
       <r>  -54.4263    1.0000 </r>
       <r>  -54.2885    1.0000 </r>
       <r>  -54.2673    1.0000 </r>
       <r>  -29.8429    1.0000 </r>
       <r>  -29.8146    1.0000 </r>
       <r>  -28.7449    1.0000 </r>
       <r>  -28.5161    1.0000 </r>
       <r>  -28.3138    1.0000 </r>
       <r>  -28.3132    1.0000 </r>
       <r>  -28.2142    1.0000 </r>
       <r>  -28.0124    1.0000 </r>
       <r>  -27.9330    1.0000 </r>
       <r>  -27.9262    1.0000 </r>
       <r>  -27.8147    1.0000 </r>
       <r>  -27.7905    1.0000 </r>
       <r>  -27.7476    1.0000 </r>
       <r>  -27.7401    1.0000 </r>
       <r>  -27.6818    1.0000 </r>
       <r>  -27.6565    1.0000 </r>
       <r>  -26.6967    1.0000 </r>
       <r>  -26.6407    1.0000 </r>
       <r>   -2.9204    1.0000 </r>
       <r>   -1.8009    1.0000 </r>
       <r>   -1.2491    1.0000 </r>
       <r>   -0.4409    1.0000 </r>
       <r>    1.8629    1.0000 </r>
       <r>    2.3882    1.0000 </r>
       <r>    2.5539    1.0000 </r>
       <r>    3.4391    1.0000 </r>
       <r>    3.5529    1.0000 </r>
       <r>    3.6749    1.0000 </r>
       <r>    3.8217    1.0000 </r>
[...]
       <r>    5.9658    1.0000 </r>
       <r>    6.2538    1.0000 </r>
       <r>    6.2870    1.0000 </r>
       <r>    6.4634    1.0000 </r>
       <r>    6.5524    1.0000 </r>
       <r>    6.6114    1.0000 </r>
       <r>    6.9470    1.0000 </r>
       <r>    7.4881    1.0000 </r>
       <r>    7.4938    1.0000 </r>
       <r>    7.6111    1.0000 </r>
       <r>    7.9133    0.0000 </r>
       <r>    7.9691    0.0000 </r>
       <r>    8.0659    0.0000 </r>
       <r>    8.0789    0.0000 </r>
       <r>    8.3722    0.0000 </r>
       <r>    9.1357    0.0000 </r>
       <r>    9.1803    0.0000 </r>
       <r>    9.7205    0.0000 </r>
       <r>    9.9840    0.0000 </r>
       <r>   10.3349    0.0000 </r>
       <r>   10.3483    0.0000 </r>
       <r>   10.7291    0.0000 </r>
       <r>   11.1059    0.0000 </r>
       <r>   11.4505    0.0000 </r>
      </set>
      <set comment="kpoint 116">
       <r>  -55.0503    1.0000 </r>
       <r>  -54.8266    1.0000 </r>
       <r>  -54.4301    1.0000 </r>
       <r>  -54.4268    1.0000 </r>
       <r>  -54.4179    1.0000 </r>
       <r>  -54.1838    1.0000 </r>
       <r>  -29.8558    1.0000 </r>
       <r>  -29.8295    1.0000 </r>
       <r>  -28.7149    1.0000 </r>
       <r>  -28.4659    1.0000 </r>
       <r>  -28.3965    1.0000 </r>
       <r>  -28.2159    1.0000 </r>
       <r>  -28.2004    1.0000 </r>
       <r>  -27.9699    1.0000 </r>
       <r>  -27.9199    1.0000 </r>
       <r>  -27.9191    1.0000 </r>
       <r>  -27.9190    1.0000 </r>
       <r>  -27.8226    1.0000 </r>
       <r>  -27.7363    1.0000 </r>
       <r>  -27.7359    1.0000 </r>
       <r>  -27.7220    1.0000 </r>
       <r>  -27.6584    1.0000 </r>
       <r>  -26.6852    1.0000 </r>
       <r>  -26.6311    1.0000 </r>
       <r>   -2.5596    1.0000 </r>
       <r>   -1.7259    1.0000 </r>
       <r>   -1.1807    1.0000 </r>
       <r>   -0.8293    1.0000 </r>
       <r>    1.4981    1.0000 </r>
       <r>    1.6918    1.0000 </r>
       <r>    1.7675    1.0000 </r>
       <r>    2.8332    1.0000 </r>
       <r>    3.1062    1.0000 </r>
       <r>    3.2924    1.0000 </r>
       <r>    3.5610    1.0000 </r>
       <r>    4.1546    1.0000 </r>
       <r>    4.4108    1.0000 </r>
       <r>    4.6077    1.0000 </r>
       <r>    5.4745    1.0000 </r>
       <r>    5.7496    1.0000 </r>
       <r>    5.7752    1.0000 </r>
       <r>    5.9086    1.0000 </r>
       <r>    5.9314    1.0000 </r>
       <r>    5.9755    1.0000 </r>
       <r>    6.2932    1.0000 </r>
       <r>    6.3404    1.0000 </r>
       <r>    6.5261    1.0000 </r>
       <r>    6.5721    1.0000 </r>
       <r>    6.9433    1.0000 </r>
       <r>    7.3485    1.0000 </r>
       <r>    7.4899    1.0000 </r>
       <r>    7.6648    1.0000 </r>
       <r>    7.8765    0.0261 </r>
       <r>    8.0000    0.0000 </r>
       <r>    8.2542    0.0000 </r>
       <r>    8.3451    0.0000 </r>
       <r>    8.4202    0.0000 </r>
       <r>    9.1744    0.0000 </r>
       <r>    9.2049    0.0000 </r>
       <r>    9.6661    0.0000 </r>
       <r>   10.2381    0.0000 </r>
       <r>   10.4391    0.0000 </r>
       <r>   10.4906    0.0000 </r>
       <r>   10.5268    0.0000 </r>
       <r>   10.9373    0.0000 </r>
       <r>   11.3134    0.0000 </r>
      </set>
     </set>
    </set>
   </array>
  </eigenvalues>
  <separator name="orbital magnetization" >
   <v name="MAGDIPOLOUT">      0.00000000      0.00000000      0.00000000</v>
  </separator>
  <dos>
   <i name="efermi">      7.84905403 </i>
   <total>
    <array>
     <dimension dim="1">gridpoints</dimension>
     <dimension dim="2">spin</dimension>
     <field>energy</field>
     <field>total</field>
     <field>integrated</field>
     <set>
      <set comment="spin 1">
       <r>   -58.3891     0.0000     0.0000 </r>
       <r>   -58.1446     0.0000     0.0000 </r>
       <r>   -57.9000     0.0000     0.0000 </r>
       <r>   -57.6555     0.0000     0.0000 </r>
       <r>   -57.4110     0.0000     0.0000 </r>
       <r>   -57.1665     0.0000     0.0000 </r>
       <r>   -56.9220     0.0000     0.0000 </r>
       <r>   -56.6774     0.0000     0.0000 </r>
       <r>   -56.4329     0.0000     0.0000 </r>
       <r>   -56.1884     0.0000     0.0000 </r>
       <r>   -55.9439     0.0000     0.0000 </r>
       <r>   -55.6994     0.0000     0.0000 </r>
       <r>   -55.4548     0.0000     0.0000 </r>
       <r>   -55.2103     0.0000     0.0000 </r>
       <r>   -54.9658     7.2062     1.7621 </r>
       <r>   -54.7213     2.1909     4.0000 </r>
       <r>   -54.4767     0.0153     4.0038 </r>
       <r>   -54.2322    11.7100    11.1644 </r>
       <r>   -53.9877     0.0000    12.0000 </r>
       <r>   -53.7432     0.0000    12.0000 </r>
       <r>   -53.4987     0.0000    12.0000 </r>
       <r>   -53.2541     0.0000    12.0000 </r>
       <r>   -53.0096     0.0000    12.0000 </r>
       <r>   -52.7651     0.0000    12.0000 </r>
       <r>   -52.5206     0.0000    12.0000 </r>
       <r>   -52.2761     0.0000    12.0000 </r>
       <r>   -52.0315     0.0000    12.0000 </r>
       <r>   -51.7870     0.0000    12.0000 </r>
       <r>   -51.5425     0.0000    12.0000 </r>
       <r>   -51.2980     0.0000    12.0000 </r>
       <r>   -51.0535     0.0000    12.0000 </r>
       <r>   -50.8089     0.0000    12.0000 </r>
       <r>   -50.5644     0.0000    12.0000 </r>
       <r>   -50.3199     0.0000    12.0000 </r>
       <r>   -50.0754     0.0000    12.0000 </r>
       <r>   -49.8308     0.0000    12.0000 </r>
       <r>   -49.5863     0.0000    12.0000 </r>
       <r>   -49.3418     0.0000    12.0000 </r>
       <r>   -49.0973     0.0000    12.0000 </r>
       <r>   -48.8528     0.0000    12.0000 </r>
       <r>   -48.6082     0.0000    12.0000 </r>
       <r>   -48.3637     0.0000    12.0000 </r>
       <r>   -48.1192     0.0000    12.0000 </r>
       <r>   -47.8747     0.0000    12.0000 </r>
       <r>   -47.6302     0.0000    12.0000 </r>
       <r>   -47.3856     0.0000    12.0000 </r>
       <r>   -47.1411     0.0000    12.0000 </r>
       <r>   -46.8966     0.0000    12.0000 </r>
       <r>   -46.6521     0.0000    12.0000 </r>
       <r>   -46.4076     0.0000    12.0000 </r>
       <r>   -46.1630     0.0000    12.0000 </r>
       <r>   -45.9185     0.0000    12.0000 </r>
       <r>   -45.6740     0.0000    12.0000 </r>
       <r>   -45.4295     0.0000    12.0000 </r>
       <r>   -45.1850     0.0000    12.0000 </r>
       <r>   -44.9404     0.0000    12.0000 </r>
       <r>   -44.6959     0.0000    12.0000 </r>
       <r>   -44.4514     0.0000    12.0000 </r>
       <r>   -44.2069     0.0000    12.0000 </r>
       <r>   -43.9623     0.0000    12.0000 </r>
       <r>   -43.7178     0.0000    12.0000 </r>
       <r>   -43.4733     0.0000    12.0000 </r>
       <r>   -43.2288     0.0000    12.0000 </r>
       <r>   -42.9843     0.0000    12.0000 </r>
       <r>   -42.7397     0.0000    12.0000 </r>
       <r>   -42.4952     0.0000    12.0000 </r>
       <r>   -42.2507     0.0000    12.0000 </r>
       <r>   -42.0062     0.0000    12.0000 </r>
       <r>   -41.7617     0.0000    12.0000 </r>
       <r>   -41.5171     0.0000    12.0000 </r>
       <r>   -41.2726     0.0000    12.0000 </r>
       <r>   -41.0281     0.0000    12.0000 </r>
       <r>   -40.7836     0.0000    12.0000 </r>
       <r>   -40.5391     0.0000    12.0000 </r>
       <r>   -40.2945     0.0000    12.0000 </r>
       <r>   -40.0500     0.0000    12.0000 </r>
       <r>   -39.8055     0.0000    12.0000 </r>
       <r>   -39.5610     0.0000    12.0000 </r>
       <r>   -39.3164     0.0000    12.0000 </r>
       <r>   -39.0719     0.0000    12.0000 </r>
       <r>   -38.8274     0.0000    12.0000 </r>
       <r>   -38.5829     0.0000    12.0000 </r>
       <r>   -38.3384     0.0000    12.0000 </r>
       <r>   -38.0938     0.0000    12.0000 </r>
       <r>   -37.8493     0.0000    12.0000 </r>
       <r>   -37.6048     0.0000    12.0000 </r>
       <r>   -37.3603     0.0000    12.0000 </r>
       <r>   -37.1158     0.0000    12.0000 </r>
       <r>   -36.8712     0.0000    12.0000 </r>
       <r>   -36.6267     0.0000    12.0000 </r>
       <r>   -36.3822     0.0000    12.0000 </r>
       <r>   -36.1377     0.0000    12.0000 </r>
       <r>   -35.8932     0.0000    12.0000 </r>
       <r>   -35.6486     0.0000    12.0000 </r>
       <r>   -35.4041     0.0000    12.0000 </r>
       <r>   -35.1596     0.0000    12.0000 </r>
       <r>   -34.9151     0.0000    12.0000 </r>
       <r>   -34.6705     0.0000    12.0000 </r>
       <r>   -34.4260     0.0000    12.0000 </r>
       <r>   -34.1815     0.0000    12.0000 </r>
       <r>   -33.9370     0.0000    12.0000 </r>
       <r>   -33.6925     0.0000    12.0000 </r>
       <r>   -33.4479     0.0000    12.0000 </r>
       <r>   -33.2034     0.0000    12.0000 </r>
       <r>   -32.9589     0.0000    12.0000 </r>
       <r>   -32.7144     0.0000    12.0000 </r>
       <r>   -32.4699     0.0000    12.0000 </r>
       <r>   -32.2253     0.0000    12.0000 </r>
       <r>   -31.9808     0.0000    12.0000 </r>
       <r>   -31.7363     0.0000    12.0000 </r>
       <r>   -31.4918     0.0000    12.0000 </r>
       <r>   -31.2473     0.0000    12.0000 </r>
       <r>   -31.0027     0.0000    12.0000 </r>
       <r>   -30.7582     0.0000    12.0000 </r>
       <r>   -30.5137     0.0000    12.0000 </r>
       <r>   -30.2692     0.0000    12.0000 </r>
       <r>   -30.0246     0.0000    12.0000 </r>
       <r>   -29.7801     6.7446    13.6492 </r>
       <r>   -29.5356     3.8219    15.5774 </r>
       <r>   -29.2911     3.8789    16.8770 </r>
       <r>   -29.0466     1.9789    17.5553 </r>
       <r>   -28.8020     1.2370    18.4249 </r>
       <r>   -28.5575     1.7287    19.4737 </r>
       <r>   -28.3130     8.6577    22.0354 </r>
       <r>   -28.0685     2.9133    24.6869 </r>
       <r>   -27.8240    25.1584    31.4273 </r>
       <r>   -27.5794    20.4810    42.2580 </r>
       <r>   -27.3349     1.3732    43.0705 </r>
       <r>   -27.0904     1.3618    44.1187 </r>
       <r>   -26.8459     1.7870    45.3655 </r>
       <r>   -26.6014     7.2953    47.9981 </r>
       <r>   -26.3568     0.0000    48.0000 </r>
       <r>   -26.1123     0.0000    48.0000 </r>
       <r>   -25.8678     0.0000    48.0000 </r>
       <r>   -25.6233     0.0000    48.0000 </r>
       <r>   -25.3787     0.0000    48.0000 </r>
       <r>   -25.1342     0.0000    48.0000 </r>
       <r>   -24.8897     0.0000    48.0000 </r>
       <r>   -24.6452     0.0000    48.0000 </r>
       <r>   -24.4007     0.0000    48.0000 </r>
       <r>   -24.1561     0.0000    48.0000 </r>
       <r>   -23.9116     0.0000    48.0000 </r>
       <r>   -23.6671     0.0000    48.0000 </r>
       <r>   -23.4226     0.0000    48.0000 </r>
       <r>   -23.1781     0.0000    48.0000 </r>
       <r>   -22.9335     0.0000    48.0000 </r>
       <r>   -22.6890     0.0000    48.0000 </r>
       <r>   -22.4445     0.0000    48.0000 </r>
       <r>   -22.2000     0.0000    48.0000 </r>
       <r>   -21.9555     0.0000    48.0000 </r>
       <r>   -21.7109     0.0000    48.0000 </r>
       <r>   -21.4664     0.0000    48.0000 </r>
       <r>   -21.2219     0.0000    48.0000 </r>
       <r>   -20.9774     0.0000    48.0000 </r>
       <r>   -20.7328     0.0000    48.0000 </r>
       <r>   -20.4883     0.0000    48.0000 </r>
       <r>   -20.2438     0.0000    48.0000 </r>
       <r>   -19.9993     0.0000    48.0000 </r>
       <r>   -19.7548     0.0000    48.0000 </r>
       <r>   -19.5102     0.0000    48.0000 </r>
       <r>   -19.2657     0.0000    48.0000 </r>
       <r>   -19.0212     0.0000    48.0000 </r>
       <r>   -18.7767     0.0000    48.0000 </r>
       <r>   -18.5322     0.0000    48.0000 </r>
       <r>   -18.2876     0.0000    48.0000 </r>
       <r>   -18.0431     0.0000    48.0000 </r>
       <r>   -17.7986     0.0000    48.0000 </r>
       <r>   -17.5541     0.0000    48.0000 </r>
       <r>   -17.3096     0.0000    48.0000 </r>
       <r>   -17.0650     0.0000    48.0000 </r>
       <r>   -16.8205     0.0000    48.0000 </r>
       <r>   -16.5760     0.0000    48.0000 </r>
       <r>   -16.3315     0.0000    48.0000 </r>
       <r>   -16.0869     0.0000    48.0000 </r>
       <r>   -15.8424     0.0000    48.0000 </r>
       <r>   -15.5979     0.0000    48.0000 </r>
       <r>   -15.3534     0.0000    48.0000 </r>
       <r>   -15.1089     0.0000    48.0000 </r>
       <r>   -14.8643     0.0000    48.0000 </r>
       <r>   -14.6198     0.0000    48.0000 </r>
       <r>   -14.3753     0.0000    48.0000 </r>
       <r>   -14.1308     0.0000    48.0000 </r>
       <r>   -13.8863     0.0000    48.0000 </r>
       <r>   -13.6417     0.0000    48.0000 </r>
       <r>   -13.3972     0.0000    48.0000 </r>
       <r>   -13.1527     0.0000    48.0000 </r>
       <r>   -12.9082     0.0000    48.0000 </r>
       <r>   -12.6637     0.0000    48.0000 </r>
       <r>   -12.4191     0.0000    48.0000 </r>
       <r>   -12.1746     0.0000    48.0000 </r>
       <r>   -11.9301     0.0000    48.0000 </r>
       <r>   -11.6856     0.0000    48.0000 </r>
       <r>   -11.4410     0.0000    48.0000 </r>
       <r>   -11.1965     0.0000    48.0000 </r>
       <r>   -10.9520     0.0000    48.0000 </r>
       <r>   -10.7075     0.0000    48.0000 </r>
       <r>   -10.4630     0.0000    48.0000 </r>
       <r>   -10.2184     0.0000    48.0000 </r>
       <r>    -9.9739     0.0000    48.0000 </r>
       <r>    -9.7294     0.0000    48.0000 </r>
       <r>    -9.4849     0.0000    48.0000 </r>
       <r>    -9.2404     0.0000    48.0000 </r>
       <r>    -8.9958     0.0000    48.0000 </r>
       <r>    -8.7513     0.0000    48.0000 </r>
       <r>    -8.5068     0.0000    48.0000 </r>
       <r>    -8.2623     0.0000    48.0000 </r>
       <r>    -8.0178     0.0000    48.0000 </r>
       <r>    -7.7732     0.0000    48.0000 </r>
       <r>    -7.5287     0.0000    48.0000 </r>
       <r>    -7.2842     0.0000    48.0000 </r>
       <r>    -7.0397     0.0000    48.0000 </r>
       <r>    -6.7951     0.0000    48.0000 </r>
       <r>    -6.5506     0.0000    48.0000 </r>
       <r>    -6.3061     0.0000    48.0000 </r>
       <r>    -6.0616     0.0000    48.0000 </r>
       <r>    -5.8171     0.0000    48.0000 </r>
       <r>    -5.5725     0.0000    48.0000 </r>
       <r>    -5.3280     0.0000    48.0000 </r>
       <r>    -5.0835     0.0000    48.0000 </r>
       <r>    -4.8390     0.0000    48.0000 </r>
       <r>    -4.5945     0.0000    48.0000 </r>
       <r>    -4.3499     0.0000    48.0000 </r>
       <r>    -4.1054     0.0000    48.0000 </r>
       <r>    -3.8609     0.0000    48.0000 </r>
       <r>    -3.6164     0.2329    48.0569 </r>
       <r>    -3.3719     0.7028    48.2484 </r>
       <r>    -3.1273     0.8573    48.5311 </r>
       <r>    -2.8828     1.1522    48.9603 </r>
       <r>    -2.6383     1.4936    49.5081 </r>
       <r>    -2.3938     1.4582    50.1627 </r>
       <r>    -2.1492     1.7133    50.7863 </r>
       <r>    -1.9047     1.2798    51.2925 </r>
       <r>    -1.6602     0.8319    51.6473 </r>
       <r>    -1.4157     0.5978    51.8554 </r>
       <r>    -1.1712     0.8543    52.1477 </r>
       <r>    -0.9266     1.3500    52.6771 </r>
       <r>    -0.6821     1.1547    53.1956 </r>
       <r>    -0.4376     1.4857    53.7868 </r>
       <r>    -0.1931     2.1784    54.5939 </r>
       <r>     0.0514     1.6523    55.2408 </r>
       <r>     0.2960     1.8115    55.7695 </r>
       <r>     0.5405     1.3033    56.2575 </r>
       <r>     0.7850     1.0937    56.7164 </r>
       <r>     1.0295     1.2170    57.1496 </r>
       <r>     1.2740     0.8622    57.5731 </r>
       <r>     1.5186     1.7916    58.0554 </r>
       <r>     1.7631     0.9889    58.5836 </r>
       <r>     2.0076     1.3831    59.1596 </r>
       <r>     2.2521     1.2070    59.8360 </r>
       <r>     2.4967     1.3334    60.3567 </r>
       <r>     2.7412     1.6533    60.9451 </r>
       <r>     2.9857     1.5643    61.5662 </r>
       <r>     3.2302     2.6075    62.5100 </r>
       <r>     3.4747     5.7514    64.4523 </r>
       <r>     3.7193     5.3046    66.8634 </r>
       <r>     3.9638     8.5681    69.9471 </r>
       <r>     4.2083    10.1170    73.1830 </r>
       <r>     4.4528     7.5042    76.0798 </r>
       <r>     4.6973     6.7872    78.5372 </r>
       <r>     4.9419     4.9166    80.1716 </r>
       <r>     5.1864     4.5255    81.8668 </r>
       <r>     5.4309     4.1522    83.2704 </r>
       <r>     5.6754     5.5616    85.4773 </r>
       <r>     5.9199     5.2556    87.3820 </r>
       <r>     6.1645     3.2718    88.7643 </r>
       <r>     6.4090     7.0364    91.2665 </r>
       <r>     6.6535     6.2783    93.6933 </r>
       <r>     6.8980     6.7247    96.3790 </r>
       <r>     7.1426     7.8050    99.3575 </r>
       <r>     7.3871     5.4178   101.5646 </r>
       <r>     7.6316     6.2799   104.0152 </r>
       <r>     7.8761     5.5959   106.2204 </r>
       <r>     8.1206     7.8757   108.9258 </r>
       <r>     8.3652     5.3719   111.2064 </r>
       <r>     8.6097     4.3816   112.8571 </r>
       <r>     8.8542     4.4867   114.7808 </r>
       <r>     9.0987     4.0343   116.3028 </r>
       <r>     9.3432     4.0746   117.8228 </r>
       <r>     9.5878     3.8580   119.3566 </r>
       <r>     9.8323     4.4008   121.0098 </r>
       <r>    10.0768     5.9070   122.9954 </r>
       <r>    10.3213     5.6605   125.0984 </r>
       <r>    10.5658     6.9225   127.5345 </r>
       <r>    10.8104     4.2779   129.3317 </r>
       <r>    11.0549     4.6695   130.9377 </r>
       <r>    11.2994     1.4772   131.7081 </r>
       <r>    11.5439     0.2750   131.9346 </r>
       <r>    11.7885     0.0417   132.0000 </r>
       <r>    12.0330     0.0000   132.0000 </r>
       <r>    12.2775     0.0000   132.0000 </r>
       <r>    12.5220     0.0000   132.0000 </r>
       <r>    12.7665     0.0000   132.0000 </r>
       <r>    13.0111     0.0000   132.0000 </r>
       <r>    13.2556     0.0000   132.0000 </r>
       <r>    13.5001     0.0000   132.0000 </r>
       <r>    13.7446     0.0000   132.0000 </r>
       <r>    13.9891     0.0000   132.0000 </r>
       <r>    14.2337     0.0000   132.0000 </r>
       <r>    14.4782     0.0000   132.0000 </r>
       <r>    14.7227     0.0000   132.0000 </r>
       <r>    14.9672     0.0000   132.0000 </r>
      </set>
     </set>
    </array>
   </total>
  </dos>
 </calculation>
 <structure name="finalpos" >
  <crystal>
   <varray name="basis" >
    <v>       5.76727730       0.00000000      -3.21767648 </v>
    <v>      -1.98856223       5.41360394      -3.21767648 </v>
    <v>       0.00000000       0.00000000       6.60416000 </v>
   </varray>
   <i name="volume">    206.19346615 </i>
   <varray name="rec_basis" >
    <v>       0.17339204       0.06369156       0.00000000 </v>
    <v>       0.00000000       0.18471983       0.00000000 </v>
    <v>       0.08448001       0.12103091       0.15141971 </v>
   </varray>
  </crystal>
  <varray name="positions" >
   <v>       0.25000000       0.25000000       0.00000000 </v>
   <v>       0.75000000       0.75000000       0.00000000 </v>
   <v>       0.75113000       0.25113000       0.00225000 </v>
   <v>       0.50000000       0.50000000       0.00000000 </v>
   <v>       0.24887000       0.74887000       0.99775000 </v>
   <v>       0.25113000       0.24887000       0.50000000 </v>
   <v>       0.74887000       0.75113000       0.50000000 </v>
   <v>       0.00000000       0.00000000       0.00000000 </v>
   <v>       0.50000000       0.00000000       0.00000000 </v>
   <v>       0.00000000       0.00000000       0.50000000 </v>
   <v>       0.00000000       0.50000000       0.00000000 </v>
   <v>       0.50000000       0.50000000       0.50000000 </v>
  </varray>
 </structure>
</modeling>
