<?xml version="1.0" encoding="ISO-8859-1"?>
<modeling>
 <generator>
  <i name="program" type="string">vasp </i>
  <i name="version" type="string">6.2.0  </i>
  <i name="subversion" type="string">18Jan21 (build Jan 05 2022 15:41:44) complex                          parallel </i>
  <i name="platform" type="string">LinuxIFC </i>
  <i name="date" type="string">2025 05 07 </i>
  <i name="time" type="string">14:21:02 </i>
 </generator>
 <incar>
  <i type="string" name="SYSTEM">routine with relax: pwdword</i>
  <i type="string" name="PREC">Acc</i>
  <i type="int" name="IALGO">    38</i>
  <i type="string" name="ALGO">A</i>
  <i type="logical" name="ADDGRID"> T  </i>
  <i type="int" name="ICHARG">     2</i>
  <i type="int" name="NELM">   100</i>
  <i type="int" name="NELMIN">     6</i>
  <i name="EDIFF">      0.00000000</i>
  <i type="int" name="NSW">     0</i>
  <i type="int" name="ISIF">    -1</i>
  <i name="SYMPREC">      0.00010000</i>
  <i name="ENCUT">    600.00000000</i>
  <i type="logical" name="LREAL"> F  </i>
  <i type="int" name="ISMEAR">     0</i>
  <i name="SIGMA">      0.02000000</i>
  <i type="logical" name="LASPH"> T  </i>
  <i type="string" name="METAGGA">R2SCAN</i>
  <i type="logical" name="LMIXTAU"> F  </i>
 </incar>
 <primitive_cell>
  <structure name="primitive_cell" >
   <crystal>
    <varray name="basis" >
     <v>       5.07705686       0.00000000      -2.54096004 </v>
     <v>      -1.93752643       4.69281341      -2.54096004 </v>
     <v>       0.00000000       0.00000000       5.67741000 </v>
    </varray>
    <i name="volume">    135.26815696 </i>
    <varray name="rec_basis" >
     <v>       0.19696451       0.08132093       0.00000000 </v>
     <v>       0.00000000       0.21309179       0.00000000 </v>
     <v>       0.08815269       0.13176624       0.17613665 </v>
    </varray>
   </crystal>
   <varray name="positions" >
    <v>       0.69610000       0.19610000       0.89221000 </v>
    <v>       0.30390000       0.80390000       0.10779000 </v>
    <v>       0.19610000       0.30390000       0.50000000 </v>
    <v>       0.80390000       0.69610000       0.50000000 </v>
    <v>       0.25000000       0.25000000       1.00000000 </v>
    <v>       1.00000000       0.50000000       0.50000000 </v>
    <v>       0.75000000       0.75000000       1.00000000 </v>
    <v>       0.50000000       0.00000000       0.50000000 </v>
    <v>       0.23126000       0.26874000       0.50000000 </v>
    <v>       0.76874000       0.73126000       0.50000000 </v>
    <v>       0.26874000       0.76874000       0.03748000 </v>
    <v>       0.73126000       0.23126000       0.96252000 </v>
   </varray>
  </structure>
  <varray name="primitive_index" >
   <v type="int" >        1 </v>
   <v type="int" >        2 </v>
   <v type="int" >        3 </v>
   <v type="int" >        4 </v>
   <v type="int" >        5 </v>
   <v type="int" >        6 </v>
   <v type="int" >        7 </v>
   <v type="int" >        8 </v>
   <v type="int" >        9 </v>
   <v type="int" >       10 </v>
   <v type="int" >       11 </v>
   <v type="int" >       12 </v>
  </varray>
 </primitive_cell>
 <kpoints>
  <generation param="Gamma">
   <v type="int" name="divisions">       8        8        8 </v>
   <v name="usershift">      0.00000000       0.00000000       0.00000000 </v>
   <v name="genvec1">      0.12500000      -0.00000000       0.00000000 </v>
   <v name="genvec2">      0.00000000       0.12500000       0.00000000 </v>
   <v name="genvec3">     -0.00000000      -0.00000000       0.12500000 </v>
   <v name="shift">      0.00000000       0.00000000       0.00000000 </v>
  </generation>
  <varray name="kpointlist" >
   <v>       0.00000000       0.00000000       0.00000000 </v>
   <v>       0.12500000       0.00000000       0.00000000 </v>
   <v>       0.25000000       0.00000000       0.00000000 </v>
   <v>       0.37500000       0.00000000       0.00000000 </v>
   <v>       0.50000000       0.00000000       0.00000000 </v>
   <v>       0.12500000       0.12500000       0.00000000 </v>
   <v>       0.25000000       0.12500000       0.00000000 </v>
   <v>       0.37500000       0.12500000       0.00000000 </v>
   <v>       0.50000000       0.12500000       0.00000000 </v>
   <v>      -0.37500000       0.12500000       0.00000000 </v>
   <v>      -0.25000000       0.12500000       0.00000000 </v>
   <v>      -0.12500000       0.12500000       0.00000000 </v>
   <v>       0.25000000       0.25000000       0.00000000 </v>
   <v>       0.37500000       0.25000000       0.00000000 </v>
   <v>       0.50000000       0.25000000       0.00000000 </v>
   <v>      -0.37500000       0.25000000       0.00000000 </v>
   <v>      -0.25000000       0.25000000       0.00000000 </v>
   <v>       0.37500000       0.37500000       0.00000000 </v>
   <v>       0.50000000       0.37500000       0.00000000 </v>
   <v>      -0.37500000       0.37500000       0.00000000 </v>
   <v>       0.50000000       0.50000000       0.00000000 </v>
   <v>       0.12500000       0.12500000       0.12500000 </v>
   <v>       0.25000000       0.12500000       0.12500000 </v>
   <v>       0.37500000       0.12500000       0.12500000 </v>
   <v>      -0.12500000       0.12500000       0.12500000 </v>
   <v>       0.25000000       0.25000000       0.12500000 </v>
   <v>       0.37500000       0.25000000       0.12500000 </v>
   <v>       0.50000000       0.25000000       0.12500000 </v>
   <v>      -0.25000000       0.25000000       0.12500000 </v>
   <v>      -0.12500000       0.25000000       0.12500000 </v>
   <v>       0.37500000       0.37500000       0.12500000 </v>
   <v>      -0.37500000       0.37500000       0.12500000 </v>
   <v>      -0.25000000       0.37500000       0.12500000 </v>
   <v>      -0.12500000       0.37500000       0.12500000 </v>
   <v>       0.50000000       0.50000000       0.12500000 </v>
   <v>      -0.37500000       0.50000000       0.12500000 </v>
   <v>      -0.25000000       0.50000000       0.12500000 </v>
   <v>      -0.12500000       0.50000000       0.12500000 </v>
   <v>      -0.37500000      -0.37500000       0.12500000 </v>
   <v>      -0.25000000      -0.37500000       0.12500000 </v>
   <v>      -0.12500000      -0.37500000       0.12500000 </v>
   <v>      -0.25000000      -0.25000000       0.12500000 </v>
   <v>      -0.12500000      -0.25000000       0.12500000 </v>
   <v>      -0.12500000      -0.12500000       0.12500000 </v>
   <v>       0.25000000       0.25000000       0.25000000 </v>
   <v>      -0.25000000       0.25000000       0.25000000 </v>
   <v>      -0.37500000       0.37500000       0.25000000 </v>
   <v>      -0.25000000       0.37500000       0.25000000 </v>
   <v>       0.50000000       0.50000000       0.25000000 </v>
   <v>      -0.37500000       0.50000000       0.25000000 </v>
   <v>      -0.25000000       0.50000000       0.25000000 </v>
   <v>      -0.37500000      -0.37500000       0.25000000 </v>
   <v>      -0.25000000      -0.37500000       0.25000000 </v>
   <v>      -0.25000000      -0.25000000       0.25000000 </v>
   <v>      -0.37500000       0.37500000       0.37500000 </v>
   <v>       0.50000000       0.50000000       0.37500000 </v>
   <v>      -0.37500000       0.50000000       0.37500000 </v>
   <v>      -0.37500000      -0.37500000       0.37500000 </v>
   <v>       0.50000000       0.50000000       0.50000000 </v>
  </varray>
  <varray name="weights" >
   <v>       0.00195312 </v>
   <v>       0.01562500 </v>
   <v>       0.01562500 </v>
   <v>       0.01562500 </v>
   <v>       0.00781250 </v>
   <v>       0.01562500 </v>
   <v>       0.03125000 </v>
   <v>       0.03125000 </v>
   <v>       0.03125000 </v>
   <v>       0.03125000 </v>
   <v>       0.03125000 </v>
   <v>       0.00781250 </v>
   <v>       0.01562500 </v>
   <v>       0.03125000 </v>
   <v>       0.03125000 </v>
   <v>       0.03125000 </v>
   <v>       0.00781250 </v>
   <v>       0.01562500 </v>
   <v>       0.03125000 </v>
   <v>       0.00781250 </v>
   <v>       0.00390625 </v>
   <v>       0.01562500 </v>
   <v>       0.03125000 </v>
   <v>       0.01562500 </v>
   <v>       0.00781250 </v>
   <v>       0.01562500 </v>
   <v>       0.03125000 </v>
   <v>       0.01562500 </v>
   <v>       0.01562500 </v>
   <v>       0.01562500 </v>
   <v>       0.00781250 </v>
   <v>       0.01562500 </v>
   <v>       0.03125000 </v>
   <v>       0.01562500 </v>
   <v>       0.00781250 </v>
   <v>       0.03125000 </v>
   <v>       0.03125000 </v>
   <v>       0.01562500 </v>
   <v>       0.01562500 </v>
   <v>       0.03125000 </v>
   <v>       0.01562500 </v>
   <v>       0.01562500 </v>
   <v>       0.01562500 </v>
   <v>       0.00390625 </v>
   <v>       0.00390625 </v>
   <v>       0.00781250 </v>
   <v>       0.01562500 </v>
   <v>       0.01562500 </v>
   <v>       0.00781250 </v>
   <v>       0.03125000 </v>
   <v>       0.01562500 </v>
   <v>       0.01562500 </v>
   <v>       0.01562500 </v>
   <v>       0.00390625 </v>
   <v>       0.00781250 </v>
   <v>       0.00781250 </v>
   <v>       0.01562500 </v>
   <v>       0.00390625 </v>
   <v>       0.00195312 </v>
  </varray>
 </kpoints>
 <parameters>
  <separator name="general" >
   <i type="string" name="SYSTEM">routine with relax: pwdword</i>
   <i type="logical" name="LCOMPAT"> F  </i>
  </separator>
  <separator name="electronic" >
   <i type="string" name="PREC">acc</i>
   <i name="ENMAX">    600.00000000</i>
   <i name="ENAUG">    535.51400000</i>
   <i name="EDIFF">      0.00000000</i>
   <i type="int" name="IALGO">    58</i>
   <i type="int" name="IWAVPR">    10</i>
   <i type="int" name="NBANDS">    54</i>
   <i type="int" name="NBANDSLOW">    -1</i>
   <i type="int" name="NBANDSHIGH">    -1</i>
   <i name="NELECT">     84.00000000</i>
   <i type="int" name="TURBO">     0</i>
   <i type="int" name="IRESTART">     0</i>
   <i type="int" name="NREBOOT">     0</i>
   <i type="int" name="NMIN">     0</i>
   <i name="EREF">      0.00000000</i>
   <separator name="electronic smearing" >
    <i type="int" name="ISMEAR">     0</i>
    <i name="SIGMA">      0.02000000</i>
    <i name="KSPACING">      0.50000000</i>
    <i type="logical" name="KGAMMA"> T  </i>
    <i type="logical" name="KBLOWUP"> T  </i>
   </separator>
   <separator name="electronic projectors" >
    <i type="logical" name="LREAL"> F  </i>
    <v name="ROPT">      0.00000000      0.00000000      0.00000000</v>
    <i type="int" name="LMAXPAW">  -100</i>
    <i type="int" name="LMAXMIX">     2</i>
    <i type="logical" name="NLSPLINE"> F  </i>
   </separator>
   <separator name="electronic startup" >
    <i type="int" name="ISTART">     0</i>
    <i type="int" name="ICHARG">     2</i>
    <i type="int" name="INIWAV">     1</i>
   </separator>
   <separator name="electronic spin" >
    <i type="int" name="ISPIN">     1</i>
    <i type="logical" name="LNONCOLLINEAR"> F  </i>
    <v name="MAGMOM">      1.00000000      1.00000000      1.00000000      1.00000000      1.00000000      1.00000000      1.00000000      1.00000000      1.00000000      1.00000000      1.00000000      1.00000000</v>
    <i name="NUPDOWN">     -1.00000000</i>
    <i type="logical" name="LSORBIT"> F  </i>
    <v name="SAXIS">      0.00000000      0.00000000      1.00000000</v>
    <i type="logical" name="LSPIRAL"> F  </i>
    <v name="QSPIRAL">      0.00000000      0.00000000      0.00000000</v>
    <i type="logical" name="LZEROZ"> F  </i>
   </separator>
   <separator name="electronic exchange-correlation" >
    <i type="logical" name="LASPH"> T  </i>
    <i type="logical" name="LMETAGGA"> F  </i>
   </separator>
   <separator name="electronic convergence" >
    <i type="int" name="NELM">   100</i>
    <i type="int" name="NELMDL">    -5</i>
    <i type="int" name="NELMIN">     6</i>
    <i name="ENINI">    600.00000000</i>
    <separator name="electronic convergence detail" >
     <i type="logical" name="LDIAG"> T  </i>
     <i type="logical" name="LSUBROT"> F  </i>
     <i name="WEIMIN">      0.00000000</i>
     <i name="EBREAK">      0.00000000</i>
     <i name="DEPER">      0.30000000</i>
     <i type="int" name="NRMM">     4</i>
     <i name="TIME">      0.40000000</i>
    </separator>
   </separator>
   <separator name="electronic mixer" >
    <i name="AMIX">      0.40000000</i>
    <i name="BMIX">      1.00000000</i>
    <i name="AMIN">      0.10000000</i>
    <i name="AMIX_MAG">      1.60000000</i>
    <i name="BMIX_MAG">      1.00000000</i>
    <separator name="electronic mixer details" >
     <i type="int" name="IMIX">     4</i>
     <i type="logical" name="MIXFIRST"> F  </i>
     <i type="int" name="MAXMIX">   -45</i>
     <i name="WC">    100.00000000</i>
     <i type="int" name="INIMIX">     1</i>
     <i type="int" name="MIXPRE">     1</i>
     <i type="int" name="MREMOVE">     5</i>
    </separator>
   </separator>
   <separator name="electronic dipolcorrection" >
    <i type="logical" name="LDIPOL"> F  </i>
    <i type="logical" name="LMONO"> F  </i>
    <i type="int" name="IDIPOL">     0</i>
    <i name="EPSILON">      1.00000000</i>
    <v name="DIPOL">   -100.00000000   -100.00000000   -100.00000000</v>
    <i name="EFIELD">      0.00000000</i>
   </separator>
  </separator>
  <separator name="grids" >
   <i type="int" name="NGX">    48</i>
   <i type="int" name="NGY">    48</i>
   <i type="int" name="NGZ">    48</i>
   <i type="int" name="NGXF">    96</i>
   <i type="int" name="NGYF">    96</i>
   <i type="int" name="NGZF">    96</i>
   <i type="logical" name="ADDGRID"> T  </i>
  </separator>
  <separator name="ionic" >
   <i type="int" name="NSW">     0</i>
   <i type="int" name="IBRION">    -1</i>
   <i type="int" name="MDALGO">     0</i>
   <i type="int" name="ISIF">    -1</i>
   <i name="PSTRESS">      0.00000000</i>
   <i name="EDIFFG">      0.00000001</i>
   <i type="int" name="NFREE">     0</i>
   <i name="POTIM">      0.50000000</i>
   <i name="SMASS">     -3.00000000</i>
   <i name="SCALEE">      1.00000000</i>
  </separator>
  <separator name="ionic md" >
   <i name="TEBEG">      0.00010000</i>
   <i name="TEEND">      0.00010000</i>
   <i type="int" name="NBLOCK">     1</i>
   <i type="int" name="KBLOCK">     1</i>
   <i type="int" name="NPACO">   256</i>
   <i name="APACO">     16.00000000</i>
  </separator>
  <separator name="symmetry" >
   <i type="int" name="ISYM">     2</i>
   <i name="SYMPREC">      0.00010000</i>
  </separator>
  <separator name="dos" >
   <i type="int" name="LORBIT">     0</i>
   <v name="RWIGS">     -1.00000000     -1.00000000     -1.00000000</v>
   <i type="int" name="NEDOS">   301</i>
   <i name="EMIN">     10.00000000</i>
   <i name="EMAX">    -10.00000000</i>
   <i name="EFERMI">      0.00000000</i>
  </separator>
  <separator name="writing" >
   <i type="int" name="NWRITE">     2</i>
   <i type="logical" name="LWAVE"> T  </i>
   <i type="logical" name="LDOWNSAMPLE"> F  </i>
   <i type="logical" name="LCHARG"> T  </i>
   <i type="logical" name="LPARD"> F  </i>
   <i type="logical" name="LVTOT"> F  </i>
   <i type="logical" name="LVHAR"> F  </i>
   <i type="logical" name="LELF"> F  </i>
   <i type="logical" name="LOPTICS"> F  </i>
   <v name="STM">      0.00000000      0.00000000      0.00000000      0.00000000      0.00000000      0.00000000      0.00000000</v>
  </separator>
  <separator name="performance" >
   <i type="int" name="NPAR">     6</i>
   <i type="int" name="NSIM">     4</i>
   <i type="int" name="NBLK">    -1</i>
   <i type="logical" name="LPLANE"> T  </i>
   <i type="logical" name="LSCALAPACK"> T  </i>
   <i type="logical" name="LSCAAWARE"> F  </i>
   <i type="logical" name="LSCALU"> F  </i>
   <i type="logical" name="LASYNC"> F  </i>
   <i type="logical" name="LORBITALREAL"> F  </i>
  </separator>
  <separator name="miscellaneous" >
   <i type="int" name="IDIOT">     3</i>
   <i type="int" name="PHON_NSTRUCT">    -1</i>
   <i type="logical" name="LMUSIC"> F  </i>
   <v name="POMASS">     10.81100000     95.94000000     28.08500000</v>
   <v name="DARWINR">      0.00000000      0.00000000      0.00000000</v>
   <v name="DARWINV">      1.00000000      1.00000000      1.00000000</v>
   <i type="logical" name="LCORR"> T  </i>
  </separator>
  <i type="logical" name="GGA_COMPAT"> T  </i>
  <i type="logical" name="LBERRY"> F  </i>
  <i type="int" name="ICORELEVEL">     0</i>
  <i type="logical" name="LDAU"> F  </i>
  <i type="int" name="I_CONSTRAINED_M">     0</i>
  <separator name="electronic exchange-correlation" >
   <i type="string" name="GGA">--</i>
   <i type="int" name="VOSKOWN">     0</i>
   <i type="logical" name="LHFCALC"> F  </i>
   <i type="string" name="PRECFOCK"></i>
   <i type="logical" name="LSYMGRAD"> F  </i>
   <i type="logical" name="LHFONE"> F  </i>
   <i type="logical" name="LRHFCALC"> F  </i>
   <i type="logical" name="LTHOMAS"> F  </i>
   <i type="logical" name="LMODELHF"> F  </i>
   <i type="logical" name="LFOCKACE"> F  </i>
   <i name="ENCUT4O">     -1.00000000</i>
   <i type="int" name="EXXOEP">     0</i>
   <i type="int" name="FOURORBIT">     0</i>
   <i name="AEXX">      0.00000000</i>
   <i name="HFALPHA">      0.00000000</i>
   <i name="MCALPHA">      0.00000000</i>
   <i name="ALDAX">      1.00000000</i>
   <i name="AGGAX">      1.00000000</i>
   <i name="ALDAC">      1.00000000</i>
   <i name="AGGAC">      1.00000000</i>
   <i type="int" name="NKREDX">     1</i>
   <i type="int" name="NKREDY">     1</i>
   <i type="int" name="NKREDZ">     1</i>
   <i type="logical" name="SHIFTRED"> F  </i>
   <i type="logical" name="ODDONLY"> F  </i>
   <i type="logical" name="EVENONLY"> F  </i>
   <i type="int" name="LMAXFOCK">     0</i>
   <i type="int" name="NMAXFOCKAE">     0</i>
   <i type="logical" name="LFOCKAEDFT"> F  </i>
   <i name="HFSCREEN">      0.00000000</i>
   <i name="HFSCREENC">      0.00000000</i>
   <i type="int" name="NBANDSGWLOW">     0</i>
  </separator>
  <separator name="vdW DFT" >
   <i type="logical" name="LUSE_VDW"> F  </i>
   <i name="Zab_VDW">     -0.84910000</i>
   <i name="PARAM1">      0.12340000</i>
   <i name="PARAM2">      1.00000000</i>
   <i name="PARAM3">      0.00000000</i>
  </separator>
  <separator name="model GW" >
   <i type="int" name="MODEL_GW">     0</i>
   <i name="MODEL_EPS0">      6.76340785</i>
   <i name="MODEL_ALPHA">      1.00000000</i>
  </separator>
  <separator name="linear response parameters" >
   <i type="logical" name="LEPSILON"> F  </i>
   <i type="logical" name="LRPA"> F  </i>
   <i type="logical" name="LNABLA"> F  </i>
   <i type="logical" name="LVEL"> F  </i>
   <i type="int" name="KINTER">     0</i>
   <i name="CSHIFT">      0.10000000</i>
   <i name="OMEGAMAX">     -1.00000000</i>
   <i name="DEG_THRESHOLD">      0.00200000</i>
   <i name="RTIME">     -0.10000000</i>
   <i name="WPLASMAI">      0.00000000</i>
   <v name="DFIELD">      0.00000000      0.00000000      0.00000000</v>
   <v name="WPLASMA">      0.00000000      0.00000000      0.00000000      0.00000000      0.00000000      0.00000000      0.00000000      0.00000000      0.00000000</v>
  </separator>
  <separator name="orbital magnetization" >
   <i type="logical" name="NUCIND"> F  </i>
   <v name="MAGPOS">      0.00000000      0.00000000      0.00000000</v>
   <i type="logical" name="LNICSALL"> T  </i>
   <i type="logical" name="ORBITALMAG"> F  </i>
   <i type="logical" name="LMAGBLOCH"> F  </i>
   <i type="logical" name="LCHIMAG"> F  </i>
   <i type="logical" name="LGAUGE"> T  </i>
   <i type="int" name="MAGATOM">     0</i>
   <v name="MAGDIPOL">      0.00000000      0.00000000      0.00000000</v>
   <v name="AVECCONST">      0.00000000      0.00000000      0.00000000</v>
  </separator>
  <separator name="response functions" >
   <i type="logical" name="LFINITE_TEMPERATURE"> F  </i>
   <i type="logical" name="LADDER"> F  </i>
   <i type="logical" name="LRPAFORCE"> F  </i>
   <i type="logical" name="LFXC"> F  </i>
   <i type="logical" name="LHARTREE"> T  </i>
   <i type="int" name="IBSE">     0</i>
   <v type="int" name="KPOINT">    -1     0     0     0</v>
   <i type="logical" name="LTCTC"> F  </i>
   <i type="logical" name="LTCTE"> F  </i>
   <i type="logical" name="LTETE"> F  </i>
   <i type="logical" name="LTRIPLET"> F  </i>
   <i type="logical" name="LFXCEPS"> F  </i>
   <i type="logical" name="LFXHEG"> F  </i>
   <i type="int" name="NATURALO">     2</i>
   <i type="logical" name="LHOLEGF"> F  </i>
   <i type="logical" name="L2ORDER"> F  </i>
   <i type="logical" name="LDMP1"> F  </i>
   <i type="logical" name="LMP2LT"> F  </i>
   <i type="logical" name="LSMP2LT"> F  </i>
   <i type="logical" name="LGWLF"> F  </i>
   <i name="ENCUTGW">     -2.00000000</i>
   <i name="ENCUTGWSOFT">     -2.00000000</i>
   <i name="ENCUTLF">     -1.00000000</i>
   <i type="logical" name="LESF_SPLINES"> F  </i>
   <i type="int" name="LMAXMP2">    -1</i>
   <i name="SCISSOR">      0.00000000</i>
   <i type="int" name="NOMEGA">     0</i>
   <i type="int" name="NOMEGAR">     0</i>
   <i type="int" name="NBANDSGW">    -1</i>
   <i type="int" name="NBANDSO">    -1</i>
   <i type="int" name="NBANDSV">    -1</i>
   <i type="int" name="NELM">   100</i>
   <i type="int" name="NELMHF">     1</i>
   <i type="int" name="DIM">     3</i>
   <i type="int" name="IESPILON">     4</i>
   <i type="int" name="ANTIRES">     0</i>
   <i name="OMEGAMAX">    -30.00000000</i>
   <i name="OMEGAMIN">    -30.00000000</i>
   <i name="OMEGATL">   -200.00000000</i>
   <i type="int" name="OMEGAGRID">     0</i>
   <i name="CSHIFT">     -0.10000000</i>
   <i type="logical" name="LSELFENERGY"> F  </i>
   <i type="logical" name="LSPECTRAL"> F  </i>
   <i type="logical" name="LSPECTRALGW"> F  </i>
   <i type="logical" name="LSINGLES"> F  </i>
   <i type="logical" name="LFERMIGW"> F  </i>
   <i type="logical" name="ODDONLYGW"> F  </i>
   <i type="logical" name="EVENONLYGW"> F  </i>
   <i type="int" name="NKREDLFX">     1</i>
   <i type="int" name="NKREDLFY">     1</i>
   <i type="int" name="NKREDLFZ">     1</i>
   <i type="int" name="MAXMEM">  2800</i>
   <i type="int" name="TELESCOPE">     0</i>
   <i type="int" name="NTAUPAR">    -1</i>
   <i type="int" name="NOMEGAPAR">    -1</i>
   <i name="DAMP_NEWTON">      0.80000001</i>
   <i name="LAMBDA">      1.00000000</i>
  </separator>
  <separator name="External order field" >
   <i name="OFIELD_KAPPA">      0.00000000</i>
   <v name="OFIELD_K">      0.00000000      0.00000000      0.00000000</v>
   <i name="OFIELD_Q6_NEAR">      0.00000000</i>
   <i name="OFIELD_Q6_FAR">      0.00000000</i>
   <i name="OFIELD_A">      0.00000000</i>
  </separator>
 </parameters>
 <atominfo>
  <atoms>      12 </atoms>
  <types>       3 </types>
  <array name="atoms" >
   <dimension dim="1">ion</dimension>
   <field type="string">element</field>
   <field type="int">atomtype</field>
   <set>
    <rc><c>B </c><c>   1</c></rc>
    <rc><c>B </c><c>   1</c></rc>
    <rc><c>B </c><c>   1</c></rc>
    <rc><c>B </c><c>   1</c></rc>
    <rc><c>Mo</c><c>   2</c></rc>
    <rc><c>Mo</c><c>   2</c></rc>
    <rc><c>Mo</c><c>   2</c></rc>
    <rc><c>Mo</c><c>   2</c></rc>
    <rc><c>Si</c><c>   3</c></rc>
    <rc><c>Si</c><c>   3</c></rc>
    <rc><c>Si</c><c>   3</c></rc>
    <rc><c>Si</c><c>   3</c></rc>
   </set>
  </array>
  <array name="atomtypes" >
   <dimension dim="1">type</dimension>
   <field type="int">atomspertype</field>
   <field type="string">element</field>
   <field>mass</field>
   <field>valence</field>
   <field type="string">pseudopotential</field>
   <set>
    <rc><c>   4</c><c>B </c><c>     10.81100000</c><c>      3.00000000</c><c>  PAW_PBE B 06Sep2000                   </c></rc>
    <rc><c>   4</c><c>Mo</c><c>     95.94000000</c><c>     14.00000000</c><c>  PAW_PBE Mo_sv 02Feb2006               </c></rc>
    <rc><c>   4</c><c>Si</c><c>     28.08500000</c><c>      4.00000000</c><c>  PAW_PBE Si 05Jan2001                  </c></rc>
   </set>
  </array>
 </atominfo>
 <structure name="initialpos" >
  <crystal>
   <varray name="basis" >
    <v>       5.07705686       0.00000000      -2.54096004 </v>
    <v>      -1.93752643       4.69281341      -2.54096004 </v>
    <v>       0.00000000       0.00000000       5.67741000 </v>
   </varray>
   <i name="volume">    135.26815696 </i>
   <varray name="rec_basis" >
    <v>       0.19696451       0.08132093       0.00000000 </v>
    <v>       0.00000000       0.21309179       0.00000000 </v>
    <v>       0.08815269       0.13176624       0.17613665 </v>
   </varray>
  </crystal>
  <varray name="positions" >
   <v>       0.69610000       0.19610000       0.89221000 </v>
   <v>       0.30390000       0.80390000       0.10779000 </v>
   <v>       0.19610000       0.30390000       0.50000000 </v>
   <v>       0.80390000       0.69610000       0.50000000 </v>
   <v>       0.25000000       0.25000000       0.00000000 </v>
   <v>       0.00000000       0.50000000       0.50000000 </v>
   <v>       0.75000000       0.75000000       0.00000000 </v>
   <v>       0.50000000       0.00000000       0.50000000 </v>
   <v>       0.23126000       0.26874000       0.50000000 </v>
   <v>       0.76874000       0.73126000       0.50000000 </v>
   <v>       0.26874000       0.76874000       0.03748000 </v>
   <v>       0.73126000       0.23126000       0.96252000 </v>
  </varray>
 </structure>
 <calculation>
  <scstep>
   <time name="total">    7.80    7.88</time>
   <energy>
    <i name="alphaZ">    404.83673589 </i>
    <i name="ewald">  -4822.92631279 </i>
    <i name="hartreedc">  -1838.74281060 </i>
    <i name="XCdc">    329.95625568 </i>
    <i name="pawpsdc">   6444.67582193 </i>
    <i name="pawaedc">  -6389.50304870 </i>
    <i name="eentropy">     -0.00095163 </i>
    <i name="bandstr">      3.73994831 </i>
    <i name="atom">   8146.07472429 </i>
    <i name="e_fr_energy">   2278.11036236 </i>
    <i name="e_wo_entrp">   2278.11131399 </i>
    <i name="e_0_energy">   2278.11083818 </i>
   </energy>
  </scstep>
  <scstep>
   <time name="total">    7.64    7.71</time>
   <energy>
    <i name="e_fr_energy">   1099.59390522 </i>
    <i name="e_wo_entrp">   1099.59500321 </i>
    <i name="e_0_energy">   1099.59445421 </i>
   </energy>
  </scstep>
  <scstep>
   <time name="total">    8.18    8.29</time>
   <energy>
    <i name="e_fr_energy">   1026.92150074 </i>
    <i name="e_wo_entrp">   1026.92279426 </i>
    <i name="e_0_energy">   1026.92214750 </i>
   </energy>
  </scstep>
  <scstep>
   <time name="total">    8.18    8.26</time>
   <energy>
    <i name="e_fr_energy">   1025.36399018 </i>
    <i name="e_wo_entrp">   1025.36614251 </i>
    <i name="e_0_energy">   1025.36506635 </i>
   </energy>
  </scstep>
  <scstep>
   <time name="total">    9.69    9.78</time>
   <energy>
    <i name="e_fr_energy">   1025.32820203 </i>
    <i name="e_wo_entrp">   1025.33030132 </i>
    <i name="e_0_energy">   1025.32925168 </i>
   </energy>
  </scstep>
  <scstep>
   <time name="total">   10.25   10.33</time>
   <energy>
    <i name="e_fr_energy">   1742.22632208 </i>
    <i name="e_wo_entrp">   1742.22825525 </i>
    <i name="e_0_energy">   1742.22728866 </i>
   </energy>
  </scstep>
  <scstep>
   <time name="total">   10.35   10.44</time>
   <energy>
    <i name="e_fr_energy">   1424.20756559 </i>
    <i name="e_wo_entrp">   1424.20884987 </i>
    <i name="e_0_energy">   1424.20820773 </i>
   </energy>
  </scstep>
  <scstep>
   <time name="total">   10.37   10.45</time>
   <energy>
    <i name="e_fr_energy">   1366.49824504 </i>
    <i name="e_wo_entrp">   1366.49898397 </i>
    <i name="e_0_energy">   1366.49861450 </i>
   </energy>
  </scstep>
  <scstep>
   <time name="total">   10.28   10.37</time>
   <energy>
    <i name="e_fr_energy">   1345.65764434 </i>
    <i name="e_wo_entrp">   1345.65874032 </i>
    <i name="e_0_energy">   1345.65819233 </i>
   </energy>
  </scstep>
  <scstep>
   <time name="total">   10.10   10.18</time>
   <energy>
    <i name="e_fr_energy">   1329.56904188 </i>
    <i name="e_wo_entrp">   1329.56955469 </i>
    <i name="e_0_energy">   1329.56929829 </i>
   </energy>
  </scstep>
  <scstep>
   <time name="total">    9.80    9.88</time>
   <energy>
    <i name="e_fr_energy">   1323.92938973 </i>
    <i name="e_wo_entrp">   1323.93021131 </i>
    <i name="e_0_energy">   1323.92980052 </i>
   </energy>
  </scstep>
  <scstep>
   <time name="total">   10.14   10.22</time>
   <energy>
    <i name="e_fr_energy">   1320.87763300 </i>
    <i name="e_wo_entrp">   1320.87898793 </i>
    <i name="e_0_energy">   1320.87831047 </i>
   </energy>
  </scstep>
  <scstep>
   <time name="total">    9.84    9.97</time>
   <energy>
    <i name="e_fr_energy">   1319.55673114 </i>
    <i name="e_wo_entrp">   1319.55745550 </i>
    <i name="e_0_energy">   1319.55709332 </i>
   </energy>
  </scstep>
  <scstep>
   <time name="total">   10.11   10.20</time>
   <energy>
    <i name="e_fr_energy">   1318.96502298 </i>
    <i name="e_wo_entrp">   1318.96606801 </i>
    <i name="e_0_energy">   1318.96554550 </i>
   </energy>
  </scstep>
  <scstep>
   <time name="total">    9.70    9.78</time>
   <energy>
    <i name="e_fr_energy">   1318.53860478 </i>
    <i name="e_wo_entrp">   1318.53916160 </i>
    <i name="e_0_energy">   1318.53888319 </i>
   </energy>
  </scstep>
  <scstep>
   <time name="total">   10.14   10.22</time>
   <energy>
    <i name="e_fr_energy">   1318.33046233 </i>
    <i name="e_wo_entrp">   1318.33160275 </i>
    <i name="e_0_energy">   1318.33103254 </i>
   </energy>
  </scstep>
  <scstep>
   <time name="total">    9.61    9.69</time>
   <energy>
    <i name="e_fr_energy">   1318.20223839 </i>
    <i name="e_wo_entrp">   1318.20380344 </i>
    <i name="e_0_energy">   1318.20302092 </i>
   </energy>
  </scstep>
  <scstep>
   <time name="total">    9.74    9.82</time>
   <energy>
    <i name="e_fr_energy">   1318.13675949 </i>
    <i name="e_wo_entrp">   1318.13868705 </i>
    <i name="e_0_energy">   1318.13772327 </i>
   </energy>
  </scstep>
  <scstep>
   <time name="total">    9.64    9.72</time>
   <energy>
    <i name="e_fr_energy">   1318.09971252 </i>
    <i name="e_wo_entrp">   1318.10191779 </i>
    <i name="e_0_energy">   1318.10081515 </i>
   </energy>
  </scstep>
  <scstep>
   <time name="total">   10.13   10.21</time>
   <energy>
    <i name="e_fr_energy">   1318.07566864 </i>
    <i name="e_wo_entrp">   1318.07801907 </i>
    <i name="e_0_energy">   1318.07684386 </i>
   </energy>
  </scstep>
  <scstep>
   <time name="total">    9.67    9.75</time>
   <energy>
    <i name="e_fr_energy">   1318.06173525 </i>
    <i name="e_wo_entrp">   1318.06414434 </i>
    <i name="e_0_energy">   1318.06293979 </i>
   </energy>
  </scstep>
  <scstep>
   <time name="total">   10.18   10.26</time>
   <energy>
    <i name="e_fr_energy">   1318.05299177 </i>
    <i name="e_wo_entrp">   1318.05557230 </i>
    <i name="e_0_energy">   1318.05428203 </i>
   </energy>
  </scstep>
  <scstep>
   <time name="total">    9.68    9.76</time>
   <energy>
    <i name="e_fr_energy">   1318.04780914 </i>
    <i name="e_wo_entrp">   1318.05044237 </i>
    <i name="e_0_energy">   1318.04912576 </i>
   </energy>
  </scstep>
  <scstep>
   <time name="total">   10.14   10.22</time>
   <energy>
    <i name="e_fr_energy">   1318.04457199 </i>
    <i name="e_wo_entrp">   1318.04717804 </i>
    <i name="e_0_energy">   1318.04587501 </i>
   </energy>
  </scstep>
  <scstep>
   <time name="total">    9.59    9.67</time>
   <energy>
    <i name="e_fr_energy">   1318.04244802 </i>
    <i name="e_wo_entrp">   1318.04503040 </i>
    <i name="e_0_energy">   1318.04373921 </i>
   </energy>
  </scstep>
  <scstep>
   <time name="total">    9.69    9.77</time>
   <energy>
    <i name="e_fr_energy">   1318.04102988 </i>
    <i name="e_wo_entrp">   1318.04359960 </i>
    <i name="e_0_energy">   1318.04231474 </i>
   </energy>
  </scstep>
  <scstep>
   <time name="total">    9.63    9.70</time>
   <energy>
    <i name="e_fr_energy">   1318.03990916 </i>
    <i name="e_wo_entrp">   1318.04251922 </i>
    <i name="e_0_energy">   1318.04121419 </i>
   </energy>
  </scstep>
  <scstep>
   <time name="total">   10.17   10.25</time>
   <energy>
    <i name="e_fr_energy">   1318.03891906 </i>
    <i name="e_wo_entrp">   1318.04153744 </i>
    <i name="e_0_energy">   1318.04022825 </i>
   </energy>
  </scstep>
  <scstep>
   <time name="total">    9.75    9.83</time>
   <energy>
    <i name="e_fr_energy">   1318.03812108 </i>
    <i name="e_wo_entrp">   1318.04059624 </i>
    <i name="e_0_energy">   1318.03935866 </i>
   </energy>
  </scstep>
  <scstep>
   <time name="total">   10.15   10.23</time>
   <energy>
    <i name="e_fr_energy">   1318.03772951 </i>
    <i name="e_wo_entrp">   1318.04008345 </i>
    <i name="e_0_energy">   1318.03890648 </i>
   </energy>
  </scstep>
  <scstep>
   <time name="total">    9.71    9.79</time>
   <energy>
    <i name="e_fr_energy">   1318.03733078 </i>
    <i name="e_wo_entrp">   1318.03962933 </i>
    <i name="e_0_energy">   1318.03848005 </i>
   </energy>
  </scstep>
  <scstep>
   <time name="total">   10.16   10.24</time>
   <energy>
    <i name="e_fr_energy">   1318.03703758 </i>
    <i name="e_wo_entrp">   1318.03931160 </i>
    <i name="e_0_energy">   1318.03817459 </i>
   </energy>
  </scstep>
  <scstep>
   <time name="total">    9.70    9.78</time>
   <energy>
    <i name="e_fr_energy">   1318.03679459 </i>
    <i name="e_wo_entrp">   1318.03907639 </i>
    <i name="e_0_energy">   1318.03793549 </i>
   </energy>
  </scstep>
  <scstep>
   <time name="total">    9.72    9.80</time>
   <energy>
    <i name="e_fr_energy">   1318.03662206 </i>
    <i name="e_wo_entrp">   1318.03894229 </i>
    <i name="e_0_energy">   1318.03778217 </i>
   </energy>
  </scstep>
  <scstep>
   <time name="total">    9.61    9.69</time>
   <energy>
    <i name="e_fr_energy">   1318.03648681 </i>
    <i name="e_wo_entrp">   1318.03884634 </i>
    <i name="e_0_energy">   1318.03766658 </i>
   </energy>
  </scstep>
  <scstep>
   <time name="total">   10.03   10.11</time>
   <energy>
    <i name="e_fr_energy">   1318.03640524 </i>
    <i name="e_wo_entrp">   1318.03879696 </i>
    <i name="e_0_energy">   1318.03760110 </i>
   </energy>
  </scstep>
  <scstep>
   <time name="total">    9.76    9.84</time>
   <energy>
    <i name="e_fr_energy">   1318.03634082 </i>
    <i name="e_wo_entrp">   1318.03874491 </i>
    <i name="e_0_energy">   1318.03754287 </i>
   </energy>
  </scstep>
  <scstep>
   <time name="total">   10.05   10.13</time>
   <energy>
    <i name="e_fr_energy">   1318.03621265 </i>
    <i name="e_wo_entrp">   1318.03863011 </i>
    <i name="e_0_energy">   1318.03742138 </i>
   </energy>
  </scstep>
  <scstep>
   <time name="total">    9.81    9.89</time>
   <energy>
    <i name="e_fr_energy">   1318.03617223 </i>
    <i name="e_wo_entrp">   1318.03860363 </i>
    <i name="e_0_energy">   1318.03738793 </i>
   </energy>
  </scstep>
  <scstep>
   <time name="total">   10.10   10.18</time>
   <energy>
    <i name="e_fr_energy">   1318.03614524 </i>
    <i name="e_wo_entrp">   1318.03858298 </i>
    <i name="e_0_energy">   1318.03736411 </i>
   </energy>
  </scstep>
  <scstep>
   <time name="total">    9.83    9.91</time>
   <energy>
    <i name="e_fr_energy">   1318.03613619 </i>
    <i name="e_wo_entrp">   1318.03857628 </i>
    <i name="e_0_energy">   1318.03735624 </i>
   </energy>
  </scstep>
  <scstep>
   <time name="total">    9.78    9.86</time>
   <energy>
    <i name="e_fr_energy">   1318.03613448 </i>
    <i name="e_wo_entrp">   1318.03857764 </i>
    <i name="e_0_energy">   1318.03735606 </i>
   </energy>
  </scstep>
  <scstep>
   <time name="total">    9.63    9.71</time>
   <energy>
    <i name="e_fr_energy">   1318.03613359 </i>
    <i name="e_wo_entrp">   1318.03857843 </i>
    <i name="e_0_energy">   1318.03735601 </i>
   </energy>
  </scstep>
  <scstep>
   <time name="total">    9.76    9.84</time>
   <energy>
    <i name="e_fr_energy">   1318.03613326 </i>
    <i name="e_wo_entrp">   1318.03857863 </i>
    <i name="e_0_energy">   1318.03735594 </i>
   </energy>
  </scstep>
  <scstep>
   <time name="total">    9.69    9.77</time>
   <energy>
    <i name="e_fr_energy">   1318.03613327 </i>
    <i name="e_wo_entrp">   1318.03857881 </i>
    <i name="e_0_energy">   1318.03735604 </i>
   </energy>
  </scstep>
  <scstep>
   <time name="total">    9.98   10.06</time>
   <energy>
    <i name="e_fr_energy">   1318.03613299 </i>
    <i name="e_wo_entrp">   1318.03857871 </i>
    <i name="e_0_energy">   1318.03735585 </i>
   </energy>
  </scstep>
  <scstep>
   <time name="total">    9.80    9.87</time>
   <energy>
    <i name="e_fr_energy">   1318.03613291 </i>
    <i name="e_wo_entrp">   1318.03857922 </i>
    <i name="e_0_energy">   1318.03735607 </i>
   </energy>
  </scstep>
  <scstep>
   <time name="total">    9.84    9.92</time>
   <energy>
    <i name="e_fr_energy">   1318.03613292 </i>
    <i name="e_wo_entrp">   1318.03857939 </i>
    <i name="e_0_energy">   1318.03735615 </i>
   </energy>
  </scstep>
  <scstep>
   <time name="total">    9.84    9.92</time>
   <energy>
    <i name="e_fr_energy">   1318.03613287 </i>
    <i name="e_wo_entrp">   1318.03857938 </i>
    <i name="e_0_energy">   1318.03735613 </i>
   </energy>
  </scstep>
  <scstep>
   <time name="total">    9.63    9.71</time>
   <energy>
    <i name="e_fr_energy">   1318.03613295 </i>
    <i name="e_wo_entrp">   1318.03857950 </i>
    <i name="e_0_energy">   1318.03735622 </i>
   </energy>
  </scstep>
  <scstep>
   <time name="total">    9.57    9.65</time>
   <energy>
    <i name="e_fr_energy">   1318.03613286 </i>
    <i name="e_wo_entrp">   1318.03857947 </i>
    <i name="e_0_energy">   1318.03735616 </i>
   </energy>
  </scstep>
  <scstep>
   <time name="total">    9.70    9.78</time>
   <energy>
    <i name="e_fr_energy">   1318.03613277 </i>
    <i name="e_wo_entrp">   1318.03857937 </i>
    <i name="e_0_energy">   1318.03735607 </i>
   </energy>
  </scstep>
  <scstep>
   <time name="total">    9.68    9.75</time>
   <energy>
    <i name="e_fr_energy">   1318.03613285 </i>
    <i name="e_wo_entrp">   1318.03857946 </i>
    <i name="e_0_energy">   1318.03735615 </i>
   </energy>
  </scstep>
  <scstep>
   <time name="total">    9.73    9.80</time>
   <energy>
    <i name="e_fr_energy">   1318.03613283 </i>
    <i name="e_wo_entrp">   1318.03857944 </i>
    <i name="e_0_energy">   1318.03735614 </i>
   </energy>
  </scstep>
  <scstep>
   <time name="total">    9.98   10.05</time>
   <energy>
    <i name="e_fr_energy">   1318.03613284 </i>
    <i name="e_wo_entrp">   1318.03857944 </i>
    <i name="e_0_energy">   1318.03735614 </i>
   </energy>
  </scstep>
  <scstep>
   <time name="total">    9.86    9.94</time>
   <energy>
    <i name="e_fr_energy">   1318.03613282 </i>
    <i name="e_wo_entrp">   1318.03857942 </i>
    <i name="e_0_energy">   1318.03735612 </i>
   </energy>
  </scstep>
  <scstep>
   <time name="total">   10.00   10.08</time>
   <energy>
    <i name="e_fr_energy">   1318.03613282 </i>
    <i name="e_wo_entrp">   1318.03857943 </i>
    <i name="e_0_energy">   1318.03735613 </i>
   </energy>
  </scstep>
  <scstep>
   <time name="total">   10.21   10.29</time>
   <energy>
    <i name="e_fr_energy">   1318.03613280 </i>
    <i name="e_wo_entrp">   1318.03857941 </i>
    <i name="e_0_energy">   1318.03735611 </i>
   </energy>
  </scstep>
  <scstep>
   <time name="total">   10.76   10.85</time>
   <energy>
    <i name="e_fr_energy">   1318.03613286 </i>
    <i name="e_wo_entrp">   1318.03857947 </i>
    <i name="e_0_energy">   1318.03735617 </i>
   </energy>
  </scstep>
  <scstep>
   <time name="total">   10.46   10.55</time>
   <energy>
    <i name="e_fr_energy">   1318.03613285 </i>
    <i name="e_wo_entrp">   1318.03857948 </i>
    <i name="e_0_energy">   1318.03735617 </i>
   </energy>
  </scstep>
  <scstep>
   <time name="total">   10.70   10.79</time>
   <energy>
    <i name="e_fr_energy">   1318.03613276 </i>
    <i name="e_wo_entrp">   1318.03857939 </i>
    <i name="e_0_energy">   1318.03735607 </i>
   </energy>
  </scstep>
  <scstep>
   <time name="total">   10.00   10.08</time>
   <energy>
    <i name="e_fr_energy">   1318.03613281 </i>
    <i name="e_wo_entrp">   1318.03857944 </i>
    <i name="e_0_energy">   1318.03735613 </i>
   </energy>
  </scstep>
  <scstep>
   <time name="total">    9.85    9.93</time>
   <energy>
    <i name="e_fr_energy">   1318.03613280 </i>
    <i name="e_wo_entrp">   1318.03857943 </i>
    <i name="e_0_energy">   1318.03735611 </i>
   </energy>
  </scstep>
  <scstep>
   <time name="total">    9.61    9.69</time>
   <energy>
    <i name="e_fr_energy">   1318.03613278 </i>
    <i name="e_wo_entrp">   1318.03857941 </i>
    <i name="e_0_energy">   1318.03735610 </i>
   </energy>
  </scstep>
  <scstep>
   <time name="total">    9.91    9.99</time>
   <energy>
    <i name="e_fr_energy">   1318.03613276 </i>
    <i name="e_wo_entrp">   1318.03857939 </i>
    <i name="e_0_energy">   1318.03735608 </i>
   </energy>
  </scstep>
  <scstep>
   <time name="total">    9.64    9.72</time>
   <energy>
    <i name="e_fr_energy">   1318.03613284 </i>
    <i name="e_wo_entrp">   1318.03857948 </i>
    <i name="e_0_energy">   1318.03735616 </i>
   </energy>
  </scstep>
  <scstep>
   <time name="total">    9.83    9.91</time>
   <energy>
    <i name="e_fr_energy">   1318.03613280 </i>
    <i name="e_wo_entrp">   1318.03857943 </i>
    <i name="e_0_energy">   1318.03735612 </i>
   </energy>
  </scstep>
  <scstep>
   <time name="total">    9.55    9.62</time>
   <energy>
    <i name="e_fr_energy">   1318.03613285 </i>
    <i name="e_wo_entrp">   1318.03857950 </i>
    <i name="e_0_energy">   1318.03735618 </i>
   </energy>
  </scstep>
  <scstep>
   <time name="total">    9.70    9.78</time>
   <energy>
    <i name="e_fr_energy">   1318.03613282 </i>
    <i name="e_wo_entrp">   1318.03857947 </i>
    <i name="e_0_energy">   1318.03735614 </i>
   </energy>
  </scstep>
  <scstep>
   <time name="total">    9.55    9.63</time>
   <energy>
    <i name="e_fr_energy">   1318.03613287 </i>
    <i name="e_wo_entrp">   1318.03857953 </i>
    <i name="e_0_energy">   1318.03735620 </i>
   </energy>
  </scstep>
  <scstep>
   <time name="total">    9.70    9.78</time>
   <energy>
    <i name="e_fr_energy">   1318.03613285 </i>
    <i name="e_wo_entrp">   1318.03857952 </i>
    <i name="e_0_energy">   1318.03735618 </i>
   </energy>
  </scstep>
  <scstep>
   <time name="total">    9.80    9.87</time>
   <energy>
    <i name="e_fr_energy">   1318.03613287 </i>
    <i name="e_wo_entrp">   1318.03857953 </i>
    <i name="e_0_energy">   1318.03735620 </i>
   </energy>
  </scstep>
  <scstep>
   <time name="total">   10.02   10.10</time>
   <energy>
    <i name="e_fr_energy">   1318.03613284 </i>
    <i name="e_wo_entrp">   1318.03857950 </i>
    <i name="e_0_energy">   1318.03735617 </i>
   </energy>
  </scstep>
  <scstep>
   <time name="total">    9.74    9.82</time>
   <energy>
    <i name="e_fr_energy">   1318.03613282 </i>
    <i name="e_wo_entrp">   1318.03857948 </i>
    <i name="e_0_energy">   1318.03735615 </i>
   </energy>
  </scstep>
  <scstep>
   <time name="total">    9.91    9.98</time>
   <energy>
    <i name="e_fr_energy">   1318.03613286 </i>
    <i name="e_wo_entrp">   1318.03857952 </i>
    <i name="e_0_energy">   1318.03735619 </i>
   </energy>
  </scstep>
  <scstep>
   <time name="total">    9.87    9.94</time>
   <energy>
    <i name="e_fr_energy">   1318.03613283 </i>
    <i name="e_wo_entrp">   1318.03857950 </i>
    <i name="e_0_energy">   1318.03735616 </i>
   </energy>
  </scstep>
  <scstep>
   <time name="total">    9.70    9.78</time>
   <energy>
    <i name="e_fr_energy">   1318.03613280 </i>
    <i name="e_wo_entrp">   1318.03857947 </i>
    <i name="e_0_energy">   1318.03735614 </i>
   </energy>
  </scstep>
  <scstep>
   <time name="total">    9.49    9.56</time>
   <energy>
    <i name="e_fr_energy">   1318.03613291 </i>
    <i name="e_wo_entrp">   1318.03857958 </i>
    <i name="e_0_energy">   1318.03735625 </i>
   </energy>
  </scstep>
  <scstep>
   <time name="total">    9.75    9.82</time>
   <energy>
    <i name="e_fr_energy">   1318.03613284 </i>
    <i name="e_wo_entrp">   1318.03857951 </i>
    <i name="e_0_energy">   1318.03735618 </i>
   </energy>
  </scstep>
  <scstep>
   <time name="total">    9.68    9.77</time>
   <energy>
    <i name="e_fr_energy">   1318.03613277 </i>
    <i name="e_wo_entrp">   1318.03857945 </i>
    <i name="e_0_energy">   1318.03735611 </i>
   </energy>
  </scstep>
  <scstep>
   <time name="total">    9.74    9.82</time>
   <energy>
    <i name="e_fr_energy">   1318.03613285 </i>
    <i name="e_wo_entrp">   1318.03857952 </i>
    <i name="e_0_energy">   1318.03735618 </i>
   </energy>
  </scstep>
  <scstep>
   <time name="total">    9.85    9.93</time>
   <energy>
    <i name="e_fr_energy">   1318.03613284 </i>
    <i name="e_wo_entrp">   1318.03857952 </i>
    <i name="e_0_energy">   1318.03735618 </i>
   </energy>
  </scstep>
  <scstep>
   <time name="total">    9.63    9.71</time>
   <energy>
    <i name="e_fr_energy">   1318.03613286 </i>
    <i name="e_wo_entrp">   1318.03857954 </i>
    <i name="e_0_energy">   1318.03735620 </i>
   </energy>
  </scstep>
  <scstep>
   <time name="total">   11.17   11.26</time>
   <energy>
    <i name="alphaZ">    404.83673589 </i>
    <i name="ewald">  -4822.92631279 </i>
    <i name="hartreedc">  -1967.56020494 </i>
    <i name="XCdc">    351.57461281 </i>
    <i name="pawpsdc">**************** </i>
    <i name="pawaedc">**************** </i>
    <i name="eentropy">     -0.00244668 </i>
    <i name="bandstr">   -825.30590934 </i>
    <i name="atom">   8146.07472429 </i>
    <i name="e_fr_energy">   1318.03613286 </i>
    <i name="e_wo_entrp">   1318.03857954 </i>
    <i name="e_0_energy">   1318.03735620 </i>
   </energy>
  </scstep>
  <structure>
   <crystal>
    <varray name="basis" >
     <v>       5.07705686       0.00000000      -2.54096004 </v>
     <v>      -1.93752643       4.69281341      -2.54096004 </v>
     <v>       0.00000000       0.00000000       5.67741000 </v>
    </varray>
    <i name="volume">    135.26815696 </i>
    <varray name="rec_basis" >
     <v>       0.19696451       0.08132093       0.00000000 </v>
     <v>       0.00000000       0.21309179       0.00000000 </v>
     <v>       0.08815269       0.13176624       0.17613665 </v>
    </varray>
   </crystal>
   <varray name="positions" >
    <v>       0.69610000       0.19610000       0.89221000 </v>
    <v>       0.30390000       0.80390000       0.10779000 </v>
    <v>       0.19610000       0.30390000       0.50000000 </v>
    <v>       0.80390000       0.69610000       0.50000000 </v>
    <v>       0.25000000       0.25000000       0.00000000 </v>
    <v>       0.00000000       0.50000000       0.50000000 </v>
    <v>       0.75000000       0.75000000       0.00000000 </v>
    <v>       0.50000000       0.00000000       0.50000000 </v>
    <v>       0.23126000       0.26874000       0.50000000 </v>
    <v>       0.76874000       0.73126000       0.50000000 </v>
    <v>       0.26874000       0.76874000       0.03748000 </v>
    <v>       0.73126000       0.23126000       0.96252000 </v>
   </varray>
  </structure>
  <varray name="forces" >
   <v>       0.00000000       0.00000000       0.00000000 </v>
   <v>       0.00000000       0.00000000       0.00000000 </v>
   <v>       0.00000000       0.00000000       0.00000000 </v>
   <v>       0.00000000       0.00000000       0.00000000 </v>
   <v>       0.00000000       0.00000000       0.00000000 </v>
   <v>       0.00000000       0.00000000       0.00000000 </v>
   <v>       0.00000000       0.00000000       0.00000000 </v>
   <v>       0.00000000       0.00000000       0.00000000 </v>
   <v>       0.00000000       0.00000000       0.00000000 </v>
   <v>       0.00000000       0.00000000       0.00000000 </v>
   <v>       0.00000000       0.00000000       0.00000000 </v>
   <v>       0.00000000       0.00000000       0.00000000 </v>
  </varray>
  <varray name="stress" >
   <v>       0.00000000       0.00000000       0.00000000 </v>
   <v>       0.00000000       0.00000000       0.00000000 </v>
   <v>       0.00000000       0.00000000       0.00000000 </v>
  </varray>
  <energy>
   <i name="e_fr_energy">   1318.03613286 </i>
   <i name="e_wo_entrp">   1318.03857954 </i>
   <i name="e_0_energy">   1318.03735620 </i>
  </energy>
  <time name="totalsc">  825.28  832.63</time>
  <eigenvalues>
   <array>
    <dimension dim="1">band</dimension>
    <dimension dim="2">kpoint</dimension>
    <dimension dim="3">spin</dimension>
    <field>eigene</field>
    <field>occ</field>
    <set>
     <set comment="spin 1">
      <set comment="kpoint 1">
       <r>  -53.0758    1.0000 </r>
       <r>  -53.0724    1.0000 </r>
       <r>  -52.7243    1.0000 </r>
       <r>  -52.7221    1.0000 </r>
       <r>  -27.8321    1.0000 </r>
       <r>  -27.8305    1.0000 </r>
       <r>  -26.5958    1.0000 </r>
       <r>  -26.5950    1.0000 </r>
       <r>  -26.1805    1.0000 </r>
       <r>  -26.1777    1.0000 </r>
       <r>  -26.1775    1.0000 </r>
       <r>  -26.1690    1.0000 </r>
       <r>  -26.1663    1.0000 </r>
       <r>  -26.1662    1.0000 </r>
       <r>  -26.1100    1.0000 </r>
       <r>  -26.0481    1.0000 </r>
       <r>   -1.0065    1.0000 </r>
       <r>   -0.8227    1.0000 </r>
       <r>   -0.5732    1.0000 </r>
       <r>   -0.1072    1.0000 </r>
       <r>    0.5573    1.0000 </r>
       <r>    0.5577    1.0000 </r>
       <r>    1.4390    1.0000 </r>
       <r>    1.4392    1.0000 </r>
       <r>    1.6402    1.0000 </r>
       <r>    2.2054    1.0000 </r>
       <r>    2.7125    1.0000 </r>
       <r>    2.8075    1.0000 </r>
       <r>    3.6548    1.0000 </r>
       <r>    3.6550    1.0000 </r>
       <r>    6.0871    1.0000 </r>
       <r>    6.0883    1.0000 </r>
       <r>    6.4099    1.0000 </r>
       <r>    7.3501    1.0000 </r>
       <r>    7.3504    1.0000 </r>
       <r>    7.9965    1.0000 </r>
       <r>    8.3530    1.0000 </r>
       <r>    8.5590    1.0000 </r>
       <r>    9.2628    1.0000 </r>
       <r>    9.8827    1.0000 </r>
       <r>   10.0104    1.0000 </r>
       <r>   10.0105    1.0000 </r>
       <r>   10.3969    0.0000 </r>
       <r>   10.7715    0.0000 </r>
       <r>   10.9672    0.0000 </r>
       <r>   11.5037    0.0000 </r>
       <r>   11.8880    0.0000 </r>
       <r>   12.2479    0.0000 </r>
       <r>   12.2480    0.0000 </r>
       <r>   12.9120    0.0000 </r>
       <r>   13.0144    0.0000 </r>
       <r>   13.2227    0.0000 </r>
       <r>   14.3567    0.0000 </r>
       <r>   14.5307    0.0000 </r>
      </set>
      <set comment="kpoint 2">
       <r>  -53.0757    1.0000 </r>
       <r>  -53.0725    1.0000 </r>
       <r>  -52.7242    1.0000 </r>
       <r>  -52.7222    1.0000 </r>
       <r>  -27.8320    1.0000 </r>
       <r>  -27.8304    1.0000 </r>
       <r>  -26.5962    1.0000 </r>
       <r>  -26.5948    1.0000 </r>
       <r>  -26.1950    1.0000 </r>
       <r>  -26.1771    1.0000 </r>
       <r>  -26.1709    1.0000 </r>
       <r>  -26.1666    1.0000 </r>
       <r>  -26.1650    1.0000 </r>
       <r>  -26.1613    1.0000 </r>
       <r>  -26.1078    1.0000 </r>
       <r>  -26.0515    1.0000 </r>
       <r>   -0.9443    1.0000 </r>
       <r>   -0.7948    1.0000 </r>
       <r>   -0.5627    1.0000 </r>
       <r>   -0.1091    1.0000 </r>
       <r>    0.5579    1.0000 </r>
       <r>    0.5856    1.0000 </r>
       <r>    1.2666    1.0000 </r>
       <r>    1.4221    1.0000 </r>
       <r>    1.6631    1.0000 </r>
       <r>    2.1576    1.0000 </r>
       <r>    2.4696    1.0000 </r>
       <r>    2.7367    1.0000 </r>
       <r>    3.8087    1.0000 </r>
       <r>    3.8697    1.0000 </r>
       <r>    5.9905    1.0000 </r>
       <r>    6.0958    1.0000 </r>
       <r>    6.5857    1.0000 </r>
       <r>    7.3292    1.0000 </r>
       <r>    7.3997    1.0000 </r>
       <r>    7.8965    1.0000 </r>
       <r>    8.6398    1.0000 </r>
       <r>    8.6456    1.0000 </r>
       <r>    9.2576    1.0000 </r>
       <r>    9.9110    1.0000 </r>
       <r>    9.9947    1.0000 </r>
       <r>   10.0109    1.0000 </r>
       <r>   10.5496    0.0000 </r>
       <r>   10.6541    0.0000 </r>
       <r>   10.9511    0.0000 </r>
       <r>   11.4186    0.0000 </r>
       <r>   11.9299    0.0000 </r>
       <r>   12.0659    0.0000 </r>
       <r>   12.1779    0.0000 </r>
       <r>   12.3610    0.0000 </r>
       <r>   12.5521    0.0000 </r>
       <r>   13.3709    0.0000 </r>
       <r>   13.8233    0.0000 </r>
       <r>   14.5563    0.0000 </r>
      </set>
      <set comment="kpoint 3">
       <r>  -53.0753    1.0000 </r>
       <r>  -53.0728    1.0000 </r>
       <r>  -52.7240    1.0000 </r>
       <r>  -52.7225    1.0000 </r>
       <r>  -27.8320    1.0000 </r>
       <r>  -27.8303    1.0000 </r>
       <r>  -26.5973    1.0000 </r>
       <r>  -26.5942    1.0000 </r>
       <r>  -26.2051    1.0000 </r>
       <r>  -26.1800    1.0000 </r>
       <r>  -26.1754    1.0000 </r>
       <r>  -26.1675    1.0000 </r>
       <r>  -26.1577    1.0000 </r>
       <r>  -26.1466    1.0000 </r>
       <r>  -26.1021    1.0000 </r>
       <r>  -26.0605    1.0000 </r>
       <r>   -0.7835    1.0000 </r>
       <r>   -0.7106    1.0000 </r>
       <r>   -0.5302    1.0000 </r>
       <r>   -0.1227    1.0000 </r>
       <r>    0.5699    1.0000 </r>
       <r>    0.6605    1.0000 </r>
       <r>    0.9355    1.0000 </r>
       <r>    1.3375    1.0000 </r>
       <r>    1.6862    1.0000 </r>
       <r>    2.0410    1.0000 </r>
       <r>    2.1104    1.0000 </r>
       <r>    2.4911    1.0000 </r>
       <r>    4.1499    1.0000 </r>
       <r>    4.2341    1.0000 </r>
       <r>    5.8414    1.0000 </r>
       <r>    6.0797    1.0000 </r>
       <r>    7.0150    1.0000 </r>
       <r>    7.3194    1.0000 </r>
       <r>    7.5171    1.0000 </r>
       <r>    7.9841    1.0000 </r>
       <r>    8.8135    1.0000 </r>
       <r>    8.9661    1.0000 </r>
       <r>    9.2053    1.0000 </r>
       <r>    9.9110    1.0000 </r>
       <r>    9.9359    1.0000 </r>
       <r>   10.0144    1.0000 </r>
       <r>   10.1593    0.0546 </r>
       <r>   11.0045    0.0000 </r>
       <r>   11.1188    0.0000 </r>
       <r>   11.2209    0.0000 </r>
       <r>   11.4430    0.0000 </r>
       <r>   11.5364    0.0000 </r>
       <r>   11.9077    0.0000 </r>
       <r>   12.0560    0.0000 </r>
       <r>   12.1270    0.0000 </r>
       <r>   13.0229    0.0000 </r>
       <r>   13.2237    0.0000 </r>
       <r>   14.8611    0.0000 </r>
      </set>
      <set comment="kpoint 4">
       <r>  -53.0748    1.0000 </r>
       <r>  -53.0731    1.0000 </r>
       <r>  -52.7237    1.0000 </r>
       <r>  -52.7228    1.0000 </r>
       <r>  -27.8319    1.0000 </r>
       <r>  -27.8303    1.0000 </r>
       <r>  -26.5974    1.0000 </r>
       <r>  -26.5945    1.0000 </r>
       <r>  -26.2076    1.0000 </r>
       <r>  -26.1920    1.0000 </r>
       <r>  -26.1733    1.0000 </r>
       <r>  -26.1690    1.0000 </r>
       <r>  -26.1479    1.0000 </r>
       <r>  -26.1389    1.0000 </r>
       <r>  -26.0941    1.0000 </r>
       <r>  -26.0721    1.0000 </r>
       <r>   -0.6093    1.0000 </r>
       <r>   -0.5867    1.0000 </r>
       <r>   -0.4663    1.0000 </r>
       <r>   -0.1753    1.0000 </r>
       <r>    0.6000    1.0000 </r>
       <r>    0.6654    1.0000 </r>
       <r>    0.7582    1.0000 </r>
       <r>    1.1173    1.0000 </r>
       <r>    1.7374    1.0000 </r>
       <r>    1.8899    1.0000 </r>
       <r>    1.9365    1.0000 </r>
       <r>    2.1946    1.0000 </r>
       <r>    4.4596    1.0000 </r>
       <r>    4.5038    1.0000 </r>
       <r>    5.8003    1.0000 </r>
       <r>    5.9992    1.0000 </r>
       <r>    7.4183    1.0000 </r>
       <r>    7.5135    1.0000 </r>
       <r>    7.6802    1.0000 </r>
       <r>    8.2214    1.0000 </r>
       <r>    8.9171    1.0000 </r>
       <r>    9.0190    1.0000 </r>
       <r>    9.1864    1.0000 </r>
       <r>    9.4178    1.0000 </r>
       <r>    9.7800    1.0000 </r>
       <r>    9.9790    1.0000 </r>
       <r>   10.0392    1.0000 </r>
       <r>   10.7569    0.0000 </r>
       <r>   11.0963    0.0000 </r>
       <r>   11.1206    0.0000 </r>
       <r>   11.3239    0.0000 </r>
       <r>   11.5775    0.0000 </r>
       <r>   11.9119    0.0000 </r>
       <r>   12.1050    0.0000 </r>
       <r>   12.2146    0.0000 </r>
       <r>   12.3997    0.0000 </r>
       <r>   12.9354    0.0000 </r>
       <r>   14.2095    0.0000 </r>
      </set>
      <set comment="kpoint 5">
       <r>  -53.0746    1.0000 </r>
       <r>  -53.0734    1.0000 </r>
       <r>  -52.7235    1.0000 </r>
       <r>  -52.7231    1.0000 </r>
       <r>  -27.8319    1.0000 </r>
       <r>  -27.8303    1.0000 </r>
       <r>  -26.5964    1.0000 </r>
       <r>  -26.5956    1.0000 </r>
       <r>  -26.2028    1.0000 </r>
       <r>  -26.2023    1.0000 </r>
       <r>  -26.1711    1.0000 </r>
       <r>  -26.1709    1.0000 </r>
       <r>  -26.1403    1.0000 </r>
       <r>  -26.1398    1.0000 </r>
       <r>  -26.0840    1.0000 </r>
       <r>  -26.0837    1.0000 </r>
       <r>   -0.5336    1.0000 </r>
       <r>   -0.5334    1.0000 </r>
       <r>   -0.3173    1.0000 </r>
       <r>   -0.3167    1.0000 </r>
       <r>    0.6119    1.0000 </r>
       <r>    0.6122    1.0000 </r>
       <r>    0.8744    1.0000 </r>
       <r>    0.8751    1.0000 </r>
       <r>    1.8116    1.0000 </r>
       <r>    1.8117    1.0000 </r>
       <r>    1.9667    1.0000 </r>
       <r>    1.9670    1.0000 </r>
       <r>    4.5862    1.0000 </r>
       <r>    4.5864    1.0000 </r>
       <r>    5.8856    1.0000 </r>
       <r>    5.8866    1.0000 </r>
       <r>    7.5560    1.0000 </r>
       <r>    7.5564    1.0000 </r>
       <r>    8.1291    1.0000 </r>
       <r>    8.1294    1.0000 </r>
       <r>    8.9596    1.0000 </r>
       <r>    8.9601    1.0000 </r>
       <r>    9.2294    1.0000 </r>
       <r>    9.2295    1.0000 </r>
       <r>    9.6485    1.0000 </r>
       <r>    9.6487    1.0000 </r>
       <r>   10.3341    0.0000 </r>
       <r>   10.3342    0.0000 </r>
       <r>   11.0059    0.0000 </r>
       <r>   11.0060    0.0000 </r>
       <r>   11.6003    0.0000 </r>
       <r>   11.6005    0.0000 </r>
       <r>   11.9998    0.0000 </r>
       <r>   11.9999    0.0000 </r>
       <r>   12.4388    0.0000 </r>
       <r>   12.4443    0.0000 </r>
       <r>   13.2574    0.0000 </r>
       <r>   13.3468    0.0000 </r>
      </set>
      <set comment="kpoint 6">
       <r>  -53.0754    1.0000 </r>
       <r>  -53.0727    1.0000 </r>
       <r>  -52.7240    1.0000 </r>
       <r>  -52.7224    1.0000 </r>
       <r>  -27.8321    1.0000 </r>
       <r>  -27.8303    1.0000 </r>
       <r>  -26.5959    1.0000 </r>
       <r>  -26.5957    1.0000 </r>
       <r>  -26.1988    1.0000 </r>
       <r>  -26.1772    1.0000 </r>
       <r>  -26.1756    1.0000 </r>
       <r>  -26.1669    1.0000 </r>
       <r>  -26.1608    1.0000 </r>
       <r>  -26.1540    1.0000 </r>
       <r>  -26.1028    1.0000 </r>
       <r>  -26.0587    1.0000 </r>
       <r>   -0.8714    1.0000 </r>
       <r>   -0.8017    1.0000 </r>
       <r>   -0.5531    1.0000 </r>
       <r>   -0.0854    1.0000 </r>
       <r>    0.5651    1.0000 </r>
       <r>    0.6530    1.0000 </r>
       <r>    1.1608    1.0000 </r>
       <r>    1.3724    1.0000 </r>
       <r>    1.6514    1.0000 </r>
       <r>    2.0500    1.0000 </r>
       <r>    2.2744    1.0000 </r>
       <r>    2.7064    1.0000 </r>
       <r>    3.8560    1.0000 </r>
       <r>    4.0838    1.0000 </r>
       <r>    6.0043    1.0000 </r>
       <r>    6.0340    1.0000 </r>
       <r>    6.8717    1.0000 </r>
       <r>    7.3050    1.0000 </r>
       <r>    7.3722    1.0000 </r>
       <r>    7.7785    1.0000 </r>
       <r>    8.7491    1.0000 </r>
       <r>    8.9669    1.0000 </r>
       <r>    9.1680    1.0000 </r>
       <r>    9.8786    1.0000 </r>
       <r>   10.0914    0.9993 </r>
       <r>   10.0966    0.9977 </r>
       <r>   10.1933    0.0000 </r>
       <r>   10.9236    0.0000 </r>
       <r>   10.9706    0.0000 </r>
       <r>   11.2548    0.0000 </r>
       <r>   11.6634    0.0000 </r>
       <r>   11.7715    0.0000 </r>
       <r>   11.8539    0.0000 </r>
       <r>   12.2903    0.0000 </r>
       <r>   12.6404    0.0000 </r>
       <r>   12.9465    0.0000 </r>
       <r>   13.4888    0.0000 </r>
       <r>   14.7054    0.0000 </r>
      </set>
      <set comment="kpoint 7">
       <r>  -53.0750    1.0000 </r>
       <r>  -53.0730    1.0000 </r>
       <r>  -52.7238    1.0000 </r>
       <r>  -52.7228    1.0000 </r>
       <r>  -27.8320    1.0000 </r>
       <r>  -27.8303    1.0000 </r>
       <r>  -26.5966    1.0000 </r>
       <r>  -26.5954    1.0000 </r>
       <r>  -26.2037    1.0000 </r>
       <r>  -26.1889    1.0000 </r>
       <r>  -26.1738    1.0000 </r>
       <r>  -26.1676    1.0000 </r>
       <r>  -26.1522    1.0000 </r>
       <r>  -26.1435    1.0000 </r>
       <r>  -26.0951    1.0000 </r>
       <r>  -26.0697    1.0000 </r>
       <r>   -0.7459    1.0000 </r>
       <r>   -0.7378    1.0000 </r>
       <r>   -0.5127    1.0000 </r>
       <r>   -0.0624    1.0000 </r>
       <r>    0.5997    1.0000 </r>
       <r>    0.7362    1.0000 </r>
       <r>    0.8748    1.0000 </r>
       <r>    1.3194    1.0000 </r>
       <r>    1.6290    1.0000 </r>
       <r>    1.9030    1.0000 </r>
       <r>    2.0302    1.0000 </r>
       <r>    2.4614    1.0000 </r>
       <r>    4.0829    1.0000 </r>
       <r>    4.4051    1.0000 </r>
       <r>    5.8963    1.0000 </r>
       <r>    6.0270    1.0000 </r>
       <r>    7.2875    1.0000 </r>
       <r>    7.3159    1.0000 </r>
       <r>    7.4762    1.0000 </r>
       <r>    7.9644    1.0000 </r>
       <r>    8.9037    1.0000 </r>
       <r>    9.0584    1.0000 </r>
       <r>    9.1665    1.0000 </r>
       <r>    9.6538    1.0000 </r>
       <r>    9.9054    1.0000 </r>
       <r>   10.1019    0.9929 </r>
       <r>   10.1833    0.0005 </r>
       <r>   10.9320    0.0000 </r>
       <r>   11.0410    0.0000 </r>
       <r>   11.2619    0.0000 </r>
       <r>   11.3873    0.0000 </r>
       <r>   11.5062    0.0000 </r>
       <r>   11.5872    0.0000 </r>
       <r>   12.2275    0.0000 </r>
       <r>   12.4902    0.0000 </r>
       <r>   12.8269    0.0000 </r>
       <r>   13.3173    0.0000 </r>
       <r>   14.5269    0.0000 </r>
      </set>
      <set comment="kpoint 8">
       <r>  -53.0746    1.0000 </r>
       <r>  -53.0733    1.0000 </r>
       <r>  -52.7235    1.0000 </r>
       <r>  -52.7231    1.0000 </r>
       <r>  -27.8319    1.0000 </r>
       <r>  -27.8303    1.0000 </r>
       <r>  -26.5964    1.0000 </r>
       <r>  -26.5955    1.0000 </r>
       <r>  -26.2034    1.0000 </r>
       <r>  -26.2021    1.0000 </r>
       <r>  -26.1720    1.0000 </r>
       <r>  -26.1689    1.0000 </r>
       <r>  -26.1419    1.0000 </r>
       <r>  -26.1389    1.0000 </r>
       <r>  -26.0860    1.0000 </r>
       <r>  -26.0816    1.0000 </r>
       <r>   -0.6323    1.0000 </r>
       <r>   -0.6082    1.0000 </r>
       <r>   -0.4733    1.0000 </r>
       <r>   -0.0638    1.0000 </r>
       <r>    0.6117    1.0000 </r>
       <r>    0.6594    1.0000 </r>
       <r>    0.8138    1.0000 </r>
       <r>    1.1347    1.0000 </r>
       <r>    1.6798    1.0000 </r>
       <r>    1.8060    1.0000 </r>
       <r>    1.8883    1.0000 </r>
       <r>    2.1770    1.0000 </r>
       <r>    4.3236    1.0000 </r>
       <r>    4.6008    1.0000 </r>
       <r>    5.8620    1.0000 </r>
       <r>    5.9850    1.0000 </r>
       <r>    7.4227    1.0000 </r>
       <r>    7.4942    1.0000 </r>
       <r>    7.9264    1.0000 </r>
       <r>    8.1663    1.0000 </r>
       <r>    8.9035    1.0000 </r>
       <r>    9.0051    1.0000 </r>
       <r>    9.1431    1.0000 </r>
       <r>    9.3829    1.0000 </r>
       <r>    9.7242    1.0000 </r>
       <r>    9.9993    1.0000 </r>
       <r>   10.1427    0.3331 </r>
       <r>   10.5721    0.0000 </r>
       <r>   10.9535    0.0000 </r>
       <r>   11.0991    0.0000 </r>
       <r>   11.2935    0.0000 </r>
       <r>   11.6733    0.0000 </r>
       <r>   11.8948    0.0000 </r>
       <r>   12.2549    0.0000 </r>
       <r>   12.3754    0.0000 </r>
       <r>   12.6831    0.0000 </r>
       <r>   13.3912    0.0000 </r>
       <r>   14.7247    0.0000 </r>
      </set>
      <set comment="kpoint 9">
       <r>  -53.0746    1.0000 </r>
       <r>  -53.0733    1.0000 </r>
       <r>  -52.7237    1.0000 </r>
       <r>  -52.7229    1.0000 </r>
       <r>  -27.8318    1.0000 </r>
       <r>  -27.8303    1.0000 </r>
       <r>  -26.5975    1.0000 </r>
       <r>  -26.5942    1.0000 </r>
       <r>  -26.2133    1.0000 </r>
       <r>  -26.1963    1.0000 </r>
       <r>  -26.1707    1.0000 </r>
       <r>  -26.1702    1.0000 </r>
       <r>  -26.1422    1.0000 </r>
       <r>  -26.1347    1.0000 </r>
       <r>  -26.0922    1.0000 </r>
       <r>  -26.0758    1.0000 </r>
       <r>   -0.5720    1.0000 </r>
       <r>   -0.5416    1.0000 </r>
       <r>   -0.3677    1.0000 </r>
       <r>   -0.2062    1.0000 </r>
       <r>    0.5404    1.0000 </r>
       <r>    0.6683    1.0000 </r>
       <r>    0.8938    1.0000 </r>
       <r>    0.9493    1.0000 </r>
       <r>    1.7296    1.0000 </r>
       <r>    1.7893    1.0000 </r>
       <r>    1.9458    1.0000 </r>
       <r>    2.0233    1.0000 </r>
       <r>    4.4386    1.0000 </r>
       <r>    4.6052    1.0000 </r>
       <r>    5.8516    1.0000 </r>
       <r>    5.9820    1.0000 </r>
       <r>    7.4518    1.0000 </r>
       <r>    7.5986    1.0000 </r>
       <r>    7.8574    1.0000 </r>
       <r>    8.4631    1.0000 </r>
       <r>    8.8713    1.0000 </r>
       <r>    9.1260    1.0000 </r>
       <r>    9.1999    1.0000 </r>
       <r>    9.2958    1.0000 </r>
       <r>    9.4914    1.0000 </r>
       <r>    9.8992    1.0000 </r>
       <r>   10.2041    0.0000 </r>
       <r>   10.4417    0.0000 </r>
       <r>   10.8852    0.0000 </r>
       <r>   11.0522    0.0000 </r>
       <r>   11.4077    0.0000 </r>
       <r>   11.6588    0.0000 </r>
       <r>   11.9026    0.0000 </r>
       <r>   12.2648    0.0000 </r>
       <r>   12.3987    0.0000 </r>
       <r>   12.4448    0.0000 </r>
       <r>   13.1060    0.0000 </r>
       <r>   13.8583    0.0000 </r>
      </set>
      <set comment="kpoint 10">
       <r>  -53.0750    1.0000 </r>
       <r>  -53.0730    1.0000 </r>
       <r>  -52.7240    1.0000 </r>
       <r>  -52.7226    1.0000 </r>
       <r>  -27.8318    1.0000 </r>
       <r>  -27.8303    1.0000 </r>
       <r>  -26.5980    1.0000 </r>
       <r>  -26.5932    1.0000 </r>
       <r>  -26.2173    1.0000 </r>
       <r>  -26.1858    1.0000 </r>
       <r>  -26.1726    1.0000 </r>
       <r>  -26.1688    1.0000 </r>
       <r>  -26.1508    1.0000 </r>
       <r>  -26.1348    1.0000 </r>
       <r>  -26.1005    1.0000 </r>
       <r>  -26.0651    1.0000 </r>
       <r>   -0.6658    1.0000 </r>
       <r>   -0.5112    1.0000 </r>
       <r>   -0.4052    1.0000 </r>
       <r>   -0.2348    1.0000 </r>
       <r>    0.4990    1.0000 </r>
       <r>    0.6947    1.0000 </r>
       <r>    0.7747    1.0000 </r>
       <r>    1.1957    1.0000 </r>
       <r>    1.6346    1.0000 </r>
       <r>    1.9082    1.0000 </r>
       <r>    1.9970    1.0000 </r>
       <r>    2.2257    1.0000 </r>
       <r>    4.3854    1.0000 </r>
       <r>    4.4604    1.0000 </r>
       <r>    5.7962    1.0000 </r>
       <r>    6.0423    1.0000 </r>
       <r>    7.3029    1.0000 </r>
       <r>    7.3632    1.0000 </r>
       <r>    7.6148    1.0000 </r>
       <r>    8.6593    1.0000 </r>
       <r>    8.8159    1.0000 </r>
       <r>    9.0429    1.0000 </r>
       <r>    9.2580    1.0000 </r>
       <r>    9.6525    1.0000 </r>
       <r>    9.6947    1.0000 </r>
       <r>    9.8921    1.0000 </r>
       <r>   10.1905    0.0001 </r>
       <r>   10.6883    0.0000 </r>
       <r>   10.8412    0.0000 </r>
       <r>   11.1600    0.0000 </r>
       <r>   11.4906    0.0000 </r>
       <r>   11.5578    0.0000 </r>
       <r>   11.6691    0.0000 </r>
       <r>   11.9937    0.0000 </r>
       <r>   12.4242    0.0000 </r>
       <r>   12.6078    0.0000 </r>
       <r>   13.2376    0.0000 </r>
       <r>   14.5149    0.0000 </r>
      </set>
      <set comment="kpoint 11">
       <r>  -53.0754    1.0000 </r>
       <r>  -53.0726    1.0000 </r>
       <r>  -52.7242    1.0000 </r>
       <r>  -52.7223    1.0000 </r>
       <r>  -27.8318    1.0000 </r>
       <r>  -27.8304    1.0000 </r>
       <r>  -26.5972    1.0000 </r>
       <r>  -26.5936    1.0000 </r>
       <r>  -26.2134    1.0000 </r>
       <r>  -26.1753    1.0000 </r>
       <r>  -26.1744    1.0000 </r>
       <r>  -26.1677    1.0000 </r>
       <r>  -26.1601    1.0000 </r>
       <r>  -26.1429    1.0000 </r>
       <r>  -26.1061    1.0000 </r>
       <r>  -26.0558    1.0000 </r>
       <r>   -0.8026    1.0000 </r>
       <r>   -0.6127    1.0000 </r>
       <r>   -0.4999    1.0000 </r>
       <r>   -0.1775    1.0000 </r>
       <r>    0.4827    1.0000 </r>
       <r>    0.6843    1.0000 </r>
       <r>    0.9265    1.0000 </r>
       <r>    1.3529    1.0000 </r>
       <r>    1.6040    1.0000 </r>
       <r>    2.1025    1.0000 </r>
       <r>    2.1417    1.0000 </r>
       <r>    2.4551    1.0000 </r>
       <r>    4.1674    1.0000 </r>
       <r>    4.2280    1.0000 </r>
       <r>    5.8479    1.0000 </r>
       <r>    6.0490    1.0000 </r>
       <r>    6.8691    1.0000 </r>
       <r>    7.3036    1.0000 </r>
       <r>    7.4992    1.0000 </r>
       <r>    8.3980    1.0000 </r>
       <r>    8.7316    1.0000 </r>
       <r>    8.9812    1.0000 </r>
       <r>    9.3895    1.0000 </r>
       <r>    9.7427    1.0000 </r>
       <r>    9.8513    1.0000 </r>
       <r>   10.0672    1.0000 </r>
       <r>   10.4142    0.0000 </r>
       <r>   10.8166    0.0000 </r>
       <r>   10.9573    0.0000 </r>
       <r>   11.1742    0.0000 </r>
       <r>   11.2595    0.0000 </r>
       <r>   11.6633    0.0000 </r>
       <r>   11.7546    0.0000 </r>
       <r>   12.1258    0.0000 </r>
       <r>   12.3856    0.0000 </r>
       <r>   12.8810    0.0000 </r>
       <r>   13.6452    0.0000 </r>
       <r>   14.3249    0.0000 </r>
      </set>
      <set comment="kpoint 12">
       <r>  -53.0757    1.0000 </r>
       <r>  -53.0725    1.0000 </r>
       <r>  -52.7243    1.0000 </r>
       <r>  -52.7222    1.0000 </r>
       <r>  -27.8319    1.0000 </r>
       <r>  -27.8305    1.0000 </r>
       <r>  -26.5962    1.0000 </r>
       <r>  -26.5945    1.0000 </r>
       <r>  -26.2033    1.0000 </r>
       <r>  -26.1760    1.0000 </r>
       <r>  -26.1687    1.0000 </r>
       <r>  -26.1669    1.0000 </r>
       <r>  -26.1664    1.0000 </r>
       <r>  -26.1548    1.0000 </r>
       <r>  -26.1089    1.0000 </r>
       <r>  -26.0506    1.0000 </r>
       <r>   -0.9171    1.0000 </r>
       <r>   -0.7286    1.0000 </r>
       <r>   -0.5437    1.0000 </r>
       <r>   -0.1386    1.0000 </r>
       <r>    0.5101    1.0000 </r>
       <r>    0.6144    1.0000 </r>
       <r>    1.1888    1.0000 </r>
       <r>    1.3889    1.0000 </r>
       <r>    1.6411    1.0000 </r>
       <r>    2.1758    1.0000 </r>
       <r>    2.4359    1.0000 </r>
       <r>    2.5947    1.0000 </r>
       <r>    3.8996    1.0000 </r>
       <r>    4.0012    1.0000 </r>
       <r>    5.9999    1.0000 </r>
       <r>    6.0054    1.0000 </r>
       <r>    6.5980    1.0000 </r>
       <r>    7.3197    1.0000 </r>
       <r>    7.4285    1.0000 </r>
       <r>    8.2420    1.0000 </r>
       <r>    8.5388    1.0000 </r>
       <r>    8.6724    1.0000 </r>
       <r>    9.3940    1.0000 </r>
       <r>    9.7903    1.0000 </r>
       <r>    9.8881    1.0000 </r>
       <r>   10.0603    1.0000 </r>
       <r>   10.6693    0.0000 </r>
       <r>   10.8322    0.0000 </r>
       <r>   10.8898    0.0000 </r>
       <r>   11.3284    0.0000 </r>
       <r>   11.4362    0.0000 </r>
       <r>   11.8835    0.0000 </r>
       <r>   12.0286    0.0000 </r>
       <r>   12.3546    0.0000 </r>
       <r>   12.6316    0.0000 </r>
       <r>   13.2667    0.0000 </r>
       <r>   14.0297    0.0000 </r>
       <r>   14.5342    0.0000 </r>
      </set>
      <set comment="kpoint 13">
       <r>  -53.0747    1.0000 </r>
       <r>  -53.0733    1.0000 </r>
       <r>  -52.7235    1.0000 </r>
       <r>  -52.7231    1.0000 </r>
       <r>  -27.8319    1.0000 </r>
       <r>  -27.8303    1.0000 </r>
       <r>  -26.5965    1.0000 </r>
       <r>  -26.5955    1.0000 </r>
       <r>  -26.2041    1.0000 </r>
       <r>  -26.2019    1.0000 </r>
       <r>  -26.1722    1.0000 </r>
       <r>  -26.1675    1.0000 </r>
       <r>  -26.1430    1.0000 </r>
       <r>  -26.1387    1.0000 </r>
       <r>  -26.0869    1.0000 </r>
       <r>  -26.0807    1.0000 </r>
       <r>   -0.7204    1.0000 </r>
       <r>   -0.6819    1.0000 </r>
       <r>   -0.4861    1.0000 </r>
       <r>    0.0420    1.0000 </r>
       <r>    0.6382    1.0000 </r>
       <r>    0.7205    1.0000 </r>
       <r>    0.7963    1.0000 </r>
       <r>    1.3574    1.0000 </r>
       <r>    1.4749    1.0000 </r>
       <r>    1.7748    1.0000 </r>
       <r>    1.9406    1.0000 </r>
       <r>    2.3462    1.0000 </r>
       <r>    4.0413    1.0000 </r>
       <r>    4.5944    1.0000 </r>
       <r>    5.8481    1.0000 </r>
       <r>    6.0586    1.0000 </r>
       <r>    7.2882    1.0000 </r>
       <r>    7.4251    1.0000 </r>
       <r>    7.8323    1.0000 </r>
       <r>    8.2144    1.0000 </r>
       <r>    8.8511    1.0000 </r>
       <r>    8.9975    1.0000 </r>
       <r>    9.2077    1.0000 </r>
       <r>    9.4285    1.0000 </r>
       <r>    9.8581    1.0000 </r>
       <r>    9.9935    1.0000 </r>
       <r>   10.3209    0.0000 </r>
       <r>   10.7866    0.0000 </r>
       <r>   10.8142    0.0000 </r>
       <r>   10.8948    0.0000 </r>
       <r>   11.2365    0.0000 </r>
       <r>   11.4707    0.0000 </r>
       <r>   12.0784    0.0000 </r>
       <r>   12.4223    0.0000 </r>
       <r>   12.6701    0.0000 </r>
       <r>   12.7966    0.0000 </r>
       <r>   13.4162    0.0000 </r>
       <r>   14.0085    0.0000 </r>
      </set>
      <set comment="kpoint 14">
       <r>  -53.0745    1.0000 </r>
       <r>  -53.0734    1.0000 </r>
       <r>  -52.7236    1.0000 </r>
       <r>  -52.7230    1.0000 </r>
       <r>  -27.8317    1.0000 </r>
       <r>  -27.8303    1.0000 </r>
       <r>  -26.5971    1.0000 </r>
       <r>  -26.5944    1.0000 </r>
       <r>  -26.2172    1.0000 </r>
       <r>  -26.1992    1.0000 </r>
       <r>  -26.1710    1.0000 </r>
       <r>  -26.1679    1.0000 </r>
       <r>  -26.1381    1.0000 </r>
       <r>  -26.1328    1.0000 </r>
       <r>  -26.0907    1.0000 </r>
       <r>  -26.0788    1.0000 </r>
       <r>   -0.6834    1.0000 </r>
       <r>   -0.5596    1.0000 </r>
       <r>   -0.4996    1.0000 </r>
       <r>    0.1164    1.0000 </r>
       <r>    0.4933    1.0000 </r>
       <r>    0.7395    1.0000 </r>
       <r>    0.8403    1.0000 </r>
       <r>    1.1863    1.0000 </r>
       <r>    1.5275    1.0000 </r>
       <r>    1.7313    1.0000 </r>
       <r>    1.9195    1.0000 </r>
       <r>    2.1578    1.0000 </r>
       <r>    4.0860    1.0000 </r>
       <r>    4.6344    1.0000 </r>
       <r>    5.8245    1.0000 </r>
       <r>    6.1258    1.0000 </r>
       <r>    7.3415    1.0000 </r>
       <r>    7.6046    1.0000 </r>
       <r>    7.9787    1.0000 </r>
       <r>    8.4024    1.0000 </r>
       <r>    8.7784    1.0000 </r>
       <r>    8.9325    1.0000 </r>
       <r>    9.2768    1.0000 </r>
       <r>    9.4779    1.0000 </r>
       <r>    9.6313    1.0000 </r>
       <r>    9.9488    1.0000 </r>
       <r>   10.2924    0.0000 </r>
       <r>   10.4242    0.0000 </r>
       <r>   10.7158    0.0000 </r>
       <r>   10.8546    0.0000 </r>
       <r>   11.3138    0.0000 </r>
       <r>   11.6596    0.0000 </r>
       <r>   12.1111    0.0000 </r>
       <r>   12.4499    0.0000 </r>
       <r>   12.6002    0.0000 </r>
       <r>   12.8942    0.0000 </r>
       <r>   13.4975    0.0000 </r>
       <r>   13.6737    0.0000 </r>
      </set>
      <set comment="kpoint 15">
       <r>  -53.0747    1.0000 </r>
       <r>  -53.0732    1.0000 </r>
       <r>  -52.7240    1.0000 </r>
       <r>  -52.7227    1.0000 </r>
       <r>  -27.8316    1.0000 </r>
       <r>  -27.8304    1.0000 </r>
       <r>  -26.5978    1.0000 </r>
       <r>  -26.5929    1.0000 </r>
       <r>  -26.2271    1.0000 </r>
       <r>  -26.1911    1.0000 </r>
       <r>  -26.1702    1.0000 </r>
       <r>  -26.1688    1.0000 </r>
       <r>  -26.1435    1.0000 </r>
       <r>  -26.1266    1.0000 </r>
       <r>  -26.0986    1.0000 </r>
       <r>  -26.0705    1.0000 </r>
       <r>   -0.6246    1.0000 </r>
       <r>   -0.6155    1.0000 </r>
       <r>   -0.3091    1.0000 </r>
       <r>   -0.0409    1.0000 </r>
       <r>    0.4093    1.0000 </r>
       <r>    0.7200    1.0000 </r>
       <r>    0.9511    1.0000 </r>
       <r>    1.0190    1.0000 </r>
       <r>    1.6839    1.0000 </r>
       <r>    1.7146    1.0000 </r>
       <r>    1.9098    1.0000 </r>
       <r>    2.1191    1.0000 </r>
       <r>    4.1656    1.0000 </r>
       <r>    4.5365    1.0000 </r>
       <r>    5.8561    1.0000 </r>
       <r>    6.1818    1.0000 </r>
       <r>    7.3636    1.0000 </r>
       <r>    7.5431    1.0000 </r>
       <r>    7.6506    1.0000 </r>
       <r>    8.6278    1.0000 </r>
       <r>    8.7167    1.0000 </r>
       <r>    9.2256    1.0000 </r>
       <r>    9.4774    1.0000 </r>
       <r>    9.5327    1.0000 </r>
       <r>    9.5574    1.0000 </r>
       <r>    9.8698    1.0000 </r>
       <r>   10.2619    0.0000 </r>
       <r>   10.3673    0.0000 </r>
       <r>   10.5843    0.0000 </r>
       <r>   11.0789    0.0000 </r>
       <r>   11.3332    0.0000 </r>
       <r>   11.8409    0.0000 </r>
       <r>   12.0863    0.0000 </r>
       <r>   12.2040    0.0000 </r>
       <r>   12.4757    0.0000 </r>
       <r>   12.7956    0.0000 </r>
       <r>   13.1319    0.0000 </r>
       <r>   14.2231    0.0000 </r>
      </set>
      <set comment="kpoint 16">
       <r>  -53.0751    1.0000 </r>
       <r>  -53.0729    1.0000 </r>
       <r>  -52.7242    1.0000 </r>
       <r>  -52.7224    1.0000 </r>
       <r>  -27.8316    1.0000 </r>
       <r>  -27.8304    1.0000 </r>
       <r>  -26.5978    1.0000 </r>
       <r>  -26.5925    1.0000 </r>
       <r>  -26.2295    1.0000 </r>
       <r>  -26.1813    1.0000 </r>
       <r>  -26.1702    1.0000 </r>
       <r>  -26.1694    1.0000 </r>
       <r>  -26.1524    1.0000 </r>
       <r>  -26.1275    1.0000 </r>
       <r>  -26.1037    1.0000 </r>
       <r>  -26.0627    1.0000 </r>
       <r>   -0.7069    1.0000 </r>
       <r>   -0.5301    1.0000 </r>
       <r>   -0.2673    1.0000 </r>
       <r>   -0.1779    1.0000 </r>
       <r>    0.3702    1.0000 </r>
       <r>    0.6623    1.0000 </r>
       <r>    0.8550    1.0000 </r>
       <r>    1.2685    1.0000 </r>
       <r>    1.5386    1.0000 </r>
       <r>    1.8879    1.0000 </r>
       <r>    1.9673    1.0000 </r>
       <r>    2.2573    1.0000 </r>
       <r>    4.2168    1.0000 </r>
       <r>    4.4047    1.0000 </r>
       <r>    5.8815    1.0000 </r>
       <r>    6.1542    1.0000 </r>
       <r>    7.1943    1.0000 </r>
       <r>    7.3089    1.0000 </r>
       <r>    7.4563    1.0000 </r>
       <r>    8.5598    1.0000 </r>
       <r>    9.0835    1.0000 </r>
       <r>    9.4176    1.0000 </r>
[...]
       <r>   -0.6386    1.0000 </r>
       <r>    0.4493    1.0000 </r>
       <r>    0.8471    1.0000 </r>
       <r>    0.8475    1.0000 </r>
       <r>    1.2894    1.0000 </r>
       <r>    1.2896    1.0000 </r>
       <r>    1.3438    1.0000 </r>
       <r>    1.6777    1.0000 </r>
       <r>    2.0993    1.0000 </r>
       <r>    3.4377    1.0000 </r>
       <r>    3.4901    1.0000 </r>
       <r>    3.4903    1.0000 </r>
       <r>    6.1851    1.0000 </r>
       <r>    6.1863    1.0000 </r>
       <r>    6.7674    1.0000 </r>
       <r>    7.2739    1.0000 </r>
       <r>    7.2742    1.0000 </r>
       <r>    8.5889    1.0000 </r>
       <r>    8.7552    1.0000 </r>
       <r>    9.0288    1.0000 </r>
       <r>    9.2818    1.0000 </r>
       <r>    9.6295    1.0000 </r>
       <r>   10.0635    1.0000 </r>
       <r>   10.2330    0.0000 </r>
       <r>   10.2331    0.0000 </r>
       <r>   10.9422    0.0000 </r>
       <r>   10.9424    0.0000 </r>
       <r>   11.2788    0.0000 </r>
       <r>   11.4564    0.0000 </r>
       <r>   11.7368    0.0000 </r>
       <r>   12.1157    0.0000 </r>
       <r>   12.7395    0.0000 </r>
       <r>   12.7397    0.0000 </r>
       <r>   13.1808    0.0000 </r>
       <r>   13.2794    0.0000 </r>
       <r>   13.5652    0.0000 </r>
      </set>
      <set comment="kpoint 59">
       <r>  -53.0745    1.0000 </r>
       <r>  -53.0733    1.0000 </r>
       <r>  -52.7239    1.0000 </r>
       <r>  -52.7227    1.0000 </r>
       <r>  -27.8322    1.0000 </r>
       <r>  -27.8306    1.0000 </r>
       <r>  -26.5994    1.0000 </r>
       <r>  -26.5986    1.0000 </r>
       <r>  -26.1823    1.0000 </r>
       <r>  -26.1728    1.0000 </r>
       <r>  -26.1726    1.0000 </r>
       <r>  -26.1673    1.0000 </r>
       <r>  -26.1671    1.0000 </r>
       <r>  -26.1470    1.0000 </r>
       <r>  -26.1120    1.0000 </r>
       <r>  -26.0667    1.0000 </r>
       <r>   -1.3092    1.0000 </r>
       <r>   -0.7393    1.0000 </r>
       <r>   -0.6494    1.0000 </r>
       <r>    0.7712    1.0000 </r>
       <r>    0.9056    1.0000 </r>
       <r>    0.9061    1.0000 </r>
       <r>    1.0000    1.0000 </r>
       <r>    1.2591    1.0000 </r>
       <r>    1.2593    1.0000 </r>
       <r>    1.6839    1.0000 </r>
       <r>    2.0652    1.0000 </r>
       <r>    3.4317    1.0000 </r>
       <r>    3.4568    1.0000 </r>
       <r>    3.4571    1.0000 </r>
       <r>    6.2052    1.0000 </r>
       <r>    6.2064    1.0000 </r>
       <r>    6.7556    1.0000 </r>
       <r>    7.2730    1.0000 </r>
       <r>    7.2734    1.0000 </r>
       <r>    8.7385    1.0000 </r>
       <r>    8.8599    1.0000 </r>
       <r>    9.3879    1.0000 </r>
       <r>    9.3919    1.0000 </r>
       <r>    9.6832    1.0000 </r>
       <r>    9.9682    1.0000 </r>
       <r>   10.2799    0.0000 </r>
       <r>   10.2800    0.0000 </r>
       <r>   10.7402    0.0000 </r>
       <r>   10.7404    0.0000 </r>
       <r>   10.9148    0.0000 </r>
       <r>   11.6052    0.0000 </r>
       <r>   11.6212    0.0000 </r>
       <r>   11.9775    0.0000 </r>
       <r>   12.7838    0.0000 </r>
       <r>   12.7838    0.0000 </r>
       <r>   13.2702    0.0000 </r>
       <r>   13.5195    0.0000 </r>
       <r>   14.9938    0.0000 </r>
      </set>
     </set>
    </set>
   </array>
  </eigenvalues>
  <separator name="orbital magnetization" >
   <v name="MAGDIPOLOUT">      0.00000000      0.00000000      0.00000000</v>
  </separator>
  <dos>
   <i name="efermi">     10.13660690 </i>
   <total>
    <array>
     <dimension dim="1">gridpoints</dimension>
     <dimension dim="2">spin</dimension>
     <field>energy</field>
     <field>total</field>
     <field>integrated</field>
     <set>
      <set comment="spin 1">
       <r>   -56.4869     0.0000     0.0000 </r>
       <r>   -56.2367     0.0000     0.0000 </r>
       <r>   -55.9866     0.0000     0.0000 </r>
       <r>   -55.7364     0.0000     0.0000 </r>
       <r>   -55.4863     0.0000     0.0000 </r>
       <r>   -55.2362     0.0000     0.0000 </r>
       <r>   -54.9860     0.0000     0.0000 </r>
       <r>   -54.7359     0.0000     0.0000 </r>
       <r>   -54.4857     0.0000     0.0000 </r>
       <r>   -54.2356     0.0000     0.0000 </r>
       <r>   -53.9854     0.0000     0.0000 </r>
       <r>   -53.7353     0.0000     0.0000 </r>
       <r>   -53.4851     0.0000     0.0000 </r>
       <r>   -53.2350     0.0000     0.0000 </r>
       <r>   -52.9848    15.9906     4.0000 </r>
       <r>   -52.7347     3.3667     4.8422 </r>
       <r>   -52.4845     0.0000     8.0000 </r>
       <r>   -52.2344     0.0000     8.0000 </r>
       <r>   -51.9843     0.0000     8.0000 </r>
       <r>   -51.7341     0.0000     8.0000 </r>
       <r>   -51.4840     0.0000     8.0000 </r>
       <r>   -51.2338     0.0000     8.0000 </r>
       <r>   -50.9837     0.0000     8.0000 </r>
       <r>   -50.7335     0.0000     8.0000 </r>
       <r>   -50.4834     0.0000     8.0000 </r>
       <r>   -50.2332     0.0000     8.0000 </r>
       <r>   -49.9831     0.0000     8.0000 </r>
       <r>   -49.7329     0.0000     8.0000 </r>
       <r>   -49.4828     0.0000     8.0000 </r>
       <r>   -49.2326     0.0000     8.0000 </r>
       <r>   -48.9825     0.0000     8.0000 </r>
       <r>   -48.7323     0.0000     8.0000 </r>
       <r>   -48.4822     0.0000     8.0000 </r>
       <r>   -48.2321     0.0000     8.0000 </r>
       <r>   -47.9819     0.0000     8.0000 </r>
       <r>   -47.7318     0.0000     8.0000 </r>
       <r>   -47.4816     0.0000     8.0000 </r>
       <r>   -47.2315     0.0000     8.0000 </r>
       <r>   -46.9813     0.0000     8.0000 </r>
       <r>   -46.7312     0.0000     8.0000 </r>
       <r>   -46.4810     0.0000     8.0000 </r>
       <r>   -46.2309     0.0000     8.0000 </r>
       <r>   -45.9807     0.0000     8.0000 </r>
       <r>   -45.7306     0.0000     8.0000 </r>
       <r>   -45.4804     0.0000     8.0000 </r>
       <r>   -45.2303     0.0000     8.0000 </r>
       <r>   -44.9802     0.0000     8.0000 </r>
       <r>   -44.7300     0.0000     8.0000 </r>
       <r>   -44.4799     0.0000     8.0000 </r>
       <r>   -44.2297     0.0000     8.0000 </r>
       <r>   -43.9796     0.0000     8.0000 </r>
       <r>   -43.7294     0.0000     8.0000 </r>
       <r>   -43.4793     0.0000     8.0000 </r>
       <r>   -43.2291     0.0000     8.0000 </r>
       <r>   -42.9790     0.0000     8.0000 </r>
       <r>   -42.7288     0.0000     8.0000 </r>
       <r>   -42.4787     0.0000     8.0000 </r>
       <r>   -42.2285     0.0000     8.0000 </r>
       <r>   -41.9784     0.0000     8.0000 </r>
       <r>   -41.7282     0.0000     8.0000 </r>
       <r>   -41.4781     0.0000     8.0000 </r>
       <r>   -41.2280     0.0000     8.0000 </r>
       <r>   -40.9778     0.0000     8.0000 </r>
       <r>   -40.7277     0.0000     8.0000 </r>
       <r>   -40.4775     0.0000     8.0000 </r>
       <r>   -40.2274     0.0000     8.0000 </r>
       <r>   -39.9772     0.0000     8.0000 </r>
       <r>   -39.7271     0.0000     8.0000 </r>
       <r>   -39.4769     0.0000     8.0000 </r>
       <r>   -39.2268     0.0000     8.0000 </r>
       <r>   -38.9766     0.0000     8.0000 </r>
       <r>   -38.7265     0.0000     8.0000 </r>
       <r>   -38.4763     0.0000     8.0000 </r>
       <r>   -38.2262     0.0000     8.0000 </r>
       <r>   -37.9761     0.0000     8.0000 </r>
       <r>   -37.7259     0.0000     8.0000 </r>
       <r>   -37.4758     0.0000     8.0000 </r>
       <r>   -37.2256     0.0000     8.0000 </r>
       <r>   -36.9755     0.0000     8.0000 </r>
       <r>   -36.7253     0.0000     8.0000 </r>
       <r>   -36.4752     0.0000     8.0000 </r>
       <r>   -36.2250     0.0000     8.0000 </r>
       <r>   -35.9749     0.0000     8.0000 </r>
       <r>   -35.7247     0.0000     8.0000 </r>
       <r>   -35.4746     0.0000     8.0000 </r>
       <r>   -35.2244     0.0000     8.0000 </r>
       <r>   -34.9743     0.0000     8.0000 </r>
       <r>   -34.7241     0.0000     8.0000 </r>
       <r>   -34.4740     0.0000     8.0000 </r>
       <r>   -34.2239     0.0000     8.0000 </r>
       <r>   -33.9737     0.0000     8.0000 </r>
       <r>   -33.7236     0.0000     8.0000 </r>
       <r>   -33.4734     0.0000     8.0000 </r>
       <r>   -33.2233     0.0000     8.0000 </r>
       <r>   -32.9731     0.0000     8.0000 </r>
       <r>   -32.7230     0.0000     8.0000 </r>
       <r>   -32.4728     0.0000     8.0000 </r>
       <r>   -32.2227     0.0000     8.0000 </r>
       <r>   -31.9725     0.0000     8.0000 </r>
       <r>   -31.7224     0.0000     8.0000 </r>
       <r>   -31.4722     0.0000     8.0000 </r>
       <r>   -31.2221     0.0000     8.0000 </r>
       <r>   -30.9720     0.0000     8.0000 </r>
       <r>   -30.7218     0.0000     8.0000 </r>
       <r>   -30.4717     0.0000     8.0000 </r>
       <r>   -30.2215     0.0000     8.0000 </r>
       <r>   -29.9714     0.0000     8.0000 </r>
       <r>   -29.7212     0.0000     8.0000 </r>
       <r>   -29.4711     0.0000     8.0000 </r>
       <r>   -29.2209     0.0000     8.0000 </r>
       <r>   -28.9708     0.0000     8.0000 </r>
       <r>   -28.7206     0.0000     8.0000 </r>
       <r>   -28.4705     0.0000     8.0000 </r>
       <r>   -28.2203     0.0000     8.0000 </r>
       <r>   -27.9702     0.0000     8.0000 </r>
       <r>   -27.7200    15.9906    12.0000 </r>
       <r>   -27.4699     0.0000    12.0000 </r>
       <r>   -27.2198     0.0000    12.0000 </r>
       <r>   -26.9696     0.0000    12.0000 </r>
       <r>   -26.7195     0.0000    12.0000 </r>
       <r>   -26.4693    15.9906    16.0000 </r>
       <r>   -26.2192     3.5140    16.8790 </r>
       <r>   -25.9690    17.8958    32.0000 </r>
       <r>   -25.7189     0.0000    32.0000 </r>
       <r>   -25.4687     0.0000    32.0000 </r>
       <r>   -25.2186     0.0000    32.0000 </r>
       <r>   -24.9684     0.0000    32.0000 </r>
       <r>   -24.7183     0.0000    32.0000 </r>
       <r>   -24.4681     0.0000    32.0000 </r>
       <r>   -24.2180     0.0000    32.0000 </r>
       <r>   -23.9678     0.0000    32.0000 </r>
       <r>   -23.7177     0.0000    32.0000 </r>
       <r>   -23.4676     0.0000    32.0000 </r>
       <r>   -23.2174     0.0000    32.0000 </r>
       <r>   -22.9673     0.0000    32.0000 </r>
       <r>   -22.7171     0.0000    32.0000 </r>
       <r>   -22.4670     0.0000    32.0000 </r>
       <r>   -22.2168     0.0000    32.0000 </r>
       <r>   -21.9667     0.0000    32.0000 </r>
       <r>   -21.7165     0.0000    32.0000 </r>
       <r>   -21.4664     0.0000    32.0000 </r>
       <r>   -21.2162     0.0000    32.0000 </r>
       <r>   -20.9661     0.0000    32.0000 </r>
       <r>   -20.7159     0.0000    32.0000 </r>
       <r>   -20.4658     0.0000    32.0000 </r>
       <r>   -20.2157     0.0000    32.0000 </r>
       <r>   -19.9655     0.0000    32.0000 </r>
       <r>   -19.7154     0.0000    32.0000 </r>
       <r>   -19.4652     0.0000    32.0000 </r>
       <r>   -19.2151     0.0000    32.0000 </r>
       <r>   -18.9649     0.0000    32.0000 </r>
       <r>   -18.7148     0.0000    32.0000 </r>
       <r>   -18.4646     0.0000    32.0000 </r>
       <r>   -18.2145     0.0000    32.0000 </r>
       <r>   -17.9643     0.0000    32.0000 </r>
       <r>   -17.7142     0.0000    32.0000 </r>
       <r>   -17.4640     0.0000    32.0000 </r>
       <r>   -17.2139     0.0000    32.0000 </r>
       <r>   -16.9637     0.0000    32.0000 </r>
       <r>   -16.7136     0.0000    32.0000 </r>
       <r>   -16.4635     0.0000    32.0000 </r>
       <r>   -16.2133     0.0000    32.0000 </r>
       <r>   -15.9632     0.0000    32.0000 </r>
       <r>   -15.7130     0.0000    32.0000 </r>
       <r>   -15.4629     0.0000    32.0000 </r>
       <r>   -15.2127     0.0000    32.0000 </r>
       <r>   -14.9626     0.0000    32.0000 </r>
       <r>   -14.7124     0.0000    32.0000 </r>
       <r>   -14.4623     0.0000    32.0000 </r>
       <r>   -14.2121     0.0000    32.0000 </r>
       <r>   -13.9620     0.0000    32.0000 </r>
       <r>   -13.7118     0.0000    32.0000 </r>
       <r>   -13.4617     0.0000    32.0000 </r>
       <r>   -13.2116     0.0000    32.0000 </r>
       <r>   -12.9614     0.0000    32.0000 </r>
       <r>   -12.7113     0.0000    32.0000 </r>
       <r>   -12.4611     0.0000    32.0000 </r>
       <r>   -12.2110     0.0000    32.0000 </r>
       <r>   -11.9608     0.0000    32.0000 </r>
       <r>   -11.7107     0.0000    32.0000 </r>
       <r>   -11.4605     0.0000    32.0000 </r>
       <r>   -11.2104     0.0000    32.0000 </r>
       <r>   -10.9602     0.0000    32.0000 </r>
       <r>   -10.7101     0.0000    32.0000 </r>
       <r>   -10.4599     0.0000    32.0000 </r>
       <r>   -10.2098     0.0000    32.0000 </r>
       <r>    -9.9596     0.0000    32.0000 </r>
       <r>    -9.7095     0.0000    32.0000 </r>
       <r>    -9.4594     0.0000    32.0000 </r>
       <r>    -9.2092     0.0000    32.0000 </r>
       <r>    -8.9591     0.0000    32.0000 </r>
       <r>    -8.7089     0.0000    32.0000 </r>
       <r>    -8.4588     0.0000    32.0000 </r>
       <r>    -8.2086     0.0000    32.0000 </r>
       <r>    -7.9585     0.0000    32.0000 </r>
       <r>    -7.7083     0.0000    32.0000 </r>
       <r>    -7.4582     0.0000    32.0000 </r>
       <r>    -7.2080     0.0000    32.0000 </r>
       <r>    -6.9579     0.0000    32.0000 </r>
       <r>    -6.7077     0.0000    32.0000 </r>
       <r>    -6.4576     0.0000    32.0000 </r>
       <r>    -6.2075     0.0000    32.0000 </r>
       <r>    -5.9573     0.0000    32.0000 </r>
       <r>    -5.7072     0.0000    32.0000 </r>
       <r>    -5.4570     0.0000    32.0000 </r>
       <r>    -5.2069     0.0000    32.0000 </r>
       <r>    -4.9567     0.0000    32.0000 </r>
       <r>    -4.7066     0.0000    32.0000 </r>
       <r>    -4.4564     0.0000    32.0000 </r>
       <r>    -4.2063     0.0000    32.0000 </r>
       <r>    -3.9561     0.0000    32.0000 </r>
       <r>    -3.7060     0.0000    32.0000 </r>
       <r>    -3.4558     0.0000    32.0000 </r>
       <r>    -3.2057     0.0000    32.0000 </r>
       <r>    -2.9555     0.0000    32.0000 </r>
       <r>    -2.7054     0.0000    32.0000 </r>
       <r>    -2.4553     0.0000    32.0000 </r>
       <r>    -2.2051     0.0000    32.0000 </r>
       <r>    -1.9550     0.0000    32.0000 </r>
       <r>    -1.7048     0.0000    32.0000 </r>
       <r>    -1.4547     0.0000    32.0000 </r>
       <r>    -1.2045     0.1962    32.0491 </r>
       <r>    -0.9544     0.7724    32.2831 </r>
       <r>    -0.7042     4.0900    33.5309 </r>
       <r>    -0.4541     8.6162    37.1514 </r>
       <r>    -0.2039     1.8191    37.9550 </r>
       <r>     0.0462     2.5819    39.0677 </r>
       <r>     0.2964     1.8814    39.8261 </r>
       <r>     0.5465     4.4848    41.2586 </r>
       <r>     0.7966     6.7016    43.6647 </r>
       <r>     1.0468     5.1669    46.2925 </r>
       <r>     1.2969     3.2480    47.5351 </r>
       <r>     1.5471     2.3534    48.5770 </r>
       <r>     1.7972     7.6195    51.0115 </r>
       <r>     2.0474     7.7881    53.5458 </r>
       <r>     2.2975     3.9776    55.3075 </r>
       <r>     2.5477     1.0310    55.7149 </r>
       <r>     2.7978     0.6435    55.9071 </r>
       <r>     3.0480     0.0000    55.9727 </r>
       <r>     3.2981     0.0000    55.9805 </r>
       <r>     3.5483     0.1579    56.0278 </r>
       <r>     3.7984     0.6339    56.2914 </r>
       <r>     4.0486     1.2653    56.8556 </r>
       <r>     4.2987     2.8670    57.9906 </r>
       <r>     4.5488     2.7004    59.1599 </r>
       <r>     4.7990     1.6964    59.9868 </r>
       <r>     5.0491     0.0000    60.0000 </r>
       <r>     5.2993     0.0000    60.0000 </r>
       <r>     5.5494     0.0000    60.0000 </r>
       <r>     5.7996     0.5197    60.1300 </r>
       <r>     6.0497     5.5905    62.4610 </r>
       <r>     6.2999     2.2662    63.6294 </r>
       <r>     6.5500     0.7585    63.9788 </r>
       <r>     6.8002     0.3285    64.1095 </r>
       <r>     7.0503     0.6562    64.4532 </r>
       <r>     7.3005     5.1415    65.8018 </r>
       <r>     7.5506     6.3729    68.3832 </r>
       <r>     7.8007     2.6266    69.4305 </r>
       <r>     8.0509     1.7678    70.2000 </r>
       <r>     8.3010     0.8816    70.5760 </r>
       <r>     8.5512     2.3869    71.2377 </r>
       <r>     8.8013     4.8402    72.8709 </r>
       <r>     9.0515     5.3991    75.0263 </r>
       <r>     9.3016     5.6142    77.1192 </r>
       <r>     9.5518     6.8758    79.4035 </r>
       <r>     9.8019     4.8069    81.2649 </r>
       <r>    10.0521     5.5921    83.1645 </r>
       <r>    10.3022     5.5839    85.4632 </r>
       <r>    10.5524     4.1861    87.1526 </r>
       <r>    10.8025     4.3646    88.8965 </r>
       <r>    11.0527     3.2142    90.2142 </r>
       <r>    11.3028     4.7529    92.2319 </r>
       <r>    11.5529     3.9404    93.9583 </r>
       <r>    11.8031     4.2555    95.7598 </r>
       <r>    12.0532     3.9147    97.1472 </r>
       <r>    12.3034     3.2903    98.7137 </r>
       <r>    12.5535     5.3150   100.7983 </r>
       <r>    12.8037     4.1679   102.7848 </r>
       <r>    13.0538     3.4345   104.0779 </r>
       <r>    13.3040     2.6901   105.2745 </r>
       <r>    13.5541     1.4261   105.9036 </r>
       <r>    13.8043     1.4738   106.3335 </r>
       <r>    14.0544     1.1217   106.9017 </r>
       <r>    14.3046     1.4776   107.2876 </r>
       <r>    14.5547     0.9973   107.7807 </r>
       <r>    14.8048     0.5622   107.9492 </r>
       <r>    15.0550     0.0156   107.9844 </r>
       <r>    15.3051     0.0625   108.0000 </r>
       <r>    15.5553     0.0000   108.0000 </r>
       <r>    15.8054     0.0000   108.0000 </r>
       <r>    16.0556     0.0000   108.0000 </r>
       <r>    16.3057     0.0000   108.0000 </r>
       <r>    16.5559     0.0000   108.0000 </r>
       <r>    16.8060     0.0000   108.0000 </r>
       <r>    17.0562     0.0000   108.0000 </r>
       <r>    17.3063     0.0000   108.0000 </r>
       <r>    17.5565     0.0000   108.0000 </r>
       <r>    17.8066     0.0000   108.0000 </r>
       <r>    18.0568     0.0000   108.0000 </r>
       <r>    18.3069     0.0000   108.0000 </r>
       <r>    18.5570     0.0000   108.0000 </r>
      </set>
     </set>
    </array>
   </total>
  </dos>
 </calculation>
 <structure name="finalpos" >
  <crystal>
   <varray name="basis" >
    <v>       5.07705686       0.00000000      -2.54096004 </v>
    <v>      -1.93752643       4.69281341      -2.54096004 </v>
    <v>       0.00000000       0.00000000       5.67741000 </v>
   </varray>
   <i name="volume">    135.26815696 </i>
   <varray name="rec_basis" >
    <v>       0.19696451       0.08132093       0.00000000 </v>
    <v>       0.00000000       0.21309179       0.00000000 </v>
    <v>       0.08815269       0.13176624       0.17613665 </v>
   </varray>
  </crystal>
  <varray name="positions" >
   <v>       0.69610000       0.19610000       0.89221000 </v>
   <v>       0.30390000       0.80390000       0.10779000 </v>
   <v>       0.19610000       0.30390000       0.50000000 </v>
   <v>       0.80390000       0.69610000       0.50000000 </v>
   <v>       0.25000000       0.25000000       0.00000000 </v>
   <v>       0.00000000       0.50000000       0.50000000 </v>
   <v>       0.75000000       0.75000000       0.00000000 </v>
   <v>       0.50000000       0.00000000       0.50000000 </v>
   <v>       0.23126000       0.26874000       0.50000000 </v>
   <v>       0.76874000       0.73126000       0.50000000 </v>
   <v>       0.26874000       0.76874000       0.03748000 </v>
   <v>       0.73126000       0.23126000       0.96252000 </v>
  </varray>
 </structure>
</modeling>
