 vasp.6.2.0 18Jan21 (build Jan 05 2022 15:41:44) complex                        
  
 executed on             LinuxIFC date 2025.05.07  18:54:55
 running on   24 total cores
 distrk:  each k-point on   12 cores,    2 groups
 distr:  one band on NCORE=   2 cores,    6 groups


--------------------------------------------------------------------------------------------------------


 INCAR:
   SYSTEM = routine with relax: pwdword
   ICHARG = 2
   NPAR = 6
   KPAR = 2
   NCORE = 2
   ADDGRID = T
   PREC = Acc
   ENCUT = 600
   METAGGA = R2SCAN
   LASPH = .TRUE.
   LMIXTAU = .FALSE.
   ALGO = A
   EDIFF = 1E-9
   NELM = 100
   NELMIN = 6
   IALGO = 38
   LREAL = F
   NSW = 0
   ISIF = -1
   ISMEAR = 0
   SIGMA = 0.02
   SYMPREC = 1E-4

 POTCAR:    PAW_PBE B 06Sep2000                   
 POTCAR:    PAW_PBE Mo_sv 02Feb2006               
 POTCAR:    PAW_PBE Si 05Jan2001                  
 -----------------------------------------------------------------------------
|                                                                             |
|           W    W    AA    RRRRR   N    N  II  N    N   GGGG   !!!           |
|           W    W   A  A   R    R  NN   N  II  NN   N  G    G  !!!           |
|           W    W  A    A  R    R  N N  N  II  N N  N  G       !!!           |
|           W WW W  AAAAAA  RRRRR   N  N N  II  N  N N  G  GGG   !            |
|           WW  WW  A    A  R   R   N   NN  II  N   NN  G    G                |
|           W    W  A    A  R    R  N    N  II  N    N   GGGG   !!!           |
|                                                                             |
|     For optimal performance we recommend to set                             |
|       NCORE = 2 up to number-of-cores-per-socket                            |
|     NCORE specifies how many cores store one orbital (NPAR=cpu/NCORE).      |
|     This setting can greatly improve the performance of VASP for DFT.       |
|     The default, NCORE=1 might be grossly inefficient on modern             |
|     multi-core architectures or massively parallel machines. Do your        |
|     own testing! More info at https://www.vasp.at/wiki/index.php/NCORE      |
|     Unfortunately you need to use the default for GW and RPA                |
|     calculations (for HF NCORE is supported but not extensively tested      |
|     yet).                                                                   |
|                                                                             |
 -----------------------------------------------------------------------------

 POTCAR:    PAW_PBE B 06Sep2000                   
   VRHFIN =B: s2p1                                                                                  
   LEXCH  = PE                                                                                      
   EATOM  =    71.1703 eV,    5.2309 Ry                                                             
                                                                                                    
   TITEL  = PAW_PBE B 06Sep2000                                                                     
   LULTRA =        F    use ultrasoft PP ?                                                          
   IUNSCR =        1    unscreen: 0-lin 1-nonlin 2-no                                               
   RPACOR =    1.200    partial core radius                                                         
   POMASS =   10.811; ZVAL   =    3.000    mass and valenz                                          
   RCORE  =    1.700    outmost cutoff radius                                                       
   RWIGS  =    1.710; RWIGS  =    0.905    wigner-seitz radius (au A)                               
   ENMAX  =  318.614; ENMIN  =  238.960 eV                                                          
   ICORE  =        2    local potential                                                             
   LCOR   =        T    correct aug charges                                                         
   LPAW   =        T    paw PP                                                                      
   EAUG   =  535.514                                                                                
   DEXC   =    0.000                                                                                
   RMAX   =    1.732    core radius for proj-oper                                                   
   RAUG   =    1.300    factor for augmentation sphere                                              
   RDEP   =    1.757    radius for radial grids                                                     
   RDEPT  =    1.436    core radius for aug-charge                                                  
                                                                                                    
   Atomic configuration                                                                             
    4 entries                                                                                       
     n  l   j            E        occ.                                                              
     1  0  0.50      -180.5896   2.0000                                                             
     2  0  0.50        -9.4431   2.0000                                                             
     2  1  0.50        -3.6068   1.0000                                                             
     3  2  1.50        -4.0817   0.0000                                                             
   Description                                                                                      
     l       E           TYP  RCUT    TYP  RCUT                                                     
     0     -9.4430752     23  1.500                                                                 
     0      0.8675899     23  1.500                                                                 
     1     -3.6067955     23  1.700                                                                 
     1      6.1086146     23  1.700                                                                 
     2     -4.0817478      7  1.700                                                                 
  local pseudopotential read in
  partial core-charges read in
  partial kinetic energy density read in
  atomic valenz-charges read in
  non local Contribution for L=           0  read in
    real space projection operators read in
  non local Contribution for L=           0  read in
    real space projection operators read in
  non local Contribution for L=           1  read in
    real space projection operators read in
  non local Contribution for L=           1  read in
    real space projection operators read in
    PAW grid and wavefunctions read in
 
   number of l-projection  operators is LMAX  =           4
   number of lm-projection operators is LMMAX =           8
 
 POTCAR:    PAW_PBE Mo_sv 02Feb2006               
   VRHFIN =Mo: 4p5s4d                                                                               
   LEXCH  = PE                                                                                      
   EATOM  =  1862.2866 eV,  136.8742 Ry                                                             
                                                                                                    
   TITEL  = PAW_PBE Mo_sv 02Feb2006                                                                 
   LULTRA =        F    use ultrasoft PP ?                                                          
   IUNSCR =        1    unscreen: 0-lin 1-nonlin 2-no                                               
   RPACOR =    2.200    partial core radius                                                         
   POMASS =   95.940; ZVAL   =   14.000    mass and valenz                                          
   RCORE  =    2.500    outmost cutoff radius                                                       
   RWIGS  =    2.750; RWIGS  =    1.455    wigner-seitz radius (au A)                               
   ENMAX  =  242.676; ENMIN  =  182.007 eV                                                          
   ICORE  =        3    local potential                                                             
   LCOR   =        T    correct aug charges                                                         
   LPAW   =        T    paw PP                                                                      
   EAUG   =  446.014                                                                                
   DEXC   =    0.000                                                                                
   RMAX   =    2.563    core radius for proj-oper                                                   
   RAUG   =    1.300    factor for augmentation sphere                                              
   RDEP   =    2.641    radius for radial grids                                                     
   RDEPT  =    2.031    core radius for aug-charge                                                  
                                                                                                    
   Atomic configuration                                                                             
   11 entries                                                                                       
     n  l   j            E        occ.                                                              
     1  0  0.50    -19819.0341   2.0000                                                             
     2  0  0.50     -2799.0127   2.0000                                                             
     2  1  1.50     -2502.0276   6.0000                                                             
     3  0  0.50      -476.4449   2.0000                                                             
     3  1  1.50      -379.1496   6.0000                                                             
     3  2  2.50      -220.9367  10.0000                                                             
     4  0  0.50       -64.3378   2.0000                                                             
     5  0  0.50        -4.0862   1.0000                                                             
     4  1  1.50       -38.4773   6.0000                                                             
     4  2  2.50        -3.7535   5.0000                                                             
     4  3  2.50        -1.3606   0.0000                                                             
   Description                                                                                      
     l       E           TYP  RCUT    TYP  RCUT                                                     
     0    -64.3377829     23  2.100                                                                 
     0     -4.0861640     23  2.400                                                                 
     1    -38.4772993     23  2.100                                                                 
     1     13.6058260     23  2.100                                                                 
     2     -3.7534941     23  2.400                                                                 
     2     -5.1140767     23  2.400                                                                 
     3     -4.0817478     23  2.500                                                                 
  local pseudopotential read in
  partial core-charges read in
  partial kinetic energy density read in
  atomic valenz-charges read in
  non local Contribution for L=           0  read in
    real space projection operators read in
  non local Contribution for L=           0  read in
    real space projection operators read in
  non local Contribution for L=           1  read in
    real space projection operators read in
  non local Contribution for L=           1  read in
    real space projection operators read in
  non local Contribution for L=           2  read in
    real space projection operators read in
  non local Contribution for L=           2  read in
    real space projection operators read in
    PAW grid and wavefunctions read in
 
   number of l-projection  operators is LMAX  =           6
   number of lm-projection operators is LMMAX =          18
 
 POTCAR:    PAW_PBE Si 05Jan2001                  
   VRHFIN =Si: s2p2                                                                                 
   LEXCH  = PE                                                                                      
   EATOM  =   103.0669 eV,    7.5752 Ry                                                             
                                                                                                    
   TITEL  = PAW_PBE Si 05Jan2001                                                                    
   LULTRA =        F    use ultrasoft PP ?                                                          
   IUNSCR =        1    unscreen: 0-lin 1-nonlin 2-no                                               
   RPACOR =    1.500    partial core radius                                                         
   POMASS =   28.085; ZVAL   =    4.000    mass and valenz                                          
   RCORE  =    1.900    outmost cutoff radius                                                       
   RWIGS  =    2.480; RWIGS  =    1.312    wigner-seitz radius (au A)                               
   ENMAX  =  245.345; ENMIN  =  184.009 eV                                                          
   ICORE  =        2    local potential                                                             
   LCOR   =        T    correct aug charges                                                         
   LPAW   =        T    paw PP                                                                      
   EAUG   =  322.069                                                                                
   DEXC   =    0.000                                                                                
   RMAX   =    1.950    core radius for proj-oper                                                   
   RAUG   =    1.300    factor for augmentation sphere                                              
   RDEP   =    1.993    radius for radial grids                                                     
   RDEPT  =    1.837    core radius for aug-charge                                                  
                                                                                                    
   Atomic configuration                                                                             
    6 entries                                                                                       
     n  l   j            E        occ.                                                              
     1  0  0.50     -1785.8828   2.0000                                                             
     2  0  0.50      -139.4969   2.0000                                                             
     2  1  1.50       -95.5546   6.0000                                                             
     3  0  0.50       -10.8127   2.0000                                                             
     3  1  0.50        -4.0811   2.0000                                                             
     3  2  1.50        -4.0817   0.0000                                                             
   Description                                                                                      
     l       E           TYP  RCUT    TYP  RCUT                                                     
     0    -10.8127223     23  1.900                                                                 
     0     -7.6451159     23  1.900                                                                 
     1     -4.0811372     23  1.900                                                                 
     1      2.4879257     23  1.900                                                                 
     2     -4.0817478      7  1.900                                                                 
  local pseudopotential read in
  partial core-charges read in
  partial kinetic energy density read in
  atomic valenz-charges read in
  non local Contribution for L=           0  read in
    real space projection operators read in
  non local Contribution for L=           0  read in
    real space projection operators read in
  non local Contribution for L=           1  read in
    real space projection operators read in
  non local Contribution for L=           1  read in
    real space projection operators read in
    PAW grid and wavefunctions read in
 
   number of l-projection  operators is LMAX  =           4
   number of lm-projection operators is LMMAX =           8
 
  PAW_PBE B 06Sep2000                   :
 energy of atom  1       EATOM=  -71.1703
 kinetic energy error for atom=    0.0007 (will be added to EATOM!!)
  PAW_PBE Mo_sv 02Feb2006               :
 energy of atom  2       EATOM=-1862.2866
 kinetic energy error for atom=    0.0041 (will be added to EATOM!!)
  PAW_PBE Si 05Jan2001                  :
 energy of atom  3       EATOM= -103.0669
 kinetic energy error for atom=    0.0003 (will be added to EATOM!!)
 
 
 POSCAR: EA172
  positions in direct lattice
  No initial velocities read in

 METAGGA = R2SCA    LMAXTAU =  6    LMIXTAU =  F

 exchange correlation table for  LEXCH =        8
   RHO(1)=    0.500       N(1)  =     2000
   RHO(2)=  100.500       N(2)  =     4000
 


--------------------------------------------------------------------------------------------------------


 ion  position               nearest neighbor table
   1  0.635  0.135  0.190-   2 1.84   4 2.07   8 2.07  12 2.42  10 2.42  13 2.51  14 2.59   9 2.60
                            11 2.60
   2  0.365  0.865  0.810-   1 1.84   7 2.07   3 2.07  12 2.42  10 2.42  14 2.51  13 2.59   9 2.60
                            11 2.60
   3  0.135  0.945  0.500-   4 1.84   6 2.07   2 2.07  12 2.42  10 2.42  11 2.51   9 2.59  14 2.60
                            13 2.60
   4  0.865  0.055  0.500-   3 1.84   5 2.07   1 2.07  10 2.42  12 2.42   9 2.51  11 2.59  13 2.60
                            14 2.60
   5  0.945  0.445  0.810-   6 1.84   4 2.07   8 2.07  10 2.42  12 2.42  14 2.51  13 2.59  11 2.60
                             9 2.60
   6  0.055  0.555  0.190-   5 1.84   7 2.07   3 2.07  10 2.42  12 2.42  13 2.51  14 2.59  11 2.60
                             9 2.60
   7  0.445  0.635  0.500-   8 1.84   6 2.07   2 2.07  10 2.42  12 2.42   9 2.51  11 2.59  14 2.60
                            13 2.60
   8  0.555  0.365  0.500-   7 1.84   5 2.07   1 2.07  12 2.42  10 2.42  11 2.51   9 2.59  13 2.60
                            14 2.60
   9  0.139  0.361  0.500-  15 2.45  16 2.45  11 2.48   7 2.51   4 2.51   3 2.59   8 2.59   2 2.60
                             1 2.60   5 2.60   6 2.60  12 3.27  12 3.27  10 3.27  10 3.27  13 3.46
  10  0.250  0.250  0.000-  15 2.16  16 2.16   7 2.42   4 2.42   3 2.42   8 2.42   1 2.42   2 2.42
                             5 2.42   6 2.42  13 3.27  14 3.27  11 3.27  11 3.27   9 3.27   9 3.27
  11  0.861  0.639  0.500-  16 2.45  15 2.45   9 2.48   8 2.51   3 2.51   4 2.59   7 2.59   1 2.60
                             2 2.60   5 2.60   6 2.60  10 3.27  10 3.27  12 3.27  12 3.27  14 3.46
  12  0.750  0.750  0.000-  15 2.16  16 2.16   8 2.42   3 2.42   7 2.42   4 2.42   1 2.42   2 2.42
                             5 2.42   6 2.42  13 3.27  14 3.27   9 3.27   9 3.27  11 3.27  11 3.27
  13  0.361  0.861  0.222-  16 2.45  15 2.45  14 2.48   1 2.51   6 2.51   2 2.59   5 2.59   4 2.60
                             8 2.60   7 2.60   3 2.60  10 3.27  12 3.27  10 3.27  12 3.27   9 3.46
  14  0.639  0.139  0.778-  16 2.45  15 2.45  13 2.48   2 2.51   5 2.51   1 2.59   6 2.59   7 2.60
                             3 2.60   4 2.60   8 2.60  12 3.27  10 3.27  12 3.27  10 3.27  11 3.46
  15  0.500  0.500  0.000-  10 2.16  12 2.16  11 2.45   9 2.45  14 2.45  13 2.45
  16  0.000  0.000  0.000-  10 2.16  12 2.16   9 2.45  11 2.45  14 2.45  13 2.45
 
  LATTYP: Found a body centered tetragonal cell.
 ALAT       =     6.3211217743
 C/A-ratio  =     1.3694430457
  
  Lattice vectors:
  
 A1 = (   5.4448383279,   0.0000000000,  -3.0109219111)
 A2 = (  -1.8936824420,   5.1049222547,  -3.0109219111)
 A3 = (   0.0000000000,   0.0000000000,   6.2218900000)


Analysis of symmetry for initial positions (statically):
=====================================================================
 Subroutine PRICEL returns:
 Original cell was already a primitive cell.
 

 Routine SETGRP: Setting up the symmetry group for a 
 body centered tetragonal supercell.


 Subroutine GETGRP returns: Found 16 space group operations
 (whereof  8 operations were pure point group operations)
 out of a pool of 16 trial point group operations.


The static configuration has the point symmetry C_4h.
 The point group associated with its full space group is D_4h.


Analysis of symmetry for dynamics (positions and initial velocities):
=====================================================================
 Subroutine PRICEL returns:
 Original cell was already a primitive cell.
 

 Routine SETGRP: Setting up the symmetry group for a 
 body centered tetragonal supercell.


 Subroutine GETGRP returns: Found 16 space group operations
 (whereof  8 operations were pure point group operations)
 out of a pool of 16 trial point group operations.


The dynamic configuration has the point symmetry C_4h.
 The point group associated with its full space group is D_4h.


 Subroutine INISYM returns: Found 16 space group operations
 (whereof  8 operations are pure point group operations),
 and found     1 'primitive' translations


----------------------------------------------------------------------------------------

                                     Primitive cell                                     

  volume of cell :     172.9404

  direct lattice vectors                    reciprocal lattice vectors
     5.444838328  0.000000000 -3.010921911     0.183660182  0.068129160  0.000000000
    -1.893682442  5.104922255 -3.010921911     0.000000000  0.195889369  0.000000000
     0.000000000  0.000000000  6.221890000     0.088877571  0.127764903  0.160722867

  length of vectors
     6.221890000  6.221890000  6.221890000     0.195889369  0.195889369  0.223729598

  position of ions in fractional coordinates (direct lattice)
     0.635040000  0.135040000  0.190490000
     0.364960000  0.864960000  0.809510000
     0.135040000  0.944550000  0.500000000
     0.864960000  0.055450000  0.500000000
     0.944550000  0.444550000  0.809510000
     0.055450000  0.555450000  0.190490000
     0.444550000  0.635040000  0.500000000
     0.555450000  0.364960000  0.500000000
     0.138920000  0.361080000  0.500000000
     0.250000000  0.250000000  1.000000000
     0.861080000  0.638920000  0.500000000
     0.750000000  0.750000000  1.000000000
     0.361080000  0.861080000  0.222150000
     0.638920000  0.138920000  0.777850000
     0.500000000  0.500000000  1.000000000
     0.000000000  0.000000000  0.000000000

  ion indices of the primitive-cell ions
   primitive index   ion index
                 1           1
                 2           2
                 3           3
                 4           4
                 5           5
                 6           6
                 7           7
                 8           8
                 9           9
                10          10
                11          11
                12          12
                13          13
                14          14
                15          15
                16          16

----------------------------------------------------------------------------------------

 
 
 KPOINTS: EA                                      

Automatic generation of k-mesh.
 Grid dimensions read from file:
 generate k-points for:    7    7    8

 Generating k-lattice:

  Cartesian coordinates                     Fractional coordinates (reciprocal lattice)
     0.026237169  0.009732737  0.000000000     0.142857143  0.000000000  0.000000000
     0.000000000  0.027984196  0.000000000     0.000000000  0.142857143  0.000000000
     0.011109696  0.015970613  0.020090358     0.000000000 -0.000000000  0.125000000

  Length of vectors
     0.027984196  0.027984196  0.027966200

  Shift w.r.t. Gamma in fractional coordinates (k-lattice)
     0.000000000  0.000000000  0.000000000

 -----------------------------------------------------------------------------
|                                                                             |
|           W    W    AA    RRRRR   N    N  II  N    N   GGGG   !!!           |
|           W    W   A  A   R    R  NN   N  II  NN   N  G    G  !!!           |
|           W    W  A    A  R    R  N N  N  II  N N  N  G       !!!           |
|           W WW W  AAAAAA  RRRRR   N  N N  II  N  N N  G  GGG   !            |
|           WW  WW  A    A  R   R   N   NN  II  N   NN  G    G                |
|           W    W  A    A  R    R  N    N  II  N    N   GGGG   !!!           |
|                                                                             |
|     Your reciprocal lattice and k-lattice belong to different lattice       |
|     classes:                                                                |
|                                                                             |
|        The reciprocal lattice is body-centered tetragonal,                  |
|        whereas your k-lattice is base-centered monoclinic.                  |
|                                                                             |
|     Results are often still useful ...                                      |
|                                                                             |
 -----------------------------------------------------------------------------

 WARNING: IBZKPT: internal override: KBLOWUP is changed to .FALSE.
      ... skipping the blow-up phase ...

 
 Subroutine IBZKPT returns following result:
 ===========================================
 
 Found    116 irreducible k-points:
 
 Following reciprocal coordinates:
            Coordinates               Weight
  0.000000  0.000000  0.000000      1.000000
  0.142857  0.000000  0.000000      4.000000
  0.285714  0.000000  0.000000      4.000000
  0.428571  0.000000  0.000000      4.000000
  0.142857  0.142857  0.000000      2.000000
  0.285714  0.142857  0.000000      4.000000
  0.428571  0.142857  0.000000      4.000000
 -0.428571  0.142857  0.000000      4.000000
 -0.285714  0.142857  0.000000      4.000000
 -0.142857  0.142857  0.000000      2.000000
  0.285714  0.285714  0.000000      2.000000
  0.428571  0.285714  0.000000      4.000000
 -0.428571  0.285714  0.000000      4.000000
 -0.285714  0.285714  0.000000      2.000000
  0.428571  0.428571  0.000000      2.000000
 -0.428571  0.428571  0.000000      2.000000
  0.000000 -0.000000  0.125000      2.000000
  0.142857  0.000000  0.125000      4.000000
  0.285714  0.000000  0.125000      4.000000
  0.428571  0.000000  0.125000      4.000000
 -0.428571  0.000000  0.125000      4.000000
 -0.285714 -0.000000  0.125000      4.000000
 -0.142857 -0.000000  0.125000      4.000000
  0.142857  0.142857  0.125000      2.000000
  0.285714  0.142857  0.125000      4.000000
  0.428571  0.142857  0.125000      4.000000
 -0.428571  0.142857  0.125000      4.000000
 -0.285714  0.142857  0.125000      4.000000
 -0.142857  0.142857  0.125000      4.000000
  0.285714  0.285714  0.125000      2.000000
  0.428571  0.285714  0.125000      4.000000
 -0.428571  0.285714  0.125000      4.000000
 -0.285714  0.285714  0.125000      4.000000
 -0.142857  0.285714  0.125000      4.000000
  0.428571  0.428571  0.125000      2.000000
 -0.428571  0.428571  0.125000      4.000000
 -0.285714  0.428571  0.125000      4.000000
 -0.142857  0.428571  0.125000      4.000000
 -0.428571 -0.428571  0.125000      2.000000
 -0.285714 -0.428571  0.125000      4.000000
 -0.142857 -0.428571  0.125000      4.000000
 -0.285714 -0.285714  0.125000      2.000000
 -0.142857 -0.285714  0.125000      4.000000
 -0.142857 -0.142857  0.125000      2.000000
  0.000000 -0.000000  0.250000      2.000000
  0.142857 -0.000000  0.250000      4.000000
  0.285714  0.000000  0.250000      4.000000
  0.428571 -0.000000  0.250000      4.000000
 -0.428571 -0.000000  0.250000      4.000000
 -0.285714  0.000000  0.250000      4.000000
 -0.142857  0.000000  0.250000      4.000000
  0.142857  0.142857  0.250000      2.000000
  0.285714  0.142857  0.250000      4.000000
  0.428571  0.142857  0.250000      4.000000
 -0.428571  0.142857  0.250000      4.000000
 -0.285714  0.142857  0.250000      4.000000
 -0.142857  0.142857  0.250000      4.000000
  0.285714  0.285714  0.250000      2.000000
  0.428571  0.285714  0.250000      4.000000
 -0.428571  0.285714  0.250000      4.000000
 -0.285714  0.285714  0.250000      4.000000
 -0.142857  0.285714  0.250000      4.000000
  0.428571  0.428571  0.250000      2.000000
 -0.428571  0.428571  0.250000      4.000000
 -0.285714  0.428571  0.250000      4.000000
 -0.142857  0.428571  0.250000      4.000000
 -0.428571 -0.428571  0.250000      2.000000
 -0.285714 -0.428571  0.250000      4.000000
 -0.142857 -0.428571  0.250000      4.000000
 -0.285714 -0.285714  0.250000      2.000000
 -0.142857 -0.285714  0.250000      4.000000
 -0.142857 -0.142857  0.250000      2.000000
  0.000000 -0.000000  0.375000      2.000000
  0.142857  0.000000  0.375000      4.000000
  0.285714 -0.000000  0.375000      4.000000
  0.428571  0.000000  0.375000      4.000000
 -0.428571 -0.000000  0.375000      4.000000
 -0.285714 -0.000000  0.375000      4.000000
 -0.142857 -0.000000  0.375000      4.000000
  0.142857  0.142857  0.375000      2.000000
  0.285714  0.142857  0.375000      4.000000
  0.428571  0.142857  0.375000      4.000000
 -0.428571  0.142857  0.375000      4.000000
 -0.285714  0.142857  0.375000      4.000000
 -0.142857  0.142857  0.375000      4.000000
  0.285714  0.285714  0.375000      2.000000
  0.428571  0.285714  0.375000      4.000000
 -0.428571  0.285714  0.375000      4.000000
 -0.285714  0.285714  0.375000      4.000000
 -0.142857  0.285714  0.375000      4.000000
  0.428571  0.428571  0.375000      2.000000
 -0.428571  0.428571  0.375000      4.000000
 -0.285714  0.428571  0.375000      4.000000
 -0.142857  0.428571  0.375000      4.000000
 -0.428571 -0.428571  0.375000      2.000000
 -0.285714 -0.428571  0.375000      4.000000
 -0.142857 -0.428571  0.375000      4.000000
 -0.285714 -0.285714  0.375000      2.000000
 -0.142857 -0.285714  0.375000      4.000000
 -0.142857 -0.142857  0.375000      2.000000
  0.000000 -0.000000  0.500000      1.000000
  0.142857  0.000000  0.500000      4.000000
  0.285714 -0.000000  0.500000      4.000000
  0.428571 -0.000000  0.500000      4.000000
  0.142857  0.142857  0.500000      2.000000
  0.285714  0.142857  0.500000      4.000000
  0.428571  0.142857  0.500000      4.000000
 -0.428571  0.142857  0.500000      4.000000
 -0.285714  0.142857  0.500000      4.000000
 -0.142857  0.142857  0.500000      2.000000
  0.285714  0.285714  0.500000      2.000000
  0.428571  0.285714  0.500000      4.000000
 -0.428571  0.285714  0.500000      4.000000
 -0.285714  0.285714  0.500000      2.000000
  0.428571  0.428571  0.500000      2.000000
 -0.428571  0.428571  0.500000      2.000000
 
 Following cartesian coordinates:
            Coordinates               Weight
  0.000000  0.000000  0.000000      1.000000
  0.026237  0.009733  0.000000      4.000000
  0.052474  0.019465  0.000000      4.000000
  0.078712  0.029198  0.000000      4.000000
  0.026237  0.037717  0.000000      2.000000
  0.052474  0.047450  0.000000      4.000000
  0.078712  0.057182  0.000000      4.000000
 -0.078712 -0.001214  0.000000      4.000000
 -0.052474  0.008519  0.000000      4.000000
 -0.026237  0.018251  0.000000      2.000000
  0.052474  0.075434  0.000000      2.000000
  0.078712  0.085167  0.000000      4.000000
 -0.078712  0.026770  0.000000      4.000000
 -0.052474  0.036503  0.000000      2.000000
  0.078712  0.113151  0.000000      2.000000
 -0.078712  0.054754  0.000000      2.000000
  0.011110  0.015971  0.020090      2.000000
  0.037347  0.025703  0.020090      4.000000
  0.063584  0.035436  0.020090      4.000000
  0.089821  0.045169  0.020090      4.000000
 -0.067602 -0.013228  0.020090      4.000000
 -0.041365 -0.003495  0.020090      4.000000
 -0.015127  0.006238  0.020090      4.000000
  0.037347  0.053688  0.020090      2.000000
  0.063584  0.063420  0.020090      4.000000
  0.089821  0.073153  0.020090      4.000000
 -0.067602  0.014757  0.020090      4.000000
 -0.041365  0.024489  0.020090      4.000000
 -0.015127  0.034222  0.020090      4.000000
  0.063584  0.091404  0.020090      2.000000
  0.089821  0.101137  0.020090      4.000000
 -0.067602  0.042741  0.020090      4.000000
 -0.041365  0.052474  0.020090      4.000000
 -0.015127  0.062206  0.020090      4.000000
  0.089821  0.129121  0.020090      2.000000
 -0.067602  0.070725  0.020090      4.000000
 -0.041365  0.080458  0.020090      4.000000
 -0.015127  0.090190  0.020090      4.000000
 -0.067602 -0.097180  0.020090      2.000000
 -0.041365 -0.087447  0.020090      4.000000
 -0.015127 -0.077715  0.020090      4.000000
 -0.041365 -0.059463  0.020090      2.000000
 -0.015127 -0.049731  0.020090      4.000000
 -0.015127 -0.021746  0.020090      2.000000
  0.022219  0.031941  0.040181      2.000000
  0.048457  0.041674  0.040181      4.000000
  0.074694  0.051407  0.040181      4.000000
  0.100931  0.061139  0.040181      4.000000
 -0.056492  0.002743  0.040181      4.000000
 -0.030255  0.012476  0.040181      4.000000
 -0.004018  0.022208  0.040181      4.000000
  0.048457  0.069658  0.040181      2.000000
  0.074694  0.079391  0.040181      4.000000
  0.100931  0.089124  0.040181      4.000000
 -0.056492  0.030727  0.040181      4.000000
 -0.030255  0.040460  0.040181      4.000000
 -0.004018  0.050193  0.040181      4.000000
  0.074694  0.107375  0.040181      2.000000
  0.100931  0.117108  0.040181      4.000000
 -0.056492  0.058711  0.040181      4.000000
 -0.030255  0.068444  0.040181      4.000000
 -0.004018  0.078177  0.040181      4.000000
  0.100931  0.145092  0.040181      2.000000
 -0.056492  0.086696  0.040181      4.000000
 -0.030255  0.096428  0.040181      4.000000
 -0.004018  0.106161  0.040181      4.000000
 -0.056492 -0.081210  0.040181      2.000000
 -0.030255 -0.071477  0.040181      4.000000
 -0.004018 -0.061744  0.040181      4.000000
 -0.030255 -0.043493  0.040181      2.000000
 -0.004018 -0.033760  0.040181      4.000000
 -0.004018 -0.005776  0.040181      2.000000
  0.033329  0.047912  0.060271      2.000000
  0.059566  0.057645  0.060271      4.000000
  0.085803  0.067377  0.060271      4.000000
  0.112041  0.077110  0.060271      4.000000
 -0.045382  0.018714  0.060271      4.000000
 -0.019145  0.028446  0.060271      4.000000
  0.007092  0.038179  0.060271      4.000000
  0.059566  0.085629  0.060271      2.000000
  0.085803  0.095362  0.060271      4.000000
  0.112041  0.105094  0.060271      4.000000
 -0.045382  0.046698  0.060271      4.000000
 -0.019145  0.056431  0.060271      4.000000
  0.007092  0.066163  0.060271      4.000000
  0.085803  0.123346  0.060271      2.000000
  0.112041  0.133078  0.060271      4.000000
 -0.045382  0.074682  0.060271      4.000000
 -0.019145  0.084415  0.060271      4.000000
  0.007092  0.094147  0.060271      4.000000
  0.112041  0.161063  0.060271      2.000000
 -0.045382  0.102666  0.060271      4.000000
 -0.019145  0.112399  0.060271      4.000000
  0.007092  0.122132  0.060271      4.000000
 -0.045382 -0.065239  0.060271      2.000000
 -0.019145 -0.055506  0.060271      4.000000
  0.007092 -0.045773  0.060271      4.000000
 -0.019145 -0.027522  0.060271      2.000000
  0.007092 -0.017789  0.060271      4.000000
  0.007092  0.010195  0.060271      2.000000
  0.044439  0.063882  0.080361      1.000000
  0.070676  0.073615  0.080361      4.000000
  0.096913  0.083348  0.080361      4.000000
  0.123150  0.093081  0.080361      4.000000
  0.070676  0.101599  0.080361      2.000000
  0.096913  0.111332  0.080361      4.000000
  0.123150  0.121065  0.080361      4.000000
 -0.034273  0.062668  0.080361      4.000000
 -0.008036  0.072401  0.080361      4.000000
  0.018202  0.082134  0.080361      2.000000
  0.096913  0.139316  0.080361      2.000000
  0.123150  0.149049  0.080361      4.000000
 -0.034273  0.090653  0.080361      4.000000
 -0.008036  0.100385  0.080361      2.000000
  0.123150  0.177033  0.080361      2.000000
 -0.034273  0.118637  0.080361      2.000000
 


--------------------------------------------------------------------------------------------------------




 Dimension of arrays:
   k-points           NKPTS =    116   k-points in BZ     NKDIM =    116   number of bands    NBANDS=     72
   number of dos      NEDOS =    301   number of ions     NIONS =     16
   non local maximal  LDIM  =      6   non local SUM 2l+1 LMDIM =     18
   total plane-waves  NPLWV = 125000
   max r-space proj   IRMAX =      1   max aug-charges    IRDMAX= 253041
   dimension x,y,z NGX =    50 NGY =   50 NGZ =   50
   dimension x,y,z NGXF=   100 NGYF=  100 NGZF=  100
   support grid    NGXF=   200 NGYF=  200 NGZF=  200
   ions per type =               8   6   2
   NGX,Y,Z   is equivalent  to a cutoff of  13.36, 13.36, 13.36 a.u.
   NGXF,Y,Z  is equivalent  to a cutoff of  26.72, 26.72, 26.72 a.u.

 SYSTEM =  routine with relax: pwdword             
 POSCAR =  EA172                                   

 Startparameter for this run:
   NWRITE =      2    write-flag & timer
   PREC   = acc       normal or accurate (medium, high low for compatibility)
   ISTART =      0    job   : 0-new  1-cont  2-samecut
   ICHARG =      2    charge: 1-file 2-atom 10-const
   ISPIN  =      1    spin polarized calculation?
   LNONCOLLINEAR =      F non collinear calculations
   LSORBIT =      F    spin-orbit coupling
   INIWAV =      1    electr: 0-lowe 1-rand  2-diag
   LASPH  =      T    aspherical Exc in radial PAW
   METAGGA=      F    non-selfconsistent MetaGGA calc.

 Electronic Relaxation 1
   ENCUT  =  600.0 eV  44.10 Ry    6.64 a.u.  12.43 12.43 12.43*2*pi/ulx,y,z
   ENINI  =  600.0     initial cutoff
   ENAUG  =  535.5 eV  augmentation charge cutoff
   NELM   =    100;   NELMIN=  6; NELMDL= -5     # of ELM steps 
   EDIFF  = 0.1E-08   stopping-criterion for ELM
   LREAL  =      F    real-space projection
   NLSPLINE    = F    spline interpolate recip. space projectors
   LCOMPAT=      F    compatible to vasp.4.4
   GGA_COMPAT  = T    GGA compatible to vasp.4.4-vasp.4.6
   LMAXPAW     = -100 max onsite density
   LMAXMIX     =    2 max onsite mixed and CHGCAR
   VOSKOWN=      0    Vosko Wilk Nusair interpolation
   ROPT   =    0.00000   0.00000   0.00000
 Ionic relaxation
   EDIFFG = 0.1E-07   stopping-criterion for IOM
   NSW    =      0    number of steps for IOM
   NBLOCK =      1;   KBLOCK =      1    inner block; outer block 
   IBRION =     -1    ionic relax: 0-MD 1-quasi-New 2-CG
   NFREE  =      0    steps in history (QN), initial steepest desc. (CG)
   ISIF   =     -1    stress and relaxation
   IWAVPR =     10    prediction:  0-non 1-charg 2-wave 3-comb
   ISYM   =      2    0-nonsym 1-usesym 2-fastsym
   LCORR  =      T    Harris-Foulkes like correction to forces

   POTIM  = 0.5000    time-step for ionic-motion
   TEIN   =    0.0    initial temperature
   TEBEG  =    0.0;   TEEND  =   0.0 temperature during run
   SMASS  =  -3.00    Nose mass-parameter (am)
   estimated Nose-frequenzy (Omega)   =  0.10E-29 period in steps = 0.13E+47 mass=  -0.885E-27a.u.
   SCALEE = 1.0000    scale energy and forces
   NPACO  =    256;   APACO  = 16.0  distance and # of slots for P.C.
   PSTRESS=    0.0 pullay stress

  Mass of Ions in am
   POMASS =  10.81 95.94 28.09
  Ionic Valenz
   ZVAL   =   3.00 14.00  4.00
  Atomic Wigner-Seitz radii
   RWIGS  =  -1.00 -1.00 -1.00
  virtual crystal weights 
   VCA    =   1.00  1.00  1.00
   NELECT =     116.0000    total number of electrons
   NUPDOWN=      -1.0000    fix difference up-down

 DOS related values:
   EMIN   =  10.00;   EMAX   =-10.00  energy-range for DOS
   EFERMI =   0.00
   ISMEAR =     0;   SIGMA  =   0.02  broadening in eV -4-tet -1-fermi 0-gaus

 Electronic relaxation 2 (details)
   IALGO  =     58    algorithm
   LDIAG  =      T    sub-space diagonalisation (order eigenvalues)
   LSUBROT=      F    optimize rotation matrix (better conditioning)
   TURBO    =      0    0=normal 1=particle mesh
   IRESTART =      0    0=no restart 2=restart with 2 vectors
   NREBOOT  =      0    no. of reboots
   NMIN     =      0    reboot dimension
   EREF     =   0.00    reference energy to select bands
   IMIX   =      4    mixing-type and parameters
     AMIX     =   0.40;   BMIX     =  1.00
     AMIX_MAG =   1.60;   BMIX_MAG =  1.00
     AMIN     =   0.10
     WC   =   100.;   INIMIX=   1;  MIXPRE=   1;  MAXMIX= -45

 Intra band minimization:
   WEIMIN = 0.0000     energy-eigenvalue tresh-hold
   EBREAK =  0.35E-11  absolut break condition
   DEPER  =   0.30     relativ break condition  

   TIME   =   0.40     timestep for ELM

  volume/ion in A,a.u.               =      10.81        72.94
  Fermi-wavevector in a.u.,A,eV,Ry     =   1.433052  2.708076 27.941450  2.053639
  Thomas-Fermi vector in A             =   2.552613
 
 Write flags
   LWAVE        =      T    write WAVECAR
   LDOWNSAMPLE  =      F    k-point downsampling of WAVECAR
   LCHARG       =      T    write CHGCAR
   LVTOT        =      F    write LOCPOT, total local potential
   LVHAR        =      F    write LOCPOT, Hartree potential only
   LELF         =      F    write electronic localiz. function (ELF)
   LORBIT       =      0    0 simple, 1 ext, 2 COOP (PROOUT), +10 PAW based schemes


 Dipole corrections
   LMONO  =      F    monopole corrections only (constant potential shift)
   LDIPOL =      F    correct potential (dipole corrections)
   IDIPOL =      0    1-x, 2-y, 3-z, 4-all directions 
   EPSILON=  1.0000000 bulk dielectric constant

 Exchange correlation treatment:
   GGA     =    --    GGA type
   LEXCH   =     8    internal setting for exchange type
   VOSKOWN=      0    Vosko Wilk Nusair interpolation
   LHFCALC =     F    Hartree Fock is set to
   LHFONE  =     F    Hartree Fock one center treatment
   AEXX    =    0.0000 exact exchange contribution

 Linear response parameters
   LEPSILON=     F    determine dielectric tensor
   LRPA    =     F    only Hartree local field effects (RPA)
   LNABLA  =     F    use nabla operator in PAW spheres
   LVEL    =     F    velocity operator in full k-point grid
   LINTERFAST=   F  fast interpolation
   KINTER  =     0    interpolate to denser k-point grid
   CSHIFT  =0.1000    complex shift for real part using Kramers Kronig
   OMEGAMAX=  -1.0    maximum frequency
   DEG_THRESHOLD= 0.2000000E-02 threshold for treating states as degnerate
   RTIME   =   -0.100 relaxation time in fs
  (WPLASMAI=    0.000 imaginary part of plasma frequency in eV, 0.658/RTIME)
   DFIELD  = 0.0000000 0.0000000 0.0000000 field for delta impulse in time
 
 Orbital magnetization related:
   ORBITALMAG=     F  switch on orbital magnetization
   LCHIMAG   =     F  perturbation theory with respect to B field
   DQ        =  0.001000  dq finite difference perturbation B field
   LLRAUG    =     F  two centre corrections for induced B field



--------------------------------------------------------------------------------------------------------


 Static calculation
 charge density and potential will be updated during run
 non-spin polarized calculation
 Conjugate gradient for all bands (Freysoldt, et al. PRB 79, 241103 (2009))
 preconditioned conjugated gradient                                        
 perform sub-space diagonalisation
    before iterative eigenvector-optimisation
 modified Broyden-mixing scheme, WC =      100.0
 initial mixing is a Kerker type mixing with AMIX =  0.4000 and BMIX =      1.0000
 Hartree-type preconditioning will be used
 using additional bands           14
 reciprocal scheme for non local part
 use partial core corrections
 no Harris-corrections to forces 
 use gradient corrections 
 use of overlap-Matrix (Vanderbilt PP)
 Gauss-broadening in eV      SIGMA  =   0.02


--------------------------------------------------------------------------------------------------------


  energy-cutoff  :      600.00
  volume of cell :      172.94
      direct lattice vectors                 reciprocal lattice vectors
     5.444838328  0.000000000 -3.010921911     0.183660182  0.068129160  0.000000000
    -1.893682442  5.104922255 -3.010921911     0.000000000  0.195889369  0.000000000
     0.000000000  0.000000000  6.221890000     0.088877571  0.127764903  0.160722867

  length of vectors
     6.221890000  6.221890000  6.221890000     0.195889369  0.195889369  0.223729598


 
 k-points in units of 2pi/SCALE and weight: EA                                      
   0.00000000  0.00000000  0.00000000       0.003
   0.02623717  0.00973274  0.00000000       0.010
   0.05247434  0.01946547  0.00000000       0.010
   0.07871151  0.02919821  0.00000000       0.010
   0.02623717  0.03771693  0.00000000       0.005
   0.05247434  0.04744967  0.00000000       0.010
   0.07871151  0.05718241  0.00000000       0.010
  -0.07871151 -0.00121402  0.00000000       0.010
  -0.05247434  0.00851872  0.00000000       0.010
  -0.02623717  0.01825146  0.00000000       0.005
   0.05247434  0.07543387  0.00000000       0.005
   0.07871151  0.08516660  0.00000000       0.010
  -0.07871151  0.02677018  0.00000000       0.010
  -0.05247434  0.03650292  0.00000000       0.005
   0.07871151  0.11315080  0.00000000       0.005
  -0.07871151  0.05475438  0.00000000       0.005
   0.01110970  0.01597061  0.02009036       0.005
   0.03734687  0.02570335  0.02009036       0.010
   0.06358403  0.03543609  0.02009036       0.010
   0.08982120  0.04516882  0.02009036       0.010
  -0.06760181 -0.01322760  0.02009036       0.010
  -0.04136464 -0.00349486  0.02009036       0.010
  -0.01512747  0.00623788  0.02009036       0.010
   0.03734687  0.05368755  0.02009036       0.005
   0.06358403  0.06342028  0.02009036       0.010
   0.08982120  0.07315302  0.02009036       0.010
  -0.06760181  0.01475660  0.02009036       0.010
  -0.04136464  0.02448933  0.02009036       0.010
  -0.01512747  0.03422207  0.02009036       0.010
   0.06358403  0.09140448  0.02009036       0.005
   0.08982120  0.10113722  0.02009036       0.010
  -0.06760181  0.04274079  0.02009036       0.010
  -0.04136464  0.05247353  0.02009036       0.010
  -0.01512747  0.06220627  0.02009036       0.010
   0.08982120  0.12912141  0.02009036       0.005
  -0.06760181  0.07072499  0.02009036       0.010
  -0.04136464  0.08045773  0.02009036       0.010
  -0.01512747  0.09019046  0.02009036       0.010
  -0.06760181 -0.09718019  0.02009036       0.005
  -0.04136464 -0.08744745  0.02009036       0.010
  -0.01512747 -0.07771471  0.02009036       0.010
  -0.04136464 -0.05946325  0.02009036       0.005
  -0.01512747 -0.04973052  0.02009036       0.010
  -0.01512747 -0.02174632  0.02009036       0.005
   0.02221939  0.03194123  0.04018072       0.005
   0.04845656  0.04167396  0.04018072       0.010
   0.07469373  0.05140670  0.04018072       0.010
   0.10093090  0.06113944  0.04018072       0.010
  -0.05649211  0.00274301  0.04018072       0.010
  -0.03025495  0.01247575  0.04018072       0.010
  -0.00401778  0.02220849  0.04018072       0.010
   0.04845656  0.06965816  0.04018072       0.005
   0.07469373  0.07939090  0.04018072       0.010
   0.10093090  0.08912363  0.04018072       0.010
  -0.05649211  0.03072721  0.04018072       0.010
  -0.03025495  0.04045995  0.04018072       0.010
  -0.00401778  0.05019268  0.04018072       0.010
   0.07469373  0.10737509  0.04018072       0.005
   0.10093090  0.11710783  0.04018072       0.010
  -0.05649211  0.05871141  0.04018072       0.010
  -0.03025495  0.06844414  0.04018072       0.010
  -0.00401778  0.07817688  0.04018072       0.010
   0.10093090  0.14509202  0.04018072       0.005
  -0.05649211  0.08669560  0.04018072       0.010
  -0.03025495  0.09642834  0.04018072       0.010
  -0.00401778  0.10616108  0.04018072       0.010
  -0.05649211 -0.08120957  0.04018072       0.005
  -0.03025495 -0.07147684  0.04018072       0.010
  -0.00401778 -0.06174410  0.04018072       0.010
  -0.03025495 -0.04349264  0.04018072       0.005
  -0.00401778 -0.03375990  0.04018072       0.010
  -0.00401778 -0.00577571  0.04018072       0.005
   0.03332909  0.04791184  0.06027108       0.005
   0.05956626  0.05764458  0.06027108       0.010
   0.08580343  0.06737731  0.06027108       0.010
   0.11204060  0.07711005  0.06027108       0.010
  -0.04538242  0.01871363  0.06027108       0.010
  -0.01914525  0.02844636  0.06027108       0.010
   0.00709192  0.03817910  0.06027108       0.010
   0.05956626  0.08562877  0.06027108       0.005
   0.08580343  0.09536151  0.06027108       0.010
   0.11204060  0.10509425  0.06027108       0.010
  -0.04538242  0.04669782  0.06027108       0.010
  -0.01914525  0.05643056  0.06027108       0.010
   0.00709192  0.06616330  0.06027108       0.010
   0.08580343  0.12334570  0.06027108       0.005
   0.11204060  0.13307844  0.06027108       0.010
  -0.04538242  0.07468202  0.06027108       0.010
  -0.01914525  0.08441476  0.06027108       0.010
   0.00709192  0.09414749  0.06027108       0.010
   0.11204060  0.16106264  0.06027108       0.005
  -0.04538242  0.10266621  0.06027108       0.010
  -0.01914525  0.11239895  0.06027108       0.010
   0.00709192  0.12213169  0.06027108       0.010
  -0.04538242 -0.06523896  0.06027108       0.005
  -0.01914525 -0.05550622  0.06027108       0.010
   0.00709192 -0.04577349  0.06027108       0.010
  -0.01914525 -0.02752203  0.06027108       0.005
   0.00709192 -0.01778929  0.06027108       0.010
   0.00709192  0.01019491  0.06027108       0.005
   0.04443879  0.06388245  0.08036143       0.003
   0.07067595  0.07361519  0.08036143       0.010
   0.09691312  0.08334793  0.08036143       0.010
   0.12315029  0.09308066  0.08036143       0.010
   0.07067595  0.10159938  0.08036143       0.005
   0.09691312  0.11133212  0.08036143       0.010
   0.12315029  0.12106486  0.08036143       0.010
  -0.03427272  0.06266844  0.08036143       0.010
  -0.00803555  0.07240117  0.08036143       0.010
   0.01820162  0.08213391  0.08036143       0.005
   0.09691312  0.13931632  0.08036143       0.005
   0.12315029  0.14904905  0.08036143       0.010
  -0.03427272  0.09065263  0.08036143       0.010
  -0.00803555  0.10038537  0.08036143       0.005
   0.12315029  0.17703325  0.08036143       0.005
  -0.03427272  0.11863683  0.08036143       0.005
 
 k-points in reciprocal lattice and weights: EA                                      
   0.00000000  0.00000000  0.00000000       0.003
   0.14285714  0.00000000  0.00000000       0.010
   0.28571429  0.00000000  0.00000000       0.010
   0.42857143  0.00000000  0.00000000       0.010
   0.14285714  0.14285714  0.00000000       0.005
   0.28571429  0.14285714  0.00000000       0.010
   0.42857143  0.14285714  0.00000000       0.010
  -0.42857143  0.14285714  0.00000000       0.010
  -0.28571429  0.14285714  0.00000000       0.010
  -0.14285714  0.14285714  0.00000000       0.005
   0.28571429  0.28571429  0.00000000       0.005
   0.42857143  0.28571429  0.00000000       0.010
  -0.42857143  0.28571429  0.00000000       0.010
  -0.28571429  0.28571429  0.00000000       0.005
   0.42857143  0.42857143  0.00000000       0.005
  -0.42857143  0.42857143  0.00000000       0.005
   0.00000000 -0.00000000  0.12500000       0.005
   0.14285714  0.00000000  0.12500000       0.010
   0.28571429  0.00000000  0.12500000       0.010
   0.42857143  0.00000000  0.12500000       0.010
  -0.42857143  0.00000000  0.12500000       0.010
  -0.28571429 -0.00000000  0.12500000       0.010
  -0.14285714 -0.00000000  0.12500000       0.010
   0.14285714  0.14285714  0.12500000       0.005
   0.28571429  0.14285714  0.12500000       0.010
   0.42857143  0.14285714  0.12500000       0.010
  -0.42857143  0.14285714  0.12500000       0.010
  -0.28571429  0.14285714  0.12500000       0.010
  -0.14285714  0.14285714  0.12500000       0.010
   0.28571429  0.28571429  0.12500000       0.005
   0.42857143  0.28571429  0.12500000       0.010
  -0.42857143  0.28571429  0.12500000       0.010
  -0.28571429  0.28571429  0.12500000       0.010
  -0.14285714  0.28571429  0.12500000       0.010
   0.42857143  0.42857143  0.12500000       0.005
  -0.42857143  0.42857143  0.12500000       0.010
  -0.28571429  0.42857143  0.12500000       0.010
  -0.14285714  0.42857143  0.12500000       0.010
  -0.42857143 -0.42857143  0.12500000       0.005
  -0.28571429 -0.42857143  0.12500000       0.010
  -0.14285714 -0.42857143  0.12500000       0.010
  -0.28571429 -0.28571429  0.12500000       0.005
  -0.14285714 -0.28571429  0.12500000       0.010
  -0.14285714 -0.14285714  0.12500000       0.005
   0.00000000 -0.00000000  0.25000000       0.005
   0.14285714 -0.00000000  0.25000000       0.010
   0.28571429  0.00000000  0.25000000       0.010
   0.42857143 -0.00000000  0.25000000       0.010
  -0.42857143 -0.00000000  0.25000000       0.010
  -0.28571429  0.00000000  0.25000000       0.010
  -0.14285714  0.00000000  0.25000000       0.010
   0.14285714  0.14285714  0.25000000       0.005
   0.28571429  0.14285714  0.25000000       0.010
   0.42857143  0.14285714  0.25000000       0.010
  -0.42857143  0.14285714  0.25000000       0.010
  -0.28571429  0.14285714  0.25000000       0.010
  -0.14285714  0.14285714  0.25000000       0.010
   0.28571429  0.28571429  0.25000000       0.005
   0.42857143  0.28571429  0.25000000       0.010
  -0.42857143  0.28571429  0.25000000       0.010
  -0.28571429  0.28571429  0.25000000       0.010
  -0.14285714  0.28571429  0.25000000       0.010
   0.42857143  0.42857143  0.25000000       0.005
  -0.42857143  0.42857143  0.25000000       0.010
  -0.28571429  0.42857143  0.25000000       0.010
  -0.14285714  0.42857143  0.25000000       0.010
  -0.42857143 -0.42857143  0.25000000       0.005
  -0.28571429 -0.42857143  0.25000000       0.010
  -0.14285714 -0.42857143  0.25000000       0.010
  -0.28571429 -0.28571429  0.25000000       0.005
  -0.14285714 -0.28571429  0.25000000       0.010
  -0.14285714 -0.14285714  0.25000000       0.005
   0.00000000 -0.00000000  0.37500000       0.005
   0.14285714  0.00000000  0.37500000       0.010
   0.28571429 -0.00000000  0.37500000       0.010
   0.42857143  0.00000000  0.37500000       0.010
  -0.42857143 -0.00000000  0.37500000       0.010
  -0.28571429 -0.00000000  0.37500000       0.010
  -0.14285714 -0.00000000  0.37500000       0.010
   0.14285714  0.14285714  0.37500000       0.005
   0.28571429  0.14285714  0.37500000       0.010
   0.42857143  0.14285714  0.37500000       0.010
  -0.42857143  0.14285714  0.37500000       0.010
  -0.28571429  0.14285714  0.37500000       0.010
  -0.14285714  0.14285714  0.37500000       0.010
   0.28571429  0.28571429  0.37500000       0.005
   0.42857143  0.28571429  0.37500000       0.010
  -0.42857143  0.28571429  0.37500000       0.010
  -0.28571429  0.28571429  0.37500000       0.010
  -0.14285714  0.28571429  0.37500000       0.010
   0.42857143  0.42857143  0.37500000       0.005
  -0.42857143  0.42857143  0.37500000       0.010
  -0.28571429  0.42857143  0.37500000       0.010
  -0.14285714  0.42857143  0.37500000       0.010
  -0.42857143 -0.42857143  0.37500000       0.005
  -0.28571429 -0.42857143  0.37500000       0.010
  -0.14285714 -0.42857143  0.37500000       0.010
  -0.28571429 -0.28571429  0.37500000       0.005
  -0.14285714 -0.28571429  0.37500000       0.010
  -0.14285714 -0.14285714  0.37500000       0.005
   0.00000000 -0.00000000  0.50000000       0.003
   0.14285714  0.00000000  0.50000000       0.010
   0.28571429 -0.00000000  0.50000000       0.010
   0.42857143 -0.00000000  0.50000000       0.010
   0.14285714  0.14285714  0.50000000       0.005
   0.28571429  0.14285714  0.50000000       0.010
   0.42857143  0.14285714  0.50000000       0.010
  -0.42857143  0.14285714  0.50000000       0.010
  -0.28571429  0.14285714  0.50000000       0.010
  -0.14285714  0.14285714  0.50000000       0.005
   0.28571429  0.28571429  0.50000000       0.005
   0.42857143  0.28571429  0.50000000       0.010
  -0.42857143  0.28571429  0.50000000       0.010
  -0.28571429  0.28571429  0.50000000       0.005
   0.42857143  0.42857143  0.50000000       0.005
  -0.42857143  0.42857143  0.50000000       0.005
 
 position of ions in fractional coordinates (direct lattice) 
   0.63504000  0.13504000  0.19049000
   0.36496000  0.86496000  0.80951000
   0.13504000  0.94455000  0.50000000
   0.86496000  0.05545000  0.50000000
   0.94455000  0.44455000  0.80951000
   0.05545000  0.55545000  0.19049000
   0.44455000  0.63504000  0.50000000
   0.55545000  0.36496000  0.50000000
   0.13892000  0.36108000  0.50000000
   0.25000000  0.25000000  0.00000000
   0.86108000  0.63892000  0.50000000
   0.75000000  0.75000000  0.00000000
   0.36108000  0.86108000  0.22215000
   0.63892000  0.13892000  0.77785000
   0.50000000  0.50000000  0.00000000
   0.00000000  0.00000000  0.00000000
 
 position of ions in cartesian coordinates  (Angst):
   3.20196725  0.68936870 -1.13344292
   0.34918863  4.41555355  1.33348910
  -1.05340678  4.82185432 -0.13961619
   4.60456267  0.28306794  0.33966236
   4.30108551  2.26939319  0.85421055
  -0.74992963  2.83552907 -0.65416437
   1.21793878  3.24182983 -0.13961619
   2.33321711  1.86309243  0.33966236
   0.07262608  1.84328533  1.60548404
   0.88778897  1.27623056 -1.50546096
   3.47852980  3.26163693 -1.40543787
   2.66336691  3.82869169 -4.51638287
   0.33541015  4.39574646 -2.29763546
   3.21574574  0.70917580  2.49768164
   1.77557794  2.55246113 -3.01092191
   0.00000000  0.00000000  0.00000000
 


--------------------------------------------------------------------------------------------------------


 k-point   1 :   0.0000 0.0000 0.0000  plane waves:    5825
 k-point   2 :   0.1429 0.0000 0.0000  plane waves:    5786
 k-point   3 :   0.2857 0.0000 0.0000  plane waves:    5779
 k-point   4 :   0.4286 0.0000 0.0000  plane waves:    5779
 k-point   5 :   0.1429 0.1429 0.0000  plane waves:    5780
 k-point   6 :   0.2857 0.1429 0.0000  plane waves:    5785
 k-point   7 :   0.4286 0.1429 0.0000  plane waves:    5775
 k-point   8 :  -0.4286 0.1429 0.0000  plane waves:    5775
 k-point   9 :  -0.2857 0.1429 0.0000  plane waves:    5786
 k-point  10 :  -0.1429 0.1429 0.0000  plane waves:    5784
 k-point  11 :   0.2857 0.2857 0.0000  plane waves:    5772
 k-point  12 :   0.4286 0.2857 0.0000  plane waves:    5768
 k-point  13 :  -0.4286 0.2857 0.0000  plane waves:    5769
 k-point  14 :  -0.2857 0.2857 0.0000  plane waves:    5772
 k-point  15 :   0.4286 0.4286 0.0000  plane waves:    5765
 k-point  16 :  -0.4286 0.4286 0.0000  plane waves:    5760
 k-point  17 :   0.0000-0.0000 0.1250  plane waves:    5796
 k-point  18 :   0.1429 0.0000 0.1250  plane waves:    5780
 k-point  19 :   0.2857 0.0000 0.1250  plane waves:    5773
 k-point  20 :   0.4286 0.0000 0.1250  plane waves:    5768
 k-point  21 :  -0.4286 0.0000 0.1250  plane waves:    5775
 k-point  22 :  -0.2857-0.0000 0.1250  plane waves:    5786
 k-point  23 :  -0.1429-0.0000 0.1250  plane waves:    5793
 k-point  24 :   0.1429 0.1429 0.1250  plane waves:    5773
 k-point  25 :   0.2857 0.1429 0.1250  plane waves:    5771
 k-point  26 :   0.4286 0.1429 0.1250  plane waves:    5771
 k-point  27 :  -0.4286 0.1429 0.1250  plane waves:    5772
 k-point  28 :  -0.2857 0.1429 0.1250  plane waves:    5788
 k-point  29 :  -0.1429 0.1429 0.1250  plane waves:    5807
 k-point  30 :   0.2857 0.2857 0.1250  plane waves:    5763
 k-point  31 :   0.4286 0.2857 0.1250  plane waves:    5757
 k-point  32 :  -0.4286 0.2857 0.1250  plane waves:    5766
 k-point  33 :  -0.2857 0.2857 0.1250  plane waves:    5768
 k-point  34 :  -0.1429 0.2857 0.1250  plane waves:    5791
 k-point  35 :   0.4286 0.4286 0.1250  plane waves:    5753
 k-point  36 :  -0.4286 0.4286 0.1250  plane waves:    5745
 k-point  37 :  -0.2857 0.4286 0.1250  plane waves:    5768
 k-point  38 :  -0.1429 0.4286 0.1250  plane waves:    5764
 k-point  39 :  -0.4286-0.4286 0.1250  plane waves:    5746
 k-point  40 :  -0.2857-0.4286 0.1250  plane waves:    5756
 k-point  41 :  -0.1429-0.4286 0.1250  plane waves:    5768
 k-point  42 :  -0.2857-0.2857 0.1250  plane waves:    5779
 k-point  43 :  -0.1429-0.2857 0.1250  plane waves:    5772
 k-point  44 :  -0.1429-0.1429 0.1250  plane waves:    5785
 k-point  45 :   0.0000-0.0000 0.2500  plane waves:    5778
 k-point  46 :   0.1429-0.0000 0.2500  plane waves:    5762
 k-point  47 :   0.2857 0.0000 0.2500  plane waves:    5771
 k-point  48 :   0.4286-0.0000 0.2500  plane waves:    5771
 k-point  49 :  -0.4286-0.0000 0.2500  plane waves:    5778
 k-point  50 :  -0.2857 0.0000 0.2500  plane waves:    5781
 k-point  51 :  -0.1429 0.0000 0.2500  plane waves:    5780
 k-point  52 :   0.1429 0.1429 0.2500  plane waves:    5759
 k-point  53 :   0.2857 0.1429 0.2500  plane waves:    5764
 k-point  54 :   0.4286 0.1429 0.2500  plane waves:    5769
 k-point  55 :  -0.4286 0.1429 0.2500  plane waves:    5775
 k-point  56 :  -0.2857 0.1429 0.2500  plane waves:    5793
 k-point  57 :  -0.1429 0.1429 0.2500  plane waves:    5787
 k-point  58 :   0.2857 0.2857 0.2500  plane waves:    5768
 k-point  59 :   0.4286 0.2857 0.2500  plane waves:    5767
 k-point  60 :  -0.4286 0.2857 0.2500  plane waves:    5772
 k-point  61 :  -0.2857 0.2857 0.2500  plane waves:    5785
 k-point  62 :  -0.1429 0.2857 0.2500  plane waves:    5768
 k-point  63 :   0.4286 0.4286 0.2500  plane waves:    5753
 k-point  64 :  -0.4286 0.4286 0.2500  plane waves:    5767
 k-point  65 :  -0.2857 0.4286 0.2500  plane waves:    5763
 k-point  66 :  -0.1429 0.4286 0.2500  plane waves:    5768
 k-point  67 :  -0.4286-0.4286 0.2500  plane waves:    5768
 k-point  68 :  -0.2857-0.4286 0.2500  plane waves:    5767
 k-point  69 :  -0.1429-0.4286 0.2500  plane waves:    5771
 k-point  70 :  -0.2857-0.2857 0.2500  plane waves:    5766
 k-point  71 :  -0.1429-0.2857 0.2500  plane waves:    5775
 k-point  72 :  -0.1429-0.1429 0.2500  plane waves:    5779
 k-point  73 :   0.0000-0.0000 0.3750  plane waves:    5770
 k-point  74 :   0.1429 0.0000 0.3750  plane waves:    5757
 k-point  75 :   0.2857-0.0000 0.3750  plane waves:    5763
 k-point  76 :   0.4286 0.0000 0.3750  plane waves:    5765
 k-point  77 :  -0.4286-0.0000 0.3750  plane waves:    5759
 k-point  78 :  -0.2857-0.0000 0.3750  plane waves:    5772
 k-point  79 :  -0.1429-0.0000 0.3750  plane waves:    5765
 k-point  80 :   0.1429 0.1429 0.3750  plane waves:    5776
 k-point  81 :   0.2857 0.1429 0.3750  plane waves:    5764
 k-point  82 :   0.4286 0.1429 0.3750  plane waves:    5778
 k-point  83 :  -0.4286 0.1429 0.3750  plane waves:    5767
 k-point  84 :  -0.2857 0.1429 0.3750  plane waves:    5772
 k-point  85 :  -0.1429 0.1429 0.3750  plane waves:    5763
 k-point  86 :   0.2857 0.2857 0.3750  plane waves:    5785
 k-point  87 :   0.4286 0.2857 0.3750  plane waves:    5759
 k-point  88 :  -0.4286 0.2857 0.3750  plane waves:    5760
 k-point  89 :  -0.2857 0.2857 0.3750  plane waves:    5761
 k-point  90 :  -0.1429 0.2857 0.3750  plane waves:    5768
 k-point  91 :   0.4286 0.4286 0.3750  plane waves:    5774
 k-point  92 :  -0.4286 0.4286 0.3750  plane waves:    5753
 k-point  93 :  -0.2857 0.4286 0.3750  plane waves:    5762
 k-point  94 :  -0.1429 0.4286 0.3750  plane waves:    5769
 k-point  95 :  -0.4286-0.4286 0.3750  plane waves:    5767
 k-point  96 :  -0.2857-0.4286 0.3750  plane waves:    5764
 k-point  97 :  -0.1429-0.4286 0.3750  plane waves:    5765
 k-point  98 :  -0.2857-0.2857 0.3750  plane waves:    5775
 k-point  99 :  -0.1429-0.2857 0.3750  plane waves:    5781
 k-point 100 :  -0.1429-0.1429 0.3750  plane waves:    5771
 k-point 101 :   0.0000-0.0000 0.5000  plane waves:    5766
 k-point 102 :   0.1429 0.0000 0.5000  plane waves:    5765
 k-point 103 :   0.2857-0.0000 0.5000  plane waves:    5772
 k-point 104 :   0.4286-0.0000 0.5000  plane waves:    5777
 k-point 105 :   0.1429 0.1429 0.5000  plane waves:    5760
 k-point 106 :   0.2857 0.1429 0.5000  plane waves:    5772
 k-point 107 :   0.4286 0.1429 0.5000  plane waves:    5770
 k-point 108 :  -0.4286 0.1429 0.5000  plane waves:    5761
 k-point 109 :  -0.2857 0.1429 0.5000  plane waves:    5767
 k-point 110 :  -0.1429 0.1429 0.5000  plane waves:    5744
 k-point 111 :   0.2857 0.2857 0.5000  plane waves:    5763
 k-point 112 :   0.4286 0.2857 0.5000  plane waves:    5771
 k-point 113 :  -0.4286 0.2857 0.5000  plane waves:    5753
 k-point 114 :  -0.2857 0.2857 0.5000  plane waves:    5772
 k-point 115 :   0.4286 0.4286 0.5000  plane waves:    5767
 k-point 116 :  -0.4286 0.4286 0.5000  plane waves:    5748

 maximum and minimum number of plane-waves per node :      2921     2861

 maximum number of plane-waves:      5825
 maximum index in each direction: 
   IXMAX=   12   IYMAX=   12   IZMAX=   12
   IXMIN=  -12   IYMIN=  -12   IZMIN=  -12


 parallel 3D FFT for wavefunctions:
    minimum data exchange during FFTs selected (reduces bandwidth)
 parallel 3D FFT for charge:
    minimum data exchange during FFTs selected (reduces bandwidth)


 total amount of memory used by VASP MPI-rank0   402315. kBytes
=======================================================================

   base      :      30000. kBytes
   nonl-proj :     146268. kBytes
   fftplans  :      14375. kBytes
   grid      :      11100. kBytes
   one-center:        124. kBytes
   wavefun   :     200448. kBytes
 
     INWAV:  cpu time    0.0001: real time    0.0001
 Broyden mixing: mesh for mixing (old mesh)
   NGX = 25   NGY = 25   NGZ = 25
  (NGX  =100   NGY  =100   NGZ  =100)
  gives a total of  15625 points

 initial charge density was supplied:
 charge density of overlapping atoms calculated
 number of electron     116.0000000 magnetization 
 keeping initial charge density in first step


--------------------------------------------------------------------------------------------------------


 Maximum index for augmentation-charges        21438 (set IRDMAX)


--------------------------------------------------------------------------------------------------------


 First call to EWALD:  gamma=   0.318
 Maximum number of real-space cells 3x 3x 3
 Maximum number of reciprocal cells 3x 3x 3

    FEWALD:  cpu time    0.0018: real time    0.0018


--------------------------------------- Iteration      1(   1)  ---------------------------------------


    POTLOK:  cpu time    0.2076: real time    0.2097
    SETDIJ:  cpu time    0.6242: real time    0.6278
    TRIAL :  cpu time   24.0603: real time   24.2495
    CORREC:  cpu time    0.0024: real time    0.0024
    --------------------------------------------
      LOOP:  cpu time   24.9793: real time   25.1799

 eigenvalue-minimisations  : 16740
 total energy-change (2. order) : 0.1131611E+04  (-0.7754916E+04)
 number of electron     116.0000000 magnetization 
 augmentation part      116.0000000 magnetization 

 Free energy of the ion-electron system (eV)
  ---------------------------------------------------
  alpha Z        PSCENC =       664.10051527
  Ewald energy   TEWEN  =    -10082.15205654
  -Hartree energ DENC   =     -2338.83250932
  -exchange      EXHF   =         0.00000000
  -V(xc)+E(xc)   XCENC  =       521.14561245
  PAW double counting   =      9417.46121024    -9379.23717351
  entropy T*S    EENTRO =        -0.00110939
  eigenvalues    EBANDS =       379.94183359
  atomic energy  EATOM  =     11949.18504973
  ---------------------------------------------------
  free energy    TOTEN  =      1131.61137251 eV

  energy without entropy =     1131.61248190  energy(sigma->0) =     1131.61192721


--------------------------------------------------------------------------------------------------------




--------------------------------------- Iteration      1(   2)  ---------------------------------------


    TRIAL :  cpu time   26.0497: real time   26.2649
    CORREC:  cpu time    0.0019: real time    0.0019
    --------------------------------------------
      LOOP:  cpu time   26.0540: real time   26.2699

 eigenvalue-minimisations  : 18168
 total energy-change (2. order) :-0.1338124E+04  (-0.1300343E+04)
 number of electron     116.0000000 magnetization 
 augmentation part      116.0000000 magnetization 

 Free energy of the ion-electron system (eV)
  ---------------------------------------------------
  alpha Z        PSCENC =       664.10051527
  Ewald energy   TEWEN  =    -10082.15205654
  -Hartree energ DENC   =     -2338.83250932
  -exchange      EXHF   =         0.00000000
  -V(xc)+E(xc)   XCENC  =       521.14561245
  PAW double counting   =      9417.46121024    -9379.23717351
  entropy T*S    EENTRO =        -0.00120535
  eigenvalues    EBANDS =      -958.18185822
  atomic energy  EATOM  =     11949.18504973
  ---------------------------------------------------
  free energy    TOTEN  =      -206.51241526 eV

  energy without entropy =     -206.51120991  energy(sigma->0) =     -206.51181259


--------------------------------------------------------------------------------------------------------




--------------------------------------- Iteration      1(   3)  ---------------------------------------


    TRIAL :  cpu time   29.0743: real time   29.3041
    CORREC:  cpu time    0.0023: real time    0.0024
    --------------------------------------------
      LOOP:  cpu time   29.0792: real time   29.3095

 eigenvalue-minimisations  : 21876
 total energy-change (2. order) :-0.6445602E+02  (-0.6190447E+02)
 number of electron     116.0000000 magnetization 
 augmentation part      116.0000000 magnetization 

 Free energy of the ion-electron system (eV)
  ---------------------------------------------------
  alpha Z        PSCENC =       664.10051527
  Ewald energy   TEWEN  =    -10082.15205654
  -Hartree energ DENC   =     -2338.83250932
  -exchange      EXHF   =         0.00000000
  -V(xc)+E(xc)   XCENC  =       521.14561245
  PAW double counting   =      9417.46121024    -9379.23717351
  entropy T*S    EENTRO =        -0.00127164
  eigenvalues    EBANDS =     -1022.63781445
  atomic energy  EATOM  =     11949.18504973
  ---------------------------------------------------
  free energy    TOTEN  =      -270.96843778 eV

  energy without entropy =     -270.96716614  energy(sigma->0) =     -270.96780196


--------------------------------------------------------------------------------------------------------




--------------------------------------- Iteration      1(   4)  ---------------------------------------


    TRIAL :  cpu time   28.0173: real time   28.2445
    CORREC:  cpu time    0.0023: real time    0.0023
    --------------------------------------------
      LOOP:  cpu time   28.0212: real time   28.2500

 eigenvalue-minimisations  : 20940
 total energy-change (2. order) :-0.1460116E+01  (-0.1435355E+01)
 number of electron     116.0000000 magnetization 
 augmentation part      116.0000000 magnetization 

 Free energy of the ion-electron system (eV)
  ---------------------------------------------------
  alpha Z        PSCENC =       664.10051527
  Ewald energy   TEWEN  =    -10082.15205654
  -Hartree energ DENC   =     -2338.83250932
  -exchange      EXHF   =         0.00000000
  -V(xc)+E(xc)   XCENC  =       521.14561245
  PAW double counting   =      9417.46121024    -9379.23717351
  entropy T*S    EENTRO =        -0.00106469
  eigenvalues    EBANDS =     -1024.09813734
  atomic energy  EATOM  =     11949.18504973
  ---------------------------------------------------
  free energy    TOTEN  =      -272.42855372 eV

  energy without entropy =     -272.42748903  energy(sigma->0) =     -272.42802137


--------------------------------------------------------------------------------------------------------




--------------------------------------- Iteration      1(   5)  ---------------------------------------


    TRIAL :  cpu time   27.7572: real time   27.9797
    CORREC:  cpu time    0.0023: real time    0.0023
    CHARGE:  cpu time    2.0292: real time    2.0438
    --------------------------------------------
      LOOP:  cpu time   29.7911: real time   30.0287

 eigenvalue-minimisations  : 20364
 total energy-change (2. order) :-0.2315764E-01  (-0.2308571E-01)
 number of electron     116.0000001 magnetization 
 augmentation part       11.8044250 magnetization 

 Free energy of the ion-electron system (eV)
  ---------------------------------------------------
  alpha Z        PSCENC =       664.10051527
  Ewald energy   TEWEN  =    -10082.15205654
  -Hartree energ DENC   =     -2338.83250932
  -exchange      EXHF   =         0.00000000
  -V(xc)+E(xc)   XCENC  =       521.14561245
  PAW double counting   =      9417.46121024    -9379.23717351
  entropy T*S    EENTRO =        -0.00105365
  eigenvalues    EBANDS =     -1024.12130602
  atomic energy  EATOM  =     11949.18504973
  ---------------------------------------------------
  free energy    TOTEN  =      -272.45171136 eV

  energy without entropy =     -272.45065771  energy(sigma->0) =     -272.45118453


--------------------------------------------------------------------------------------------------------




--------------------------------------- Iteration      1(   6)  ---------------------------------------


    POTLOK:  cpu time    0.1210: real time    0.1220
    SETDIJ:  cpu time    0.6477: real time    0.6519
    TRIAL :  cpu time   18.7608: real time   18.9067
    CORREC:  cpu time    6.7550: real time    6.8041
    CHARGE:  cpu time    2.0127: real time    2.0264
    --------------------------------------------
      LOOP:  cpu time   28.3007: real time   28.5150

 eigenvalue-minimisations  :     0
 total energy-change (2. order) : 0.7588804E+02  (-0.2288039E+02)
 number of electron     116.0000001 magnetization 
 augmentation part       14.2862335 magnetization 

 Free energy of the ion-electron system (eV)
  ---------------------------------------------------
  alpha Z        PSCENC =       664.10051527
  Ewald energy   TEWEN  =    -10082.15205654
  -Hartree energ DENC   =     -1801.47675894
  -exchange      EXHF   =         0.00000000
  -V(xc)+E(xc)   XCENC  =       515.43604637
  PAW double counting   =     15338.01468827   -15344.66194442
  entropy T*S    EENTRO =        -0.00147401
  eigenvalues    EBANDS =     -1435.00816093
  atomic energy  EATOM  =     11949.18504973
  ---------------------------------------------------
  free energy    TOTEN  =      -196.56367485 eV

  energy without entropy =     -196.56220085  energy(sigma->0) =     -196.56293785


--------------------------------------------------------------------------------------------------------




--------------------------------------- Iteration      1(   7)  ---------------------------------------


    POTLOK:  cpu time    0.1203: real time    0.1211
    SETDIJ:  cpu time    0.6396: real time    0.6435
    TRIAL :  cpu time   19.5216: real time   19.6742
    CORREC:  cpu time    6.8688: real time    6.9180
    CHARGE:  cpu time    2.0046: real time    2.0169
    --------------------------------------------
      LOOP:  cpu time   29.1568: real time   29.3769

 eigenvalue-minimisations  :     0
 total energy-change (2. order) :-0.2323604E+02  (-0.4000594E+01)
 number of electron     116.0000001 magnetization 
 augmentation part       14.2585155 magnetization 

 Free energy of the ion-electron system (eV)
  ---------------------------------------------------
  alpha Z        PSCENC =       664.10051527
  Ewald energy   TEWEN  =    -10082.15205654
  -Hartree energ DENC   =     -2097.26658018
  -exchange      EXHF   =         0.00000000
  -V(xc)+E(xc)   XCENC  =       528.12544002
  PAW double counting   =     14650.18511943   -14638.70472742
  entropy T*S    EENTRO =        -0.00212044
  eigenvalues    EBANDS =     -1193.27099701
  atomic energy  EATOM  =     11949.18504973
  ---------------------------------------------------
  free energy    TOTEN  =      -219.79971070 eV

  energy without entropy =     -219.79759026  energy(sigma->0) =     -219.79865048


--------------------------------------------------------------------------------------------------------




--------------------------------------- Iteration      1(   8)  ---------------------------------------


    POTLOK:  cpu time    0.1222: real time    0.1230
    SETDIJ:  cpu time    0.6422: real time    0.6459
    TRIAL :  cpu time   19.3249: real time   19.4711
    CORREC:  cpu time    6.8495: real time    6.8990
    CHARGE:  cpu time    2.0326: real time    2.0456
    --------------------------------------------
      LOOP:  cpu time   28.9727: real time   29.1870

 eigenvalue-minimisations  :     0
 total energy-change (2. order) :-0.3999651E+01  (-0.1114258E+01)
 number of electron     116.0000001 magnetization 
 augmentation part       14.1849150 magnetization 

 Free energy of the ion-electron system (eV)
  ---------------------------------------------------
  alpha Z        PSCENC =       664.10051527
  Ewald energy   TEWEN  =    -10082.15205654
  -Hartree energ DENC   =     -2164.52347931
  -exchange      EXHF   =         0.00000000
  -V(xc)+E(xc)   XCENC  =       530.70120190
  PAW double counting   =     14521.58683745   -14504.76930936
  entropy T*S    EENTRO =        -0.00202220
  eigenvalues    EBANDS =     -1137.92600037
  atomic energy  EATOM  =     11949.18504973
  ---------------------------------------------------
  free energy    TOTEN  =      -223.79936167 eV

  energy without entropy =     -223.79733947  energy(sigma->0) =     -223.79835057


--------------------------------------------------------------------------------------------------------




--------------------------------------- Iteration      1(   9)  ---------------------------------------


    POTLOK:  cpu time    0.1184: real time    0.1191
    SETDIJ:  cpu time    0.6390: real time    0.6432
    TRIAL :  cpu time   18.6688: real time   18.8128
    CORREC:  cpu time    6.8540: real time    6.8990
    CHARGE:  cpu time    2.0134: real time    2.0265
    --------------------------------------------
      LOOP:  cpu time   28.2945: real time   28.5022

 eigenvalue-minimisations  :     0
 total energy-change (2. order) :-0.1114136E+01  (-0.3366421E+00)
 number of electron     116.0000002 magnetization 
 augmentation part       14.2229475 magnetization 

 Free energy of the ion-electron system (eV)
  ---------------------------------------------------
  alpha Z        PSCENC =       664.10051527
  Ewald energy   TEWEN  =    -10082.15205654
  -Hartree energ DENC   =     -2173.99458922
  -exchange      EXHF   =         0.00000000
  -V(xc)+E(xc)   XCENC  =       531.11818504
  PAW double counting   =     14527.46148866   -14507.47934159
  entropy T*S    EENTRO =        -0.00200208
  eigenvalues    EBANDS =     -1133.15072693
  atomic energy  EATOM  =     11949.18504973
  ---------------------------------------------------
  free energy    TOTEN  =      -224.91349779 eV

  energy without entropy =     -224.91149571  energy(sigma->0) =     -224.91249675


--------------------------------------------------------------------------------------------------------




[...]
     32       3.5485      2.00000
     33       3.6536      2.00000
     34       4.2929      2.00000
     35       5.4768      2.00000
     36       5.5475      2.00000
     37       5.8351      2.00000
     38       5.9451      2.00000
     39       5.9704      2.00000
     40       5.9714      2.00000
     41       6.3507      2.00000
     42       6.3556      2.00000
     43       6.4218      2.00000
     44       6.6011      2.00000
     45       6.7261      2.00000
     46       7.2903      2.00000
     47       7.4246      2.00000
     48       7.4768      2.00000
     49       7.9884      2.00000
     50       8.6218      2.00000
     51       9.3606      2.00000
     52       9.4411      2.00000
     53      10.0700      2.00000
     54      10.1509      2.00000
     55      10.9632      2.00000
     56      11.0151      2.00000
     57      11.1859      2.00000
     58      11.4195      2.00000
     59      11.5897      0.00000
     60      11.7258      0.00000
     61      12.0961      0.00000
     62      12.2495      0.00000
     63      12.2756      0.00000
     64      12.5149      0.00000
     65      13.1875      0.00000
     66      13.5451      0.00000
     67      13.6869      0.00000
     68      13.7838      0.00000
     69      13.9811      0.00000
     70      14.0142      0.00000
     71      14.1105      0.00000
     72      15.0020      0.00000

 k-point   111 :       0.2857    0.2857    0.5000
  band No.  band energies     occupation 
      1     -52.0626      2.00000
      2     -52.0620      2.00000
      3     -51.9165      2.00000
      4     -51.9088      2.00000
      5     -51.7446      2.00000
      6     -51.7436      2.00000
      7     -25.9148      2.00000
      8     -25.8964      2.00000
      9     -25.7800      2.00000
     10     -25.7209      2.00000
     11     -25.5485      2.00000
     12     -25.5410      2.00000
     13     -25.5262      2.00000
     14     -25.5088      2.00000
     15     -25.3936      2.00000
     16     -25.3714      2.00000
     17     -25.3541      2.00000
     18     -25.3329      2.00000
     19     -25.2584      2.00000
     20     -25.2361      2.00000
     21     -25.2205      2.00000
     22     -25.1941      2.00000
     23     -24.6528      2.00000
     24     -24.6506      2.00000
     25      -1.6968      2.00000
     26      -0.2896      2.00000
     27       0.1535      2.00000
     28       1.1055      2.00000
     29       1.4402      2.00000
     30       1.7493      2.00000
     31       2.0273      2.00000
     32       3.6561      2.00000
     33       4.2660      2.00000
     34       4.2910      2.00000
     35       4.9298      2.00000
     36       5.0465      2.00000
     37       5.5557      2.00000
     38       5.8101      2.00000
     39       6.1138      2.00000
     40       6.1336      2.00000
     41       6.5036      2.00000
     42       6.5867      2.00000
     43       6.8974      2.00000
     44       6.9584      2.00000
     45       7.0999      2.00000
     46       7.2838      2.00000
     47       7.6937      2.00000
     48       7.7245      2.00000
     49       8.1091      2.00000
     50       8.5613      2.00000
     51       8.6597      2.00000
     52       9.0130      2.00000
     53       9.5332      2.00000
     54      10.6474      2.00000
     55      10.8221      2.00000
     56      10.8381      2.00000
     57      11.1256      2.00000
     58      11.4537      1.98481
     59      11.5096      0.12711
     60      11.7132      0.00000
     61      11.7826      0.00000
     62      11.9798      0.00000
     63      12.3106      0.00000
     64      12.5426      0.00000
     65      12.6688      0.00000
     66      12.7614      0.00000
     67      13.0810      0.00000
     68      13.7221      0.00000
     69      13.8446      0.00000
     70      14.1916      0.00000
     71      14.3853      0.00000
     72      14.7545      0.00000

 k-point   112 :       0.4286    0.2857    0.5000
  band No.  band energies     occupation 
      1     -52.0623      2.00000
      2     -52.0619      2.00000
      3     -51.9179      2.00000
      4     -51.9078      2.00000
      5     -51.7446      2.00000
      6     -51.7436      2.00000
      7     -25.9224      2.00000
      8     -25.8815      2.00000
      9     -25.7839      2.00000
     10     -25.7069      2.00000
     11     -25.5442      2.00000
     12     -25.5373      2.00000
     13     -25.5153      2.00000
     14     -25.5070      2.00000
     15     -25.3973      2.00000
     16     -25.3807      2.00000
     17     -25.3599      2.00000
     18     -25.3416      2.00000
     19     -25.2632      2.00000
     20     -25.2405      2.00000
     21     -25.2297      2.00000
     22     -25.1902      2.00000
     23     -24.6507      2.00000
     24     -24.6504      2.00000
     25      -1.5904      2.00000
     26      -0.3935      2.00000
     27       0.5187      2.00000
     28       1.0761      2.00000
     29       1.2012      2.00000
     30       1.5695      2.00000
     31       1.7930      2.00000
     32       3.4971      2.00000
     33       4.4733      2.00000
     34       4.5876      2.00000
     35       5.0232      2.00000
     36       5.3974      2.00000
     37       5.4543      2.00000
     38       5.6463      2.00000
     39       5.9663      2.00000
     40       6.1833      2.00000
     41       6.3294      2.00000
     42       6.6042      2.00000
     43       6.8378      2.00000
     44       6.9489      2.00000
     45       7.0087      2.00000
     46       7.2611      2.00000
     47       7.4780      2.00000
     48       7.6411      2.00000
     49       8.3973      2.00000
     50       8.6624      2.00000
     51       8.8506      2.00000
     52       9.1979      2.00000
     53       9.4356      2.00000
     54      10.3086      2.00000
     55      11.1079      2.00000
     56      11.2888      2.00000
     57      11.3185      2.00000
     58      11.4836      1.24802
     59      11.6515      0.00000
     60      11.7513      0.00000
     61      11.9177      0.00000
     62      12.1769      0.00000
     63      12.2074      0.00000
     64      12.3157      0.00000
     65      12.4175      0.00000
     66      12.5297      0.00000
     67      13.1333      0.00000
     68      13.5806      0.00000
     69      13.8032      0.00000
     70      14.1508      0.00000
     71      14.2305      0.00000
     72      14.7335      0.00000

 k-point   113 :      -0.4286    0.2857    0.5000
  band No.  band energies     occupation 
      1     -52.0626      2.00000
      2     -52.0612      2.00000
      3     -51.9183      2.00000
      4     -51.9078      2.00000
      5     -51.7447      2.00000
      6     -51.7436      2.00000
      7     -25.9273      2.00000
      8     -25.8707      2.00000
      9     -25.7839      2.00000
     10     -25.7033      2.00000
     11     -25.5368      2.00000
     12     -25.5302      2.00000
     13     -25.5184      2.00000
     14     -25.5080      2.00000
     15     -25.3953      2.00000
     16     -25.3815      2.00000
     17     -25.3677      2.00000
     18     -25.3444      2.00000
     19     -25.2618      2.00000
     20     -25.2469      2.00000
     21     -25.2364      2.00000
     22     -25.1906      2.00000
     23     -24.6512      2.00000
     24     -24.6493      2.00000
     25      -1.3859      2.00000
     26      -0.4741      2.00000
     27       0.4325      2.00000
     28       1.0308      2.00000
     29       1.1185      2.00000
     30       1.5507      2.00000
     31       1.7145      2.00000
     32       3.4473      2.00000
     33       4.5625      2.00000
     34       4.7017      2.00000
     35       5.1213      2.00000
     36       5.4129      2.00000
     37       5.4783      2.00000
     38       5.7889      2.00000
     39       6.1188      2.00000
     40       6.1668      2.00000
     41       6.3108      2.00000
     42       6.4854      2.00000
     43       6.7475      2.00000
     44       6.7826      2.00000
     45       6.9279      2.00000
     46       6.9684      2.00000
     47       7.3889      2.00000
     48       7.6695      2.00000
     49       8.4120      2.00000
     50       8.7580      2.00000
     51       8.9210      2.00000
     52       9.3060      2.00000
     53       9.5402      2.00000
     54      10.5073      2.00000
     55      11.2204      2.00000
     56      11.3096      2.00000
     57      11.4981      0.47680
     58      11.6007      0.00000
     59      11.6198      0.00000
     60      11.8172      0.00000
     61      11.9665      0.00000
     62      12.1204      0.00000
     63      12.1946      0.00000
     64      12.2689      0.00000
     65      12.4453      0.00000
     66      12.7429      0.00000
     67      13.1089      0.00000
     68      13.4727      0.00000
     69      13.7376      0.00000
     70      14.1661      0.00000
     71      14.2267      0.00000
     72      14.8555      0.00000

 k-point   114 :      -0.2857    0.2857    0.5000
  band No.  band energies     occupation 
      1     -52.0628      2.00000
      2     -52.0609      2.00000
      3     -51.9174      2.00000
      4     -51.9088      2.00000
      5     -51.7447      2.00000
      6     -51.7434      2.00000
      7     -25.9303      2.00000
      8     -25.8685      2.00000
      9     -25.7796      2.00000
     10     -25.7124      2.00000
     11     -25.5501      2.00000
     12     -25.5312      2.00000
     13     -25.5119      2.00000
     14     -25.5022      2.00000
     15     -25.3947      2.00000
     16     -25.3762      2.00000
     17     -25.3674      2.00000
     18     -25.3454      2.00000
     19     -25.2474      2.00000
     20     -25.2449      2.00000
     21     -25.2432      2.00000
     22     -25.1964      2.00000
     23     -24.6522      2.00000
     24     -24.6496      2.00000
     25      -1.1767      2.00000
     26      -0.5090      2.00000
     27      -0.1377      2.00000
     28       1.1724      2.00000
     29       1.4217      2.00000
     30       1.4741      2.00000
     31       1.8160      2.00000
     32       3.4974      2.00000
     33       4.3679      2.00000
     34       4.3692      2.00000
     35       5.3381      2.00000
     36       5.7046      2.00000
     37       5.7051      2.00000
     38       5.8878      2.00000
     39       6.1544      2.00000
     40       6.1589      2.00000
     41       6.1755      2.00000
     42       6.3602      2.00000
     43       6.4662      2.00000
     44       6.7025      2.00000
     45       7.0705      2.00000
     46       7.0951      2.00000
     47       7.2167      2.00000
     48       7.6227      2.00000
     49       8.1001      2.00000
     50       8.8310      2.00000
     51       8.9279      2.00000
     52       9.2982      2.00000
     53       9.7153      2.00000
     54      10.8966      2.00000
     55      11.0858      2.00000
     56      11.3287      2.00000
     57      11.4817      1.34587
     58      11.5618      0.00000
     59      11.5692      0.00000
     60      11.8377      0.00000
     61      11.9462      0.00000
     62      11.9657      0.00000
     63      12.1332      0.00000
     64      12.2655      0.00000
     65      12.4813      0.00000
     66      13.2179      0.00000
     67      13.2240      0.00000
     68      13.7777      0.00000
     69      13.8103      0.00000
     70      13.9701      0.00000
     71      14.4868      0.00000
     72      14.9500      0.00000

 k-point   115 :       0.4286    0.4286    0.5000
  band No.  band energies     occupation 
      1     -52.0624      2.00000
      2     -52.0613      2.00000
      3     -51.9196      2.00000
      4     -51.9065      2.00000
      5     -51.7447      2.00000
      6     -51.7437      2.00000
      7     -25.9248      2.00000
      8     -25.8686      2.00000
      9     -25.7881      2.00000
     10     -25.6903      2.00000
     11     -25.5354      2.00000
     12     -25.5342      2.00000
     13     -25.5093      2.00000
     14     -25.5032      2.00000
     15     -25.4120      2.00000
     16     -25.3850      2.00000
     17     -25.3565      2.00000
     18     -25.3518      2.00000
     19     -25.2804      2.00000
     20     -25.2420      2.00000
     21     -25.2419      2.00000
     22     -25.1839      2.00000
     23     -24.6489      2.00000
     24     -24.6485      2.00000
     25      -1.5188      2.00000
     26      -0.0095      2.00000
     27       0.5101      2.00000
     28       0.9118      2.00000
     29       0.9650      2.00000
     30       1.1321      2.00000
     31       1.7625      2.00000
     32       4.0086      2.00000
     33       4.4146      2.00000
     34       4.8724      2.00000
     35       5.0783      2.00000
     36       5.1370      2.00000
     37       5.3712      2.00000
     38       5.7264      2.00000
     39       6.1168      2.00000
     40       6.1721      2.00000
     41       6.2630      2.00000
     42       6.5583      2.00000
     43       6.5931      2.00000
     44       6.8017      2.00000
     45       6.8653      2.00000
     46       6.9309      2.00000
     47       7.6681      2.00000
     48       7.6810      2.00000
     49       8.4697      2.00000
     50       8.8852      2.00000
     51       8.9711      2.00000
     52       9.2110      2.00000
     53       9.8452      2.00000
     54      10.3187      2.00000
     55      11.0478      2.00000
     56      11.3997      2.00000
     57      11.4910      0.83590
     58      11.5467      0.00003
     59      11.7768      0.00000
     60      11.9087      0.00000
     61      12.0622      0.00000
     62      12.0865      0.00000
     63      12.1198      0.00000
     64      12.2875      0.00000
     65      12.3719      0.00000
     66      12.6670      0.00000
     67      13.0559      0.00000
     68      13.5622      0.00000
     69      13.6738      0.00000
     70      13.8985      0.00000
     71      14.1301      0.00000
     72      14.8032      0.00000

 k-point   116 :      -0.4286    0.4286    0.5000
  band No.  band energies     occupation 
      1     -52.0625      2.00000
      2     -52.0610      2.00000
      3     -51.9197      2.00000
      4     -51.9065      2.00000
      5     -51.7447      2.00000
      6     -51.7437      2.00000
      7     -25.9262      2.00000
      8     -25.8644      2.00000
      9     -25.7881      2.00000
     10     -25.6889      2.00000
     11     -25.5306      2.00000
     12     -25.5276      2.00000
     13     -25.5139      2.00000
     14     -25.5057      2.00000
     15     -25.4133      2.00000
     16     -25.3849      2.00000
     17     -25.3584      2.00000
     18     -25.3510      2.00000
     19     -25.2820      2.00000
     20     -25.2452      2.00000
     21     -25.2440      2.00000
     22     -25.1839      2.00000
     23     -24.6492      2.00000
     24     -24.6479      2.00000
     25      -1.4337      2.00000
     26      -0.0273      2.00000
     27       0.4756      2.00000
     28       0.8706      2.00000
     29       0.9442      2.00000
     30       1.0888      2.00000
     31       1.7533      2.00000
     32       3.9977      2.00000
     33       4.4253      2.00000
     34       4.9249      2.00000
     35       5.1251      2.00000
     36       5.1337      2.00000
     37       5.4020      2.00000
     38       5.9833      2.00000
     39       6.1187      2.00000
     40       6.1537      2.00000
     41       6.2405      2.00000
     42       6.2932      2.00000
     43       6.5570      2.00000
     44       6.7787      2.00000
     45       6.8270      2.00000
     46       6.8704      2.00000
     47       7.6461      2.00000
     48       7.7230      2.00000
     49       8.4817      2.00000
     50       8.9022      2.00000
     51       8.9829      2.00000
     52       9.1910      2.00000
     53       9.9416      2.00000
     54      10.4234      2.00000
     55      11.1245      2.00000
     56      11.4263      1.99999
     57      11.4811      1.37780
     58      11.4947      0.63685
     59      11.7481      0.00000
     60      11.8963      0.00000
     61      12.0159      0.00000
     62      12.1946      0.00000
     63      12.2000      0.00000
     64      12.3185      0.00000
     65      12.4806      0.00000
     66      12.8279      0.00000
     67      12.9259      0.00000
     68      13.5510      0.00000
     69      13.5585      0.00000
     70      13.8642      0.00000
     71      14.1008      0.00000
     72      14.6629      0.00000


--------------------------------------------------------------------------------------------------------


 soft charge-density along one line, spin component           1
         0         1         2         3         4         5         6         7         8         9
 total charge-density along one line
 
 pseudopotential strength for first ion, spin component:           1
  5.860   8.872   0.000   0.000   0.000   0.002   0.002   0.001
  8.872  13.423   0.001   0.001   0.001   0.003   0.003   0.002
  0.000   0.001  -1.937  -0.001  -0.001  -3.220  -0.003  -0.002
  0.000   0.001  -0.001  -1.935  -0.001  -0.003  -3.215  -0.002
  0.000   0.001  -0.001  -0.001  -1.936  -0.002  -0.002  -3.218
  0.002   0.003  -3.220  -0.003  -0.002  -5.139  -0.005  -0.004
  0.002   0.003  -0.003  -3.215  -0.002  -0.005  -5.130  -0.004
  0.001   0.002  -0.002  -0.002  -3.218  -0.004  -0.004  -5.136
 total augmentation occupancy for first ion, spin component:           1
  3.091  -0.773  -0.272  -0.035  -0.189   0.101   0.002   0.070
 -0.773   0.208   0.101  -0.009   0.070  -0.034   0.005  -0.024
 -0.272   0.101   2.493   0.176   0.061  -0.643  -0.060  -0.018
 -0.035  -0.009   0.176   2.242   0.122  -0.060  -0.571  -0.041
 -0.189   0.070   0.061   0.122   2.448  -0.018  -0.041  -0.630
  0.101  -0.034  -0.643  -0.060  -0.018   0.171   0.020   0.006
  0.002   0.005  -0.060  -0.571  -0.041   0.020   0.151   0.014
  0.070  -0.024  -0.018  -0.041  -0.630   0.006   0.014   0.167


------------------------ aborting loop because EDIFF is reached ----------------------------------------




--------------------------------------------------------------------------------------------------------



  FREE ENERGIE OF THE ION-ELECTRON SYSTEM (eV)
  ---------------------------------------------------
  free  energy   TOTEN  =      -225.45087893 eV

  energy  without entropy=     -225.44834792  energy(sigma->0) =     -225.44961342
 


--------------------------------------------------------------------------------------------------------


    POTLOK:  cpu time    0.8157: real time    0.8214


--------------------------------------------------------------------------------------------------------


 writing wavefunctions
     LOOP+:  cpu time 1057.9409: real time 1065.9765
    4ORBIT:  cpu time    0.0000: real time    0.0000

 total amount of memory used by VASP MPI-rank0   402315. kBytes
=======================================================================

   base      :      30000. kBytes
   nonl-proj :     146268. kBytes
   fftplans  :      14375. kBytes
   grid      :      11100. kBytes
   one-center:        124. kBytes
   wavefun   :     200448. kBytes
 
  
  
 General timing and accounting informations for this job:
 ========================================================
  
                  Total CPU time used (sec):     1063.292
                            User time (sec):     1058.894
                          System time (sec):        4.398
                         Elapsed time (sec):     1072.229
  
                   Maximum memory used (kb):      610212.
                   Average memory used (kb):          N/A
  
                          Minor page faults:      1640249
                          Major page faults:           46
                 Voluntary context switches:         1205
