<?xml version="1.0" encoding="ISO-8859-1"?>
<modeling>
 <generator>
  <i name="program" type="string">vasp </i>
  <i name="version" type="string">6.2.0  </i>
  <i name="subversion" type="string">18Jan21 (build Jan 05 2022 15:41:44) complex                          parallel </i>
  <i name="platform" type="string">LinuxIFC </i>
  <i name="date" type="string">2025 05 07 </i>
  <i name="time" type="string">21:26:59 </i>
 </generator>
 <incar>
  <i type="string" name="SYSTEM">routine with relax: pwdword</i>
  <i type="string" name="PREC">Acc</i>
  <i type="int" name="IALGO">    38</i>
  <i type="string" name="ALGO">A</i>
  <i type="logical" name="ADDGRID"> T  </i>
  <i type="int" name="ICHARG">     2</i>
  <i type="int" name="NELM">   100</i>
  <i type="int" name="NELMIN">     6</i>
  <i name="EDIFF">      0.00000000</i>
  <i type="int" name="NSW">     0</i>
  <i type="int" name="ISIF">    -1</i>
  <i name="ENCUT">    600.00000000</i>
  <i type="logical" name="LREAL"> F  </i>
  <i type="int" name="ISMEAR">     0</i>
  <i name="SIGMA">      0.02000000</i>
  <i type="logical" name="LASPH"> T  </i>
  <i type="string" name="METAGGA">R2SCAN</i>
  <i type="logical" name="LMIXTAU"> F  </i>
 </incar>
 <primitive_cell>
  <structure name="primitive_cell" >
   <crystal>
    <varray name="basis" >
     <v>       2.50641300      -4.34123400       0.00000000 </v>
     <v>       2.50641300       4.34123400       0.00000000 </v>
     <v>       0.00000000       0.00000000       4.45324400 </v>
    </varray>
    <i name="volume">     96.91083091 </i>
    <varray name="rec_basis" >
     <v>       0.19948827      -0.11517463       0.00000000 </v>
     <v>       0.19948827       0.11517463       0.00000000 </v>
     <v>       0.00000000       0.00000000       0.22455540 </v>
    </varray>
   </crystal>
   <varray name="positions" >
    <v>       0.33333300       0.66666700       0.75000000 </v>
    <v>       0.66666700       0.33333300       0.25000000 </v>
    <v>       0.16913800       0.33827500       0.25000000 </v>
    <v>       0.66172500       0.83086200       0.25000000 </v>
    <v>       0.16913800       0.83086200       0.25000000 </v>
    <v>       0.83086200       0.66172500       0.75000000 </v>
    <v>       0.33827500       0.16913800       0.75000000 </v>
    <v>       0.83086200       0.16913800       0.75000000 </v>
   </varray>
  </structure>
  <varray name="primitive_index" >
   <v type="int" >        1 </v>
   <v type="int" >        2 </v>
   <v type="int" >        3 </v>
   <v type="int" >        4 </v>
   <v type="int" >        5 </v>
   <v type="int" >        6 </v>
   <v type="int" >        7 </v>
   <v type="int" >        8 </v>
  </varray>
 </primitive_cell>
 <kpoints>
  <generation param="Gamma">
   <v type="int" name="divisions">       8        8        8 </v>
   <v name="usershift">      0.00000000       0.00000000       0.00000000 </v>
   <v name="genvec1">      0.12500000       0.00000000       0.00000000 </v>
   <v name="genvec2">      0.00000000       0.12500000       0.00000000 </v>
   <v name="genvec3">      0.00000000       0.00000000       0.12500000 </v>
   <v name="shift">      0.00000000       0.00000000       0.00000000 </v>
  </generation>
  <varray name="kpointlist" >
   <v>       0.00000000       0.00000000       0.00000000 </v>
   <v>       0.12500000       0.00000000       0.00000000 </v>
   <v>       0.25000000       0.00000000       0.00000000 </v>
   <v>       0.37500000      -0.00000000       0.00000000 </v>
   <v>       0.50000000       0.00000000       0.00000000 </v>
   <v>       0.12500000       0.12500000       0.00000000 </v>
   <v>       0.25000000       0.12500000       0.00000000 </v>
   <v>       0.37500000       0.12500000       0.00000000 </v>
   <v>       0.25000000       0.25000000       0.00000000 </v>
   <v>       0.37500000       0.25000000       0.00000000 </v>
   <v>       0.00000000       0.00000000       0.12500000 </v>
   <v>       0.12500000       0.00000000       0.12500000 </v>
   <v>       0.25000000       0.00000000       0.12500000 </v>
   <v>       0.37500000      -0.00000000       0.12500000 </v>
   <v>       0.50000000       0.00000000       0.12500000 </v>
   <v>       0.12500000       0.12500000       0.12500000 </v>
   <v>       0.25000000       0.12500000       0.12500000 </v>
   <v>       0.37500000       0.12500000       0.12500000 </v>
   <v>       0.25000000       0.25000000       0.12500000 </v>
   <v>       0.37500000       0.25000000       0.12500000 </v>
   <v>       0.00000000       0.00000000       0.25000000 </v>
   <v>       0.12500000       0.00000000       0.25000000 </v>
   <v>       0.25000000       0.00000000       0.25000000 </v>
   <v>       0.37500000      -0.00000000       0.25000000 </v>
   <v>       0.50000000       0.00000000       0.25000000 </v>
   <v>       0.12500000       0.12500000       0.25000000 </v>
   <v>       0.25000000       0.12500000       0.25000000 </v>
   <v>       0.37500000       0.12500000       0.25000000 </v>
   <v>       0.25000000       0.25000000       0.25000000 </v>
   <v>       0.37500000       0.25000000       0.25000000 </v>
   <v>       0.00000000       0.00000000       0.37500000 </v>
   <v>       0.12500000       0.00000000       0.37500000 </v>
   <v>       0.25000000       0.00000000       0.37500000 </v>
   <v>       0.37500000      -0.00000000       0.37500000 </v>
   <v>       0.50000000       0.00000000       0.37500000 </v>
   <v>       0.12500000       0.12500000       0.37500000 </v>
   <v>       0.25000000       0.12500000       0.37500000 </v>
   <v>       0.37500000       0.12500000       0.37500000 </v>
   <v>       0.25000000       0.25000000       0.37500000 </v>
   <v>       0.37500000       0.25000000       0.37500000 </v>
   <v>       0.00000000       0.00000000       0.50000000 </v>
   <v>       0.12500000       0.00000000       0.50000000 </v>
   <v>       0.25000000       0.00000000       0.50000000 </v>
   <v>       0.37500000      -0.00000000       0.50000000 </v>
   <v>       0.50000000       0.00000000       0.50000000 </v>
   <v>       0.12500000       0.12500000       0.50000000 </v>
   <v>       0.25000000       0.12500000       0.50000000 </v>
   <v>       0.37500000       0.12500000       0.50000000 </v>
   <v>       0.25000000       0.25000000       0.50000000 </v>
   <v>       0.37500000       0.25000000       0.50000000 </v>
  </varray>
  <varray name="weights" >
   <v>       0.00195312 </v>
   <v>       0.01171875 </v>
   <v>       0.01171875 </v>
   <v>       0.01171875 </v>
   <v>       0.00585938 </v>
   <v>       0.01171875 </v>
   <v>       0.02343750 </v>
   <v>       0.02343750 </v>
   <v>       0.01171875 </v>
   <v>       0.01171875 </v>
   <v>       0.00390625 </v>
   <v>       0.02343750 </v>
   <v>       0.02343750 </v>
   <v>       0.02343750 </v>
   <v>       0.01171875 </v>
   <v>       0.02343750 </v>
   <v>       0.04687500 </v>
   <v>       0.04687500 </v>
   <v>       0.02343750 </v>
   <v>       0.02343750 </v>
   <v>       0.00390625 </v>
   <v>       0.02343750 </v>
   <v>       0.02343750 </v>
   <v>       0.02343750 </v>
   <v>       0.01171875 </v>
   <v>       0.02343750 </v>
   <v>       0.04687500 </v>
   <v>       0.04687500 </v>
   <v>       0.02343750 </v>
   <v>       0.02343750 </v>
   <v>       0.00390625 </v>
   <v>       0.02343750 </v>
   <v>       0.02343750 </v>
   <v>       0.02343750 </v>
   <v>       0.01171875 </v>
   <v>       0.02343750 </v>
   <v>       0.04687500 </v>
   <v>       0.04687500 </v>
   <v>       0.02343750 </v>
   <v>       0.02343750 </v>
   <v>       0.00195312 </v>
   <v>       0.01171875 </v>
   <v>       0.01171875 </v>
   <v>       0.01171875 </v>
   <v>       0.00585938 </v>
   <v>       0.01171875 </v>
   <v>       0.02343750 </v>
   <v>       0.02343750 </v>
   <v>       0.01171875 </v>
   <v>       0.01171875 </v>
  </varray>
 </kpoints>
 <parameters>
  <separator name="general" >
   <i type="string" name="SYSTEM">routine with relax: pwdword</i>
   <i type="logical" name="LCOMPAT"> F  </i>
  </separator>
  <separator name="electronic" >
   <i type="string" name="PREC">acc</i>
   <i name="ENMAX">    600.00000000</i>
   <i name="ENAUG">    535.51400000</i>
   <i name="EDIFF">      0.00000000</i>
   <i type="int" name="IALGO">    58</i>
   <i type="int" name="IWAVPR">    10</i>
   <i type="int" name="NBANDS">    24</i>
   <i type="int" name="NBANDSLOW">    -1</i>
   <i type="int" name="NBANDSHIGH">    -1</i>
   <i name="NELECT">     30.00000000</i>
   <i type="int" name="TURBO">     0</i>
   <i type="int" name="IRESTART">     0</i>
   <i type="int" name="NREBOOT">     0</i>
   <i type="int" name="NMIN">     0</i>
   <i name="EREF">      0.00000000</i>
   <separator name="electronic smearing" >
    <i type="int" name="ISMEAR">     0</i>
    <i name="SIGMA">      0.02000000</i>
    <i name="KSPACING">      0.50000000</i>
    <i type="logical" name="KGAMMA"> T  </i>
    <i type="logical" name="KBLOWUP"> T  </i>
   </separator>
   <separator name="electronic projectors" >
    <i type="logical" name="LREAL"> F  </i>
    <v name="ROPT">      0.00000000      0.00000000</v>
    <i type="int" name="LMAXPAW">  -100</i>
    <i type="int" name="LMAXMIX">     2</i>
    <i type="logical" name="NLSPLINE"> F  </i>
   </separator>
   <separator name="electronic startup" >
    <i type="int" name="ISTART">     0</i>
    <i type="int" name="ICHARG">     2</i>
    <i type="int" name="INIWAV">     1</i>
   </separator>
   <separator name="electronic spin" >
    <i type="int" name="ISPIN">     1</i>
    <i type="logical" name="LNONCOLLINEAR"> F  </i>
    <v name="MAGMOM">      1.00000000      1.00000000      1.00000000      1.00000000      1.00000000      1.00000000      1.00000000      1.00000000</v>
    <i name="NUPDOWN">     -1.00000000</i>
    <i type="logical" name="LSORBIT"> F  </i>
    <v name="SAXIS">      0.00000000      0.00000000      1.00000000</v>
    <i type="logical" name="LSPIRAL"> F  </i>
    <v name="QSPIRAL">      0.00000000      0.00000000      0.00000000</v>
    <i type="logical" name="LZEROZ"> F  </i>
   </separator>
   <separator name="electronic exchange-correlation" >
    <i type="logical" name="LASPH"> T  </i>
    <i type="logical" name="LMETAGGA"> F  </i>
   </separator>
   <separator name="electronic convergence" >
    <i type="int" name="NELM">   100</i>
    <i type="int" name="NELMDL">    -5</i>
    <i type="int" name="NELMIN">     6</i>
    <i name="ENINI">    600.00000000</i>
    <separator name="electronic convergence detail" >
     <i type="logical" name="LDIAG"> T  </i>
     <i type="logical" name="LSUBROT"> F  </i>
     <i name="WEIMIN">      0.00000000</i>
     <i name="EBREAK">      0.00000000</i>
     <i name="DEPER">      0.30000000</i>
     <i type="int" name="NRMM">     4</i>
     <i name="TIME">      0.40000000</i>
    </separator>
   </separator>
   <separator name="electronic mixer" >
    <i name="AMIX">      0.40000000</i>
    <i name="BMIX">      1.00000000</i>
    <i name="AMIN">      0.10000000</i>
    <i name="AMIX_MAG">      1.60000000</i>
    <i name="BMIX_MAG">      1.00000000</i>
    <separator name="electronic mixer details" >
     <i type="int" name="IMIX">     4</i>
     <i type="logical" name="MIXFIRST"> F  </i>
     <i type="int" name="MAXMIX">   -45</i>
     <i name="WC">    100.00000000</i>
     <i type="int" name="INIMIX">     1</i>
     <i type="int" name="MIXPRE">     1</i>
     <i type="int" name="MREMOVE">     5</i>
    </separator>
   </separator>
   <separator name="electronic dipolcorrection" >
    <i type="logical" name="LDIPOL"> F  </i>
    <i type="logical" name="LMONO"> F  </i>
    <i type="int" name="IDIPOL">     0</i>
    <i name="EPSILON">      1.00000000</i>
    <v name="DIPOL">   -100.00000000   -100.00000000   -100.00000000</v>
    <i name="EFIELD">      0.00000000</i>
   </separator>
  </separator>
  <separator name="grids" >
   <i type="int" name="NGX">    40</i>
   <i type="int" name="NGY">    40</i>
   <i type="int" name="NGZ">    36</i>
   <i type="int" name="NGXF">    80</i>
   <i type="int" name="NGYF">    80</i>
   <i type="int" name="NGZF">    72</i>
   <i type="logical" name="ADDGRID"> T  </i>
  </separator>
  <separator name="ionic" >
   <i type="int" name="NSW">     0</i>
   <i type="int" name="IBRION">    -1</i>
   <i type="int" name="MDALGO">     0</i>
   <i type="int" name="ISIF">    -1</i>
   <i name="PSTRESS">      0.00000000</i>
   <i name="EDIFFG">      0.00000001</i>
   <i type="int" name="NFREE">     0</i>
   <i name="POTIM">      0.50000000</i>
   <i name="SMASS">     -3.00000000</i>
   <i name="SCALEE">      1.00000000</i>
  </separator>
  <separator name="ionic md" >
   <i name="TEBEG">      0.00010000</i>
   <i name="TEEND">      0.00010000</i>
   <i type="int" name="NBLOCK">     1</i>
   <i type="int" name="KBLOCK">     1</i>
   <i type="int" name="NPACO">   256</i>
   <i name="APACO">     16.00000000</i>
  </separator>
  <separator name="symmetry" >
   <i type="int" name="ISYM">     2</i>
   <i name="SYMPREC">      0.00001000</i>
  </separator>
  <separator name="dos" >
   <i type="int" name="LORBIT">     0</i>
   <v name="RWIGS">     -1.00000000     -1.00000000</v>
   <i type="int" name="NEDOS">   301</i>
   <i name="EMIN">     10.00000000</i>
   <i name="EMAX">    -10.00000000</i>
   <i name="EFERMI">      0.00000000</i>
  </separator>
  <separator name="writing" >
   <i type="int" name="NWRITE">     2</i>
   <i type="logical" name="LWAVE"> T  </i>
   <i type="logical" name="LDOWNSAMPLE"> F  </i>
   <i type="logical" name="LCHARG"> T  </i>
   <i type="logical" name="LPARD"> F  </i>
   <i type="logical" name="LVTOT"> F  </i>
   <i type="logical" name="LVHAR"> F  </i>
   <i type="logical" name="LELF"> F  </i>
   <i type="logical" name="LOPTICS"> F  </i>
   <v name="STM">      0.00000000      0.00000000      0.00000000      0.00000000      0.00000000      0.00000000      0.00000000</v>
  </separator>
  <separator name="performance" >
   <i type="int" name="NPAR">     6</i>
   <i type="int" name="NSIM">     4</i>
   <i type="int" name="NBLK">    -1</i>
   <i type="logical" name="LPLANE"> T  </i>
   <i type="logical" name="LSCALAPACK"> T  </i>
   <i type="logical" name="LSCAAWARE"> F  </i>
   <i type="logical" name="LSCALU"> F  </i>
   <i type="logical" name="LASYNC"> F  </i>
   <i type="logical" name="LORBITALREAL"> F  </i>
  </separator>
  <separator name="miscellaneous" >
   <i type="int" name="IDIOT">     3</i>
   <i type="int" name="PHON_NSTRUCT">    -1</i>
   <i type="logical" name="LMUSIC"> F  </i>
   <v name="POMASS">     10.81100000     28.08500000</v>
   <v name="DARWINR">      0.00000000      0.00000000</v>
   <v name="DARWINV">      1.00000000      1.00000000</v>
   <i type="logical" name="LCORR"> T  </i>
  </separator>
  <i type="logical" name="GGA_COMPAT"> T  </i>
  <i type="logical" name="LBERRY"> F  </i>
  <i type="int" name="ICORELEVEL">     0</i>
  <i type="logical" name="LDAU"> F  </i>
  <i type="int" name="I_CONSTRAINED_M">     0</i>
  <separator name="electronic exchange-correlation" >
   <i type="string" name="GGA">--</i>
   <i type="int" name="VOSKOWN">     0</i>
   <i type="logical" name="LHFCALC"> F  </i>
   <i type="string" name="PRECFOCK"></i>
   <i type="logical" name="LSYMGRAD"> F  </i>
   <i type="logical" name="LHFONE"> F  </i>
   <i type="logical" name="LRHFCALC"> F  </i>
   <i type="logical" name="LTHOMAS"> F  </i>
   <i type="logical" name="LMODELHF"> F  </i>
   <i type="logical" name="LFOCKACE"> F  </i>
   <i name="ENCUT4O">     -1.00000000</i>
   <i type="int" name="EXXOEP">     0</i>
   <i type="int" name="FOURORBIT">     0</i>
   <i name="AEXX">      0.00000000</i>
   <i name="HFALPHA">      0.00000000</i>
   <i name="MCALPHA">      0.00000000</i>
   <i name="ALDAX">      1.00000000</i>
   <i name="AGGAX">      1.00000000</i>
   <i name="ALDAC">      1.00000000</i>
   <i name="AGGAC">      1.00000000</i>
   <i type="int" name="NKREDX">     1</i>
   <i type="int" name="NKREDY">     1</i>
   <i type="int" name="NKREDZ">     1</i>
   <i type="logical" name="SHIFTRED"> F  </i>
   <i type="logical" name="ODDONLY"> F  </i>
   <i type="logical" name="EVENONLY"> F  </i>
   <i type="int" name="LMAXFOCK">     0</i>
   <i type="int" name="NMAXFOCKAE">     0</i>
   <i type="logical" name="LFOCKAEDFT"> F  </i>
   <i name="HFSCREEN">      0.00000000</i>
   <i name="HFSCREENC">      0.00000000</i>
   <i type="int" name="NBANDSGWLOW">     0</i>
  </separator>
  <separator name="vdW DFT" >
   <i type="logical" name="LUSE_VDW"> F  </i>
   <i name="Zab_VDW">     -0.84910000</i>
   <i name="PARAM1">      0.12340000</i>
   <i name="PARAM2">      1.00000000</i>
   <i name="PARAM3">      0.00000000</i>
  </separator>
  <separator name="model GW" >
   <i type="int" name="MODEL_GW">     0</i>
   <i name="MODEL_EPS0">      7.26831232</i>
   <i name="MODEL_ALPHA">      1.00000000</i>
  </separator>
  <separator name="linear response parameters" >
   <i type="logical" name="LEPSILON"> F  </i>
   <i type="logical" name="LRPA"> F  </i>
   <i type="logical" name="LNABLA"> F  </i>
   <i type="logical" name="LVEL"> F  </i>
   <i type="int" name="KINTER">     0</i>
   <i name="CSHIFT">      0.10000000</i>
   <i name="OMEGAMAX">     -1.00000000</i>
   <i name="DEG_THRESHOLD">      0.00200000</i>
   <i name="RTIME">     -0.10000000</i>
   <i name="WPLASMAI">      0.00000000</i>
   <v name="DFIELD">      0.00000000      0.00000000      0.00000000</v>
   <v name="WPLASMA">      0.00000000      0.00000000      0.00000000      0.00000000      0.00000000      0.00000000      0.00000000      0.00000000      0.00000000</v>
  </separator>
  <separator name="orbital magnetization" >
   <i type="logical" name="NUCIND"> F  </i>
   <v name="MAGPOS">      0.00000000      0.00000000      0.00000000</v>
   <i type="logical" name="LNICSALL"> T  </i>
   <i type="logical" name="ORBITALMAG"> F  </i>
   <i type="logical" name="LMAGBLOCH"> F  </i>
   <i type="logical" name="LCHIMAG"> F  </i>
   <i type="logical" name="LGAUGE"> T  </i>
   <i type="int" name="MAGATOM">     0</i>
   <v name="MAGDIPOL">      0.00000000      0.00000000      0.00000000</v>
   <v name="AVECCONST">      0.00000000      0.00000000      0.00000000</v>
  </separator>
  <separator name="response functions" >
   <i type="logical" name="LFINITE_TEMPERATURE"> F  </i>
   <i type="logical" name="LADDER"> F  </i>
   <i type="logical" name="LRPAFORCE"> F  </i>
   <i type="logical" name="LFXC"> F  </i>
   <i type="logical" name="LHARTREE"> T  </i>
   <i type="int" name="IBSE">     0</i>
   <v type="int" name="KPOINT">    -1     0     0     0</v>
   <i type="logical" name="LTCTC"> F  </i>
   <i type="logical" name="LTCTE"> F  </i>
   <i type="logical" name="LTETE"> F  </i>
   <i type="logical" name="LTRIPLET"> F  </i>
   <i type="logical" name="LFXCEPS"> F  </i>
   <i type="logical" name="LFXHEG"> F  </i>
   <i type="int" name="NATURALO">     2</i>
   <i type="logical" name="LHOLEGF"> F  </i>
   <i type="logical" name="L2ORDER"> F  </i>
   <i type="logical" name="LDMP1"> F  </i>
   <i type="logical" name="LMP2LT"> F  </i>
   <i type="logical" name="LSMP2LT"> F  </i>
   <i type="logical" name="LGWLF"> F  </i>
   <i name="ENCUTGW">     -2.00000000</i>
   <i name="ENCUTGWSOFT">     -2.00000000</i>
   <i name="ENCUTLF">     -1.00000000</i>
   <i type="logical" name="LESF_SPLINES"> F  </i>
   <i type="int" name="LMAXMP2">    -1</i>
   <i name="SCISSOR">      0.00000000</i>
   <i type="int" name="NOMEGA">     0</i>
   <i type="int" name="NOMEGAR">     0</i>
   <i type="int" name="NBANDSGW">    -1</i>
   <i type="int" name="NBANDSO">    -1</i>
   <i type="int" name="NBANDSV">    -1</i>
   <i type="int" name="NELM">   100</i>
   <i type="int" name="NELMHF">     1</i>
   <i type="int" name="DIM">     3</i>
   <i type="int" name="IESPILON">     4</i>
   <i type="int" name="ANTIRES">     0</i>
   <i name="OMEGAMAX">    -30.00000000</i>
   <i name="OMEGAMIN">    -30.00000000</i>
   <i name="OMEGATL">   -200.00000000</i>
   <i type="int" name="OMEGAGRID">     0</i>
   <i name="CSHIFT">     -0.10000000</i>
   <i type="logical" name="LSELFENERGY"> F  </i>
   <i type="logical" name="LSPECTRAL"> F  </i>
   <i type="logical" name="LSPECTRALGW"> F  </i>
   <i type="logical" name="LSINGLES"> F  </i>
   <i type="logical" name="LFERMIGW"> F  </i>
   <i type="logical" name="ODDONLYGW"> F  </i>
   <i type="logical" name="EVENONLYGW"> F  </i>
   <i type="int" name="NKREDLFX">     1</i>
   <i type="int" name="NKREDLFY">     1</i>
   <i type="int" name="NKREDLFZ">     1</i>
   <i type="int" name="MAXMEM">  2800</i>
   <i type="int" name="TELESCOPE">     0</i>
   <i type="int" name="NTAUPAR">    -1</i>
   <i type="int" name="NOMEGAPAR">    -1</i>
   <i name="DAMP_NEWTON">      0.80000001</i>
   <i name="LAMBDA">      1.00000000</i>
  </separator>
  <separator name="External order field" >
   <i name="OFIELD_KAPPA">      0.00000000</i>
   <v name="OFIELD_K">      0.00000000      0.00000000      0.00000000</v>
   <i name="OFIELD_Q6_NEAR">      0.00000000</i>
   <i name="OFIELD_Q6_FAR">      0.00000000</i>
   <i name="OFIELD_A">      0.00000000</i>
  </separator>
 </parameters>
 <atominfo>
  <atoms>       8 </atoms>
  <types>       2 </types>
  <array name="atoms" >
   <dimension dim="1">ion</dimension>
   <field type="string">element</field>
   <field type="int">atomtype</field>
   <set>
    <rc><c>B </c><c>   1</c></rc>
    <rc><c>B </c><c>   1</c></rc>
    <rc><c>Si</c><c>   2</c></rc>
    <rc><c>Si</c><c>   2</c></rc>
    <rc><c>Si</c><c>   2</c></rc>
    <rc><c>Si</c><c>   2</c></rc>
    <rc><c>Si</c><c>   2</c></rc>
    <rc><c>Si</c><c>   2</c></rc>
   </set>
  </array>
  <array name="atomtypes" >
   <dimension dim="1">type</dimension>
   <field type="int">atomspertype</field>
   <field type="string">element</field>
   <field>mass</field>
   <field>valence</field>
   <field type="string">pseudopotential</field>
   <set>
    <rc><c>   2</c><c>B </c><c>     10.81100000</c><c>      3.00000000</c><c>  PAW_PBE B 06Sep2000                   </c></rc>
    <rc><c>   6</c><c>Si</c><c>     28.08500000</c><c>      4.00000000</c><c>  PAW_PBE Si 05Jan2001                  </c></rc>
   </set>
  </array>
 </atominfo>
 <structure name="initialpos" >
  <crystal>
   <varray name="basis" >
    <v>       2.50641300      -4.34123400       0.00000000 </v>
    <v>       2.50641300       4.34123400       0.00000000 </v>
    <v>       0.00000000       0.00000000       4.45324400 </v>
   </varray>
   <i name="volume">     96.91083091 </i>
   <varray name="rec_basis" >
    <v>       0.19948827      -0.11517463       0.00000000 </v>
    <v>       0.19948827       0.11517463       0.00000000 </v>
    <v>       0.00000000       0.00000000       0.22455540 </v>
   </varray>
  </crystal>
  <varray name="positions" >
   <v>       0.33333300       0.66666700       0.75000000 </v>
   <v>       0.66666700       0.33333300       0.25000000 </v>
   <v>       0.16913800       0.33827500       0.25000000 </v>
   <v>       0.66172500       0.83086200       0.25000000 </v>
   <v>       0.16913800       0.83086200       0.25000000 </v>
   <v>       0.83086200       0.66172500       0.75000000 </v>
   <v>       0.33827500       0.16913800       0.75000000 </v>
   <v>       0.83086200       0.16913800       0.75000000 </v>
  </varray>
 </structure>
 <calculation>
  <scstep>
   <time name="total">    1.59    1.60</time>
   <energy>
    <i name="alphaZ">     29.82889321 </i>
    <i name="ewald">  -1024.44095619 </i>
    <i name="hartreedc">     -5.27234867 </i>
    <i name="XCdc">     -8.48557446 </i>
    <i name="pawpsdc">    583.06613608 </i>
    <i name="pawaedc">   -518.44463209 </i>
    <i name="eentropy">     -0.00035391 </i>
    <i name="bandstr">    217.28325363 </i>
    <i name="atom">    760.73855882 </i>
    <i name="e_fr_energy">     34.27297642 </i>
    <i name="e_wo_entrp">     34.27333033 </i>
    <i name="e_0_energy">     34.27315338 </i>
   </energy>
  </scstep>
  <scstep>
   <time name="total">    1.55    1.56</time>
   <energy>
    <i name="e_fr_energy">    -60.07508181 </i>
    <i name="e_wo_entrp">    -60.07457790 </i>
    <i name="e_0_energy">    -60.07482985 </i>
   </energy>
  </scstep>
  <scstep>
   <time name="total">    1.57    1.59</time>
   <energy>
    <i name="e_fr_energy">    -62.94675636 </i>
    <i name="e_wo_entrp">    -62.94642373 </i>
    <i name="e_0_energy">    -62.94659005 </i>
   </energy>
  </scstep>
  <scstep>
   <time name="total">    1.49    1.51</time>
   <energy>
    <i name="e_fr_energy">    -62.96281828 </i>
    <i name="e_wo_entrp">    -62.96247828 </i>
    <i name="e_0_energy">    -62.96264828 </i>
   </energy>
  </scstep>
  <scstep>
   <time name="total">    1.85    1.86</time>
   <energy>
    <i name="e_fr_energy">    -62.96295269 </i>
    <i name="e_wo_entrp">    -62.96261267 </i>
    <i name="e_0_energy">    -62.96278268 </i>
   </energy>
  </scstep>
  <scstep>
   <time name="total">    2.26    2.28</time>
   <energy>
    <i name="e_fr_energy">    -58.40619702 </i>
    <i name="e_wo_entrp">    -58.40570730 </i>
    <i name="e_0_energy">    -58.40595216 </i>
   </energy>
  </scstep>
  <scstep>
   <time name="total">    2.21    2.23</time>
   <energy>
    <i name="e_fr_energy">    -58.60782235 </i>
    <i name="e_wo_entrp">    -58.60745543 </i>
    <i name="e_0_energy">    -58.60763889 </i>
   </energy>
  </scstep>
  <scstep>
   <time name="total">    2.24    2.25</time>
   <energy>
    <i name="e_fr_energy">    -58.63117282 </i>
    <i name="e_wo_entrp">    -58.63090704 </i>
    <i name="e_0_energy">    -58.63103993 </i>
   </energy>
  </scstep>
  <scstep>
   <time name="total">    2.20    2.22</time>
   <energy>
    <i name="e_fr_energy">    -58.63565269 </i>
    <i name="e_wo_entrp">    -58.63538907 </i>
    <i name="e_0_energy">    -58.63552088 </i>
   </energy>
  </scstep>
  <scstep>
   <time name="total">    2.18    2.19</time>
   <energy>
    <i name="e_fr_energy">    -58.63659654 </i>
    <i name="e_wo_entrp">    -58.63632919 </i>
    <i name="e_0_energy">    -58.63646286 </i>
   </energy>
  </scstep>
  <scstep>
   <time name="total">    2.20    2.21</time>
   <energy>
    <i name="e_fr_energy">    -58.63670784 </i>
    <i name="e_wo_entrp">    -58.63643926 </i>
    <i name="e_0_energy">    -58.63657355 </i>
   </energy>
  </scstep>
  <scstep>
   <time name="total">    2.21    2.22</time>
   <energy>
    <i name="e_fr_energy">    -58.63672029 </i>
    <i name="e_wo_entrp">    -58.63645128 </i>
    <i name="e_0_energy">    -58.63658578 </i>
   </energy>
  </scstep>
  <scstep>
   <time name="total">    2.21    2.23</time>
   <energy>
    <i name="e_fr_energy">    -58.63672206 </i>
    <i name="e_wo_entrp">    -58.63645290 </i>
    <i name="e_0_energy">    -58.63658748 </i>
   </energy>
  </scstep>
  <scstep>
   <time name="total">    2.20    2.22</time>
   <energy>
    <i name="e_fr_energy">    -58.63672226 </i>
    <i name="e_wo_entrp">    -58.63645307 </i>
    <i name="e_0_energy">    -58.63658766 </i>
   </energy>
  </scstep>
  <scstep>
   <time name="total">    2.20    2.22</time>
   <energy>
    <i name="e_fr_energy">    -58.63672228 </i>
    <i name="e_wo_entrp">    -58.63645307 </i>
    <i name="e_0_energy">    -58.63658767 </i>
   </energy>
  </scstep>
  <scstep>
   <time name="total">    2.15    2.17</time>
   <energy>
    <i name="e_fr_energy">    -58.63672228 </i>
    <i name="e_wo_entrp">    -58.63645306 </i>
    <i name="e_0_energy">    -58.63658767 </i>
   </energy>
  </scstep>
  <scstep>
   <time name="total">    2.22    2.24</time>
   <energy>
    <i name="e_fr_energy">    -58.63672228 </i>
    <i name="e_wo_entrp">    -58.63645305 </i>
    <i name="e_0_energy">    -58.63658767 </i>
   </energy>
  </scstep>
  <scstep>
   <time name="total">    2.25    2.27</time>
   <energy>
    <i name="e_fr_energy">    -58.63672228 </i>
    <i name="e_wo_entrp">    -58.63645304 </i>
    <i name="e_0_energy">    -58.63658766 </i>
   </energy>
  </scstep>
  <scstep>
   <time name="total">    2.20    2.22</time>
   <energy>
    <i name="e_fr_energy">    -58.63672227 </i>
    <i name="e_wo_entrp">    -58.63645304 </i>
    <i name="e_0_energy">    -58.63658766 </i>
   </energy>
  </scstep>
  <scstep>
   <time name="total">    2.43    2.45</time>
   <energy>
    <i name="alphaZ">     29.82889321 </i>
    <i name="ewald">  -1024.44095619 </i>
    <i name="hartreedc">     -4.92759889 </i>
    <i name="XCdc">     -5.20700123 </i>
    <i name="pawpsdc">   3857.97976475 </i>
    <i name="pawaedc">  -3793.50226835 </i>
    <i name="eentropy">     -0.00026924 </i>
    <i name="bandstr">    120.89415485 </i>
    <i name="atom">    760.73855882 </i>
    <i name="e_fr_energy">    -58.63672227 </i>
    <i name="e_wo_entrp">    -58.63645304 </i>
    <i name="e_0_energy">    -58.63658765 </i>
   </energy>
  </scstep>
  <structure>
   <crystal>
    <varray name="basis" >
     <v>       2.50641300      -4.34123400       0.00000000 </v>
     <v>       2.50641300       4.34123400       0.00000000 </v>
     <v>       0.00000000       0.00000000       4.45324400 </v>
    </varray>
    <i name="volume">     96.91083091 </i>
    <varray name="rec_basis" >
     <v>       0.19948827      -0.11517463       0.00000000 </v>
     <v>       0.19948827       0.11517463       0.00000000 </v>
     <v>       0.00000000       0.00000000       0.22455540 </v>
    </varray>
   </crystal>
   <varray name="positions" >
    <v>       0.33333300       0.66666700       0.75000000 </v>
    <v>       0.66666700       0.33333300       0.25000000 </v>
    <v>       0.16913800       0.33827500       0.25000000 </v>
    <v>       0.66172500       0.83086200       0.25000000 </v>
    <v>       0.16913800       0.83086200       0.25000000 </v>
    <v>       0.83086200       0.66172500       0.75000000 </v>
    <v>       0.33827500       0.16913800       0.75000000 </v>
    <v>       0.83086200       0.16913800       0.75000000 </v>
   </varray>
  </structure>
  <varray name="forces" >
   <v>       0.00000000       0.00000000       0.00000000 </v>
   <v>       0.00000000       0.00000000       0.00000000 </v>
   <v>       0.00000000       0.00000000       0.00000000 </v>
   <v>       0.00000000       0.00000000       0.00000000 </v>
   <v>       0.00000000       0.00000000       0.00000000 </v>
   <v>       0.00000000       0.00000000       0.00000000 </v>
   <v>       0.00000000       0.00000000       0.00000000 </v>
   <v>       0.00000000       0.00000000       0.00000000 </v>
  </varray>
  <varray name="stress" >
   <v>       0.00000000       0.00000000       0.00000000 </v>
   <v>       0.00000000       0.00000000       0.00000000 </v>
   <v>       0.00000000       0.00000000       0.00000000 </v>
  </varray>
  <energy>
   <i name="e_fr_energy">    -58.63672227 </i>
   <i name="e_wo_entrp">    -58.63645304 </i>
   <i name="e_0_energy">    -58.63658765 </i>
  </energy>
  <time name="totalsc">   42.19   42.55</time>
  <eigenvalues>
   <array>
    <dimension dim="1">band</dimension>
    <dimension dim="2">kpoint</dimension>
    <dimension dim="3">spin</dimension>
    <field>eigene</field>
    <field>occ</field>
    <set>
     <set comment="spin 1">
      <set comment="kpoint 1">
       <r>   -5.7371    1.0000 </r>
       <r>    1.1925    1.0000 </r>
       <r>    1.8964    1.0000 </r>
       <r>    2.0224    1.0000 </r>
       <r>    2.0224    1.0000 </r>
       <r>    2.1874    1.0000 </r>
       <r>    2.1897    1.0000 </r>
       <r>    2.3734    1.0000 </r>
       <r>    2.3734    1.0000 </r>
       <r>    8.1212    1.0000 </r>
       <r>    8.4920    1.0000 </r>
       <r>    8.4921    1.0000 </r>
       <r>    8.8095    1.0000 </r>
       <r>    8.8915    1.0000 </r>
       <r>    9.1872    1.0000 </r>
       <r>    9.1872    1.0000 </r>
       <r>    9.8264    1.0000 </r>
       <r>    9.8264    1.0000 </r>
       <r>   10.2014    1.0000 </r>
       <r>   11.3666    0.0000 </r>
       <r>   11.3666    0.0000 </r>
       <r>   15.2097    0.0000 </r>
       <r>   15.2097    0.0000 </r>
       <r>   16.6494    0.0000 </r>
      </set>
      <set comment="kpoint 2">
       <r>   -5.6126    1.0000 </r>
       <r>    0.2765    1.0000 </r>
       <r>    1.0788    1.0000 </r>
       <r>    1.3230    1.0000 </r>
       <r>    1.6287    1.0000 </r>
       <r>    2.3111    1.0000 </r>
       <r>    3.0840    1.0000 </r>
       <r>    3.3044    1.0000 </r>
       <r>    4.1096    1.0000 </r>
       <r>    7.1895    1.0000 </r>
       <r>    7.8263    1.0000 </r>
       <r>    7.9763    1.0000 </r>
       <r>    8.1246    1.0000 </r>
       <r>    8.6416    1.0000 </r>
       <r>    8.9372    1.0000 </r>
       <r>    9.6600    1.0000 </r>
       <r>   10.4125    0.0001 </r>
       <r>   11.0075    0.0000 </r>
       <r>   11.0335    0.0000 </r>
       <r>   11.8451    0.0000 </r>
       <r>   12.4237    0.0000 </r>
       <r>   13.9282    0.0000 </r>
       <r>   14.4420    0.0000 </r>
       <r>   16.0181    0.0000 </r>
      </set>
      <set comment="kpoint 3">
       <r>   -5.2400    1.0000 </r>
       <r>   -1.2845    1.0000 </r>
       <r>    0.6019    1.0000 </r>
       <r>    0.7123    1.0000 </r>
       <r>    1.8747    1.0000 </r>
       <r>    2.6749    1.0000 </r>
       <r>    4.3073    1.0000 </r>
       <r>    4.5950    1.0000 </r>
       <r>    5.2634    1.0000 </r>
       <r>    6.5103    1.0000 </r>
       <r>    6.8416    1.0000 </r>
       <r>    7.3810    1.0000 </r>
       <r>    7.6486    1.0000 </r>
       <r>    8.1708    1.0000 </r>
       <r>    8.5257    1.0000 </r>
       <r>   10.5336    0.0000 </r>
       <r>   11.4528    0.0000 </r>
       <r>   12.0751    0.0000 </r>
       <r>   12.1915    0.0000 </r>
       <r>   12.5070    0.0000 </r>
       <r>   12.9311    0.0000 </r>
       <r>   12.9825    0.0000 </r>
       <r>   14.4416    0.0000 </r>
       <r>   16.1368    0.0000 </r>
      </set>
      <set comment="kpoint 4">
       <r>   -4.6234    1.0000 </r>
       <r>   -2.6237    1.0000 </r>
       <r>    0.2692    1.0000 </r>
       <r>    0.3419    1.0000 </r>
       <r>    2.4418    1.0000 </r>
       <r>    3.2789    1.0000 </r>
       <r>    4.2563    1.0000 </r>
       <r>    5.2130    1.0000 </r>
       <r>    5.6266    1.0000 </r>
       <r>    5.9741    1.0000 </r>
       <r>    7.1972    1.0000 </r>
       <r>    7.4636    1.0000 </r>
       <r>    7.8524    1.0000 </r>
       <r>    8.2323    1.0000 </r>
       <r>    9.0321    1.0000 </r>
       <r>    9.5740    1.0000 </r>
       <r>   10.1872    1.0000 </r>
       <r>   12.3127    0.0000 </r>
       <r>   13.0863    0.0000 </r>
       <r>   13.4177    0.0000 </r>
       <r>   14.2784    0.0000 </r>
       <r>   14.3363    0.0000 </r>
       <r>   15.1221    0.0000 </r>
       <r>   15.6262    0.0000 </r>
      </set>
      <set comment="kpoint 5">
       <r>   -3.8944    1.0000 </r>
       <r>   -3.5945    1.0000 </r>
       <r>    0.1561    1.0000 </r>
       <r>    0.2181    1.0000 </r>
       <r>    3.1857    1.0000 </r>
       <r>    3.3090    1.0000 </r>
       <r>    4.0352    1.0000 </r>
       <r>    4.2228    1.0000 </r>
       <r>    6.3160    1.0000 </r>
       <r>    6.6163    1.0000 </r>
       <r>    7.7427    1.0000 </r>
       <r>    7.7721    1.0000 </r>
       <r>    8.0702    1.0000 </r>
       <r>    8.1298    1.0000 </r>
       <r>    8.1730    1.0000 </r>
       <r>    8.5418    1.0000 </r>
       <r>   11.2843    0.0000 </r>
       <r>   11.9918    0.0000 </r>
       <r>   13.3911    0.0000 </r>
       <r>   14.1099    0.0000 </r>
       <r>   14.2317    0.0000 </r>
       <r>   14.5103    0.0000 </r>
       <r>   14.8107    0.0000 </r>
       <r>   15.2343    0.0000 </r>
      </set>
      <set comment="kpoint 6">
       <r>   -5.3641    1.0000 </r>
       <r>   -0.5204    1.0000 </r>
       <r>   -0.3402    1.0000 </r>
       <r>    1.6758    1.0000 </r>
       <r>    2.4407    1.0000 </r>
       <r>    2.5537    1.0000 </r>
       <r>    2.5683    1.0000 </r>
       <r>    5.0659    1.0000 </r>
       <r>    5.1477    1.0000 </r>
       <r>    6.7057    1.0000 </r>
       <r>    6.7275    1.0000 </r>
       <r>    7.2562    1.0000 </r>
       <r>    7.3841    1.0000 </r>
       <r>    8.6947    1.0000 </r>
       <r>    9.4474    1.0000 </r>
       <r>    9.5669    1.0000 </r>
       <r>   11.2002    0.0000 </r>
       <r>   11.7992    0.0000 </r>
       <r>   12.0857    0.0000 </r>
       <r>   12.1761    0.0000 </r>
       <r>   13.2405    0.0000 </r>
       <r>   13.6164    0.0000 </r>
       <r>   14.1763    0.0000 </r>
       <r>   14.9327    0.0000 </r>
      </set>
      <set comment="kpoint 7">
       <r>   -4.8689    1.0000 </r>
       <r>   -1.8973    1.0000 </r>
       <r>   -0.8994    1.0000 </r>
       <r>    1.9158    1.0000 </r>
       <r>    2.2719    1.0000 </r>
       <r>    3.0379    1.0000 </r>
       <r>    3.8967    1.0000 </r>
       <r>    4.8894    1.0000 </r>
       <r>    5.6062    1.0000 </r>
       <r>    5.9214    1.0000 </r>
       <r>    6.8732    1.0000 </r>
       <r>    7.1738    1.0000 </r>
       <r>    7.9301    1.0000 </r>
       <r>    8.5072    1.0000 </r>
       <r>    9.4413    1.0000 </r>
       <r>    9.5066    1.0000 </r>
       <r>   11.0376    0.0000 </r>
       <r>   11.9965    0.0000 </r>
       <r>   12.2740    0.0000 </r>
       <r>   13.3815    0.0000 </r>
       <r>   14.1011    0.0000 </r>
       <r>   14.6416    0.0000 </r>
       <r>   15.0000    0.0000 </r>
       <r>   15.4463    0.0000 </r>
      </set>
      <set comment="kpoint 8">
       <r>   -4.1390    1.0000 </r>
       <r>   -3.1068    1.0000 </r>
       <r>   -1.1446    1.0000 </r>
       <r>    1.7421    1.0000 </r>
       <r>    2.9051    1.0000 </r>
       <r>    3.7576    1.0000 </r>
       <r>    3.8194    1.0000 </r>
       <r>    4.7384    1.0000 </r>
       <r>    5.4122    1.0000 </r>
       <r>    5.6254    1.0000 </r>
       <r>    6.6405    1.0000 </r>
       <r>    7.2997    1.0000 </r>
       <r>    8.5489    1.0000 </r>
       <r>    8.7786    1.0000 </r>
       <r>    9.3975    1.0000 </r>
       <r>   10.3417    0.9157 </r>
       <r>   10.4077    0.0005 </r>
       <r>   12.1711    0.0000 </r>
       <r>   13.0676    0.0000 </r>
       <r>   13.1055    0.0000 </r>
       <r>   13.9577    0.0000 </r>
       <r>   14.7578    0.0000 </r>
       <r>   15.5281    0.0000 </r>
       <r>   15.8597    0.0000 </r>
      </set>
      <set comment="kpoint 9">
       <r>   -4.2555    1.0000 </r>
       <r>   -2.3620    1.0000 </r>
       <r>   -2.1364    1.0000 </r>
       <r>    2.7378    1.0000 </r>
       <r>    3.4783    1.0000 </r>
       <r>    3.6399    1.0000 </r>
       <r>    3.6408    1.0000 </r>
       <r>    4.5814    1.0000 </r>
       <r>    4.6191    1.0000 </r>
       <r>    5.4918    1.0000 </r>
       <r>    5.6585    1.0000 </r>
       <r>    7.2587    1.0000 </r>
       <r>    9.3413    1.0000 </r>
       <r>    9.3580    1.0000 </r>
       <r>    9.6679    1.0000 </r>
       <r>   10.4990    0.0000 </r>
       <r>   10.9952    0.0000 </r>
       <r>   11.9310    0.0000 </r>
       <r>   12.6536    0.0000 </r>
       <r>   13.2223    0.0000 </r>
       <r>   13.7283    0.0000 </r>
       <r>   14.7203    0.0000 </r>
       <r>   14.8561    0.0000 </r>
       <r>   15.3033    0.0000 </r>
      </set>
      <set comment="kpoint 10">
       <r>   -3.5375    1.0000 </r>
       <r>   -3.2287    1.0000 </r>
       <r>   -2.3516    1.0000 </r>
       <r>    3.3305    1.0000 </r>
       <r>    3.5340    1.0000 </r>
       <r>    3.7219    1.0000 </r>
       <r>    4.3872    1.0000 </r>
       <r>    4.4636    1.0000 </r>
       <r>    4.5842    1.0000 </r>
       <r>    5.1941    1.0000 </r>
       <r>    5.4673    1.0000 </r>
       <r>    5.4831    1.0000 </r>
       <r>    9.8255    1.0000 </r>
       <r>   10.8058    0.0000 </r>
       <r>   11.0343    0.0000 </r>
       <r>   11.0709    0.0000 </r>
       <r>   11.4742    0.0000 </r>
       <r>   12.0234    0.0000 </r>
       <r>   12.2246    0.0000 </r>
       <r>   12.2689    0.0000 </r>
       <r>   12.4942    0.0000 </r>
       <r>   13.6956    0.0000 </r>
       <r>   13.9136    0.0000 </r>
       <r>   15.3556    0.0000 </r>
      </set>
      <set comment="kpoint 11">
       <r>   -5.6186    1.0000 </r>
       <r>   -0.0530    1.0000 </r>
       <r>    1.9993    1.0000 </r>
       <r>    2.1380    1.0000 </r>
       <r>    2.1380    1.0000 </r>
       <r>    2.1499    1.0000 </r>
       <r>    2.4845    1.0000 </r>
       <r>    2.4845    1.0000 </r>
       <r>    3.7825    1.0000 </r>
       <r>    7.2610    1.0000 </r>
       <r>    7.3390    1.0000 </r>
       <r>    7.7343    1.0000 </r>
       <r>    7.7343    1.0000 </r>
       <r>    7.7923    1.0000 </r>
       <r>    7.7924    1.0000 </r>
       <r>   10.5325    0.0000 </r>
       <r>   11.2510    0.0000 </r>
       <r>   11.4155    0.0000 </r>
       <r>   11.4155    0.0000 </r>
       <r>   12.3104    0.0000 </r>
       <r>   12.3104    0.0000 </r>
       <r>   15.3064    0.0000 </r>
       <r>   15.3064    0.0000 </r>
       <r>   16.7521    0.0000 </r>
      </set>
      <set comment="kpoint 12">
       <r>   -5.4942    1.0000 </r>
       <r>    0.0256    1.0000 </r>
       <r>    0.4487    1.0000 </r>
       <r>    1.3783    1.0000 </r>
       <r>    1.4391    1.0000 </r>
       <r>    3.1585    1.0000 </r>
       <r>    3.4105    1.0000 </r>
       <r>    3.8854    1.0000 </r>
       <r>    4.1814    1.0000 </r>
       <r>    6.0108    1.0000 </r>
       <r>    6.7025    1.0000 </r>
       <r>    6.9937    1.0000 </r>
       <r>    8.3788    1.0000 </r>
       <r>    8.6835    1.0000 </r>
       <r>    8.9577    1.0000 </r>
       <r>   10.1688    1.0000 </r>
       <r>   10.4649    0.0000 </r>
       <r>   11.0551    0.0000 </r>
       <r>   12.2918    0.0000 </r>
       <r>   12.9614    0.0000 </r>
       <r>   13.5377    0.0000 </r>
       <r>   14.0372    0.0000 </r>
       <r>   14.5435    0.0000 </r>
       <r>   16.1178    0.0000 </r>
      </set>
      <set comment="kpoint 13">
       <r>   -5.1218    1.0000 </r>
       <r>   -1.1742    1.0000 </r>
       <r>    0.3695    1.0000 </r>
       <r>    0.8294    1.0000 </r>
       <r>    0.8688    1.0000 </r>
       <r>    4.1803    1.0000 </r>
       <r>    4.2374    1.0000 </r>
       <r>    4.3969    1.0000 </r>
       <r>    4.6656    1.0000 </r>
       <r>    6.2354    1.0000 </r>
       <r>    6.4832    1.0000 </r>
       <r>    6.6269    1.0000 </r>
       <r>    8.0460    1.0000 </r>
       <r>    9.1693    1.0000 </r>
       <r>    9.4178    1.0000 </r>
       <r>   10.0998    1.0000 </r>
       <r>   10.9772    0.0000 </r>
       <r>   11.8422    0.0000 </r>
       <r>   12.0883    0.0000 </r>
       <r>   12.5419    0.0000 </r>
       <r>   13.4059    0.0000 </r>
       <r>   14.1241    0.0000 </r>
       <r>   15.4965    0.0000 </r>
       <r>   16.2482    0.0000 </r>
      </set>
      <set comment="kpoint 14">
       <r>   -4.5056    1.0000 </r>
       <r>   -2.5088    1.0000 </r>
       <r>    0.3443    1.0000 </r>
       <r>    0.4595    1.0000 </r>
       <r>    1.1341    1.0000 </r>
       <r>    2.9963    1.0000 </r>
       <r>    4.8202    1.0000 </r>
       <r>    5.3051    1.0000 </r>
       <r>    5.6262    1.0000 </r>
       <r>    6.4198    1.0000 </r>
       <r>    6.6671    1.0000 </r>
       <r>    6.7126    1.0000 </r>
       <r>    9.1224    1.0000 </r>
       <r>    9.1885    1.0000 </r>
       <r>    9.4538    1.0000 </r>
       <r>    9.6217    1.0000 </r>
       <r>   10.2942    1.0000 </r>
       <r>   11.5181    0.0000 </r>
       <r>   12.1988    0.0000 </r>
       <r>   13.8068    0.0000 </r>
       <r>   14.2052    0.0000 </r>
       <r>   14.6326    0.0000 </r>
       <r>   15.0923    0.0000 </r>
       <r>   15.5671    0.0000 </r>
      </set>
      <set comment="kpoint 15">
       <r>   -3.7758    1.0000 </r>
       <r>   -3.4796    1.0000 </r>
       <r>    0.2509    1.0000 </r>
       <r>    0.3358    1.0000 </r>
       <r>    1.8374    1.0000 </r>
       <r>    2.0459    1.0000 </r>
       <r>    5.3775    1.0000 </r>
       <r>    5.6266    1.0000 </r>
       <r>    5.6950    1.0000 </r>
       <r>    5.7027    1.0000 </r>
       <r>    7.7468    1.0000 </r>
       <r>    7.8735    1.0000 </r>
       <r>    8.1764    1.0000 </r>
       <r>    8.2807    1.0000 </r>
       <r>    9.2084    1.0000 </r>
       <r>    9.6235    1.0000 </r>
       <r>   11.3748    0.0000 </r>
       <r>   12.0892    0.0000 </r>
       <r>   12.7728    0.0000 </r>
       <r>   12.9427    0.0000 </r>
       <r>   13.4783    0.0000 </r>
       <r>   13.9133    0.0000 </r>
       <r>   15.4468    0.0000 </r>
       <r>   16.5518    0.0000 </r>
      </set>
      <set comment="kpoint 16">
       <r>   -5.2458    1.0000 </r>
       <r>   -0.4048    1.0000 </r>
       <r>   -0.2752    1.0000 </r>
       <r>    0.4135    1.0000 </r>
       <r>    2.4976    1.0000 </r>
       <r>    2.6751    1.0000 </r>
       <r>    4.1218    1.0000 </r>
       <r>    4.7723    1.0000 </r>
       <r>    4.7794    1.0000 </r>
       <r>    5.8715    1.0000 </r>
       <r>    5.8940    1.0000 </r>
       <r>    7.9121    1.0000 </r>
       <r>    7.9452    1.0000 </r>
       <r>    8.6706    1.0000 </r>
       <r>    8.7187    1.0000 </r>
       <r>   10.7004    0.0000 </r>
       <r>   11.0957    0.0000 </r>
       <r>   11.4650    0.0000 </r>
       <r>   12.2043    0.0000 </r>
       <r>   12.2730    0.0000 </r>
       <r>   14.2490    0.0000 </r>
       <r>   14.5140    0.0000 </r>
       <r>   14.6010    0.0000 </r>
       <r>   15.0693    0.0000 </r>
      </set>
      <set comment="kpoint 17">
       <r>   -4.7510    1.0000 </r>
       <r>   -1.7834    1.0000 </r>
       <r>   -0.7917    1.0000 </r>
       <r>    0.8442    1.0000 </r>
       <r>    2.1168    1.0000 </r>
       <r>    3.6821    1.0000 </r>
       <r>    3.9742    1.0000 </r>
       <r>    4.5633    1.0000 </r>
       <r>    4.6218    1.0000 </r>
       <r>    6.9735    1.0000 </r>
       <r>    7.2124    1.0000 </r>
       <r>    7.4967    1.0000 </r>
       <r>    8.1392    1.0000 </r>
       <r>    8.3710    1.0000 </r>
       <r>    9.0418    1.0000 </r>
       <r>    9.7997    1.0000 </r>
       <r>   11.4344    0.0000 </r>
       <r>   12.0895    0.0000 </r>
       <r>   12.7983    0.0000 </r>
       <r>   12.8368    0.0000 </r>
       <r>   13.2904    0.0000 </r>
       <r>   14.9421    0.0000 </r>
       <r>   15.1638    0.0000 </r>
       <r>   15.7622    0.0000 </r>
      </set>
      <set comment="kpoint 18">
       <r>   -4.0213    1.0000 </r>
       <r>   -2.9912    1.0000 </r>
       <r>   -1.0330    1.0000 </r>
       <r>    1.5240    1.0000 </r>
       <r>    1.8918    1.0000 </r>
       <r>    2.5501    1.0000 </r>
       <r>    4.3602    1.0000 </r>
       <r>    5.2918    1.0000 </r>
       <r>    5.5644    1.0000 </r>
       <r>    6.2222    1.0000 </r>
       <r>    7.0855    1.0000 </r>
       <r>    7.8445    1.0000 </r>
       <r>    7.9636    1.0000 </r>
       <r>    8.8009    1.0000 </r>
       <r>   10.1924    1.0000 </r>
       <r>   10.4452    0.0000 </r>
       <r>   10.5955    0.0000 </r>
       <r>   11.5803    0.0000 </r>
       <r>   12.7374    0.0000 </r>
       <r>   13.2889    0.0000 </r>
       <r>   13.8743    0.0000 </r>
       <r>   14.6868    0.0000 </r>
       <r>   15.4024    0.0000 </r>
       <r>   15.5123    0.0000 </r>
      </set>
      <set comment="kpoint 19">
       <r>   -4.1379    1.0000 </r>
       <r>   -2.2452    1.0000 </r>
       <r>   -2.0248    1.0000 </r>
       <r>    1.4379    1.0000 </r>
       <r>    3.2443    1.0000 </r>
       <r>    3.3719    1.0000 </r>
       <r>    3.5978    1.0000 </r>
       <r>    3.7887    1.0000 </r>
       <r>    5.1842    1.0000 </r>
       <r>    6.9631    1.0000 </r>
       <r>    7.0408    1.0000 </r>
       <r>    7.3057    1.0000 </r>
       <r>    8.8899    1.0000 </r>
       <r>    9.2111    1.0000 </r>
       <r>    9.5061    1.0000 </r>
       <r>    9.5111    1.0000 </r>
       <r>   12.0299    0.0000 </r>
       <r>   12.4493    0.0000 </r>
       <r>   12.7345    0.0000 </r>
       <r>   13.2825    0.0000 </r>
       <r>   13.8780    0.0000 </r>
       <r>   14.5350    0.0000 </r>
       <r>   14.7234    0.0000 </r>
       <r>   14.8163    0.0000 </r>
      </set>
      <set comment="kpoint 20">
       <r>   -3.4186    1.0000 </r>
       <r>   -3.1144    1.0000 </r>
       <r>   -2.2375    1.0000 </r>
       <r>    2.1908    1.0000 </r>
       <r>    2.3445    1.0000 </r>
       <r>    3.2259    1.0000 </r>
       <r>    3.5544    1.0000 </r>
       <r>    5.2610    1.0000 </r>
       <r>    5.5871    1.0000 </r>
       <r>    5.9413    1.0000 </r>
       <r>    6.0504    1.0000 </r>
       <r>    6.9090    1.0000 </r>
       <r>    8.9331    1.0000 </r>
       <r>   10.3474    0.8338 </r>
       <r>   10.7492    0.0000 </r>
       <r>   11.1262    0.0000 </r>
       <r>   11.2402    0.0000 </r>
       <r>   11.7811    0.0000 </r>
       <r>   12.3988    0.0000 </r>
       <r>   12.8034    0.0000 </r>
       <r>   13.7858    0.0000 </r>
       <r>   13.8513    0.0000 </r>
       <r>   14.1298    0.0000 </r>
       <r>   15.9645    0.0000 </r>
      </set>
      <set comment="kpoint 21">
       <r>   -5.2635    1.0000 </r>
       <r>   -1.5239    1.0000 </r>
       <r>    2.3011    1.0000 </r>
       <r>    2.4321    1.0000 </r>
       <r>    2.4816    1.0000 </r>
       <r>    2.4816    1.0000 </r>
       <r>    2.8126    1.0000 </r>
       <r>    2.8126    1.0000 </r>
       <r>    5.8320    1.0000 </r>
       <r>    6.0312    1.0000 </r>
       <r>    6.0691    1.0000 </r>
       <r>    6.3359    1.0000 </r>
       <r>    6.3359    1.0000 </r>
       <r>    6.4863    1.0000 </r>
       <r>    6.4863    1.0000 </r>
       <r>   12.3137    0.0000 </r>
       <r>   13.0441    0.0000 </r>
       <r>   13.4444    0.0000 </r>
       <r>   13.4444    0.0000 </r>
       <r>   14.0846    0.0000 </r>
       <r>   14.0846    0.0000 </r>
       <r>   15.6042    0.0000 </r>
       <r>   15.6042    0.0000 </r>
       <r>   16.2439    0.0000 </r>
      </set>
      <set comment="kpoint 22">
       <r>   -5.1393    1.0000 </r>
       <r>   -1.4064    1.0000 </r>
       <r>    0.7569    1.0000 </r>
       <r>    1.6786    1.0000 </r>
       <r>    1.7860    1.0000 </r>
       <r>    3.4213    1.0000 </r>
       <r>    3.7059    1.0000 </r>
       <r>    4.0281    1.0000 </r>
       <r>    5.0846    1.0000 </r>
       <r>    5.4230    1.0000 </r>
       <r>    5.6335    1.0000 </r>
       <r>    6.0101    1.0000 </r>
       <r>    7.1397    1.0000 </r>
       <r>    7.4502    1.0000 </r>
       <r>    8.1795    1.0000 </r>
       <r>   11.6405    0.0000 </r>
       <r>   12.1944    0.0000 </r>
       <r>   12.8918    0.0000 </r>
       <r>   13.9437    0.0000 </r>
       <r>   14.3834    0.0000 </r>
       <r>   14.7991    0.0000 </r>
       <r>   14.8491    0.0000 </r>
       <r>   15.3197    0.0000 </r>
       <r>   16.3808    0.0000 </r>
      </set>
      <set comment="kpoint 23">
       <r>   -4.7678    1.0000 </r>
       <r>   -1.1125    1.0000 </r>
       <r>   -0.7381    1.0000 </r>
       <r>    1.0988    1.0000 </r>
       <r>    1.1797    1.0000 </r>
       <r>    2.8415    1.0000 </r>
       <r>    4.2067    1.0000 </r>
       <r>    4.5440    1.0000 </r>
       <r>    5.3422    1.0000 </r>
       <r>    5.5242    1.0000 </r>
       <r>    6.3543    1.0000 </r>
       <r>    6.9562    1.0000 </r>
       <r>    8.3062    1.0000 </r>
       <r>    8.6869    1.0000 </r>
       <r>    9.6019    1.0000 </r>
       <r>   11.0014    0.0000 </r>
       <r>   11.6074    0.0000 </r>
       <r>   12.1397    0.0000 </r>
       <r>   12.3191    0.0000 </r>
       <r>   12.9999    0.0000 </r>
       <r>   14.5365    0.0000 </r>
       <r>   15.6914    0.0000 </r>
       <r>   16.0213    0.0000 </r>
       <r>   16.3860    0.0000 </r>
      </set>
      <set comment="kpoint 24">
       <r>   -4.1527    1.0000 </r>
       <r>   -2.1679    1.0000 </r>
       <r>   -0.4272    1.0000 </r>
       <r>    0.7338    1.0000 </r>
       <r>    0.8115    1.0000 </r>
       <r>    1.5867    1.0000 </r>
       <r>    4.1849    1.0000 </r>
       <r>    4.4358    1.0000 </r>
       <r>    6.4941    1.0000 </r>
       <r>    6.8246    1.0000 </r>
       <r>    6.9275    1.0000 </r>
       <r>    8.5714    1.0000 </r>
       <r>    9.4081    1.0000 </r>
       <r>    9.5566    1.0000 </r>
       <r>   10.0218    1.0000 </r>
       <r>   10.2596    1.0000 </r>
       <r>   10.4732    0.0000 </r>
       <r>   11.5228    0.0000 </r>
       <r>   12.2165    0.0000 </r>
       <r>   12.9479    0.0000 </r>
       <r>   13.4142    0.0000 </r>
       <r>   14.4484    0.0000 </r>
       <r>   14.8064    0.0000 </r>
       <r>   16.5137    0.0000 </r>
      </set>
      <set comment="kpoint 25">
       <r>   -3.4208    1.0000 </r>
       <r>   -3.1363    1.0000 </r>
       <r>    0.3020    1.0000 </r>
       <r>    0.3535    1.0000 </r>
       <r>    0.6882    1.0000 </r>
       <r>    0.8854    1.0000 </r>
       <r>    4.1111    1.0000 </r>
       <r>    4.3417    1.0000 </r>
       <r>    7.6877    1.0000 </r>
       <r>    7.7353    1.0000 </r>
       <r>    8.0319    1.0000 </r>
       <r>    8.1702    1.0000 </r>
       <r>    8.5071    1.0000 </r>
       <r>    8.6012    1.0000 </r>
       <r>   10.6283    0.0000 </r>
       <r>   10.8564    0.0000 </r>
       <r>   11.5044    0.0000 </r>
       <r>   11.6678    0.0000 </r>
       <r>   12.0948    0.0000 </r>
       <r>   12.3872    0.0000 </r>
       <r>   12.3974    0.0000 </r>
       <r>   13.4425    0.0000 </r>
       <r>   15.0533    0.0000 </r>
       <r>   15.8198    0.0000 </r>
      </set>
      <set comment="kpoint 26">
       <r>   -4.8915    1.0000 </r>
       <r>   -1.1795    1.0000 </r>
       <r>   -0.0591    1.0000 </r>
       <r>    0.1780    1.0000 </r>
       <r>    2.8075    1.0000 </r>
       <r>    2.9807    1.0000 </r>
       <r>    3.5697    1.0000 </r>
       <r>    3.6841    1.0000 </r>
       <r>    5.9308    1.0000 </r>
       <r>    6.0020    1.0000 </r>
       <r>    6.2290    1.0000 </r>
       <r>    6.5569    1.0000 </r>
       <r>    6.6795    1.0000 </r>
       <r>    9.1764    1.0000 </r>
       <r>    9.1956    1.0000 </r>
       <r>   11.0653    0.0000 </r>
       <r>   11.2572    0.0000 </r>
       <r>   12.2132    0.0000 </r>
       <r>   13.5229    0.0000 </r>
       <r>   13.6951    0.0000 </r>
       <r>   14.5566    0.0000 </r>
       <r>   15.2681    0.0000 </r>
       <r>   15.8690    0.0000 </r>
       <r>   16.2013    0.0000 </r>
      </set>
      <set comment="kpoint 27">
       <r>   -4.3976    1.0000 </r>
       <r>   -1.4558    1.0000 </r>
       <r>   -0.7258    1.0000 </r>
       <r>   -0.3329    1.0000 </r>
       <r>    2.1959    1.0000 </r>
       <r>    2.5072    1.0000 </r>
       <r>    3.1790    1.0000 </r>
       <r>    4.2820    1.0000 </r>
       <r>    6.1985    1.0000 </r>
       <r>    6.7011    1.0000 </r>
       <r>    7.3092    1.0000 </r>
       <r>    7.9107    1.0000 </r>
       <r>    8.1617    1.0000 </r>
       <r>    9.4283    1.0000 </r>
       <r>    9.8957    1.0000 </r>
       <r>   10.1383    1.0000 </r>
       <r>   11.2562    0.0000 </r>
       <r>   11.9541    0.0000 </r>
       <r>   12.6935    0.0000 </r>
       <r>   12.9422    0.0000 </r>
       <r>   13.7481    0.0000 </r>
       <r>   15.2278    0.0000 </r>
       <r>   15.5762    0.0000 </r>
       <r>   15.9333    0.0000 </r>
      </set>
      <set comment="kpoint 28">
       <r>   -3.6691    1.0000 </r>
       <r>   -2.6463    1.0000 </r>
       <r>   -0.7151    1.0000 </r>
       <r>    0.1047    1.0000 </r>
       <r>    1.0655    1.0000 </r>
       <r>    2.2383    1.0000 </r>
       <r>    2.9606    1.0000 </r>
       <r>    5.4008    1.0000 </r>
       <r>    6.4304    1.0000 </r>
       <r>    7.3796    1.0000 </r>
       <r>    7.9508    1.0000 </r>
       <r>    8.2509    1.0000 </r>
       <r>    8.8531    1.0000 </r>
       <r>    9.5851    1.0000 </r>
       <r>   10.0015    1.0000 </r>
       <r>   10.7552    0.0000 </r>
       <r>   10.8443    0.0000 </r>
       <r>   11.2642    0.0000 </r>
       <r>   12.5954    0.0000 </r>
       <r>   13.3105    0.0000 </r>
       <r>   13.5608    0.0000 </r>
       <r>   14.2413    0.0000 </r>
       <r>   14.5495    0.0000 </r>
       <r>   15.8409    0.0000 </r>
      </set>
      <set comment="kpoint 29">
       <r>   -3.7857    1.0000 </r>
       <r>   -1.8957    1.0000 </r>
       <r>   -1.6982    1.0000 </r>
       <r>   -0.0175    1.0000 </r>
       <r>    1.8189    1.0000 </r>
       <r>    1.9799    1.0000 </r>
       <r>    3.8851    1.0000 </r>
       <r>    4.0833    1.0000 </r>
       <r>    7.1462    1.0000 </r>
       <r>    7.2521    1.0000 </r>
       <r>    7.7085    1.0000 </r>
       <r>    8.3480    1.0000 </r>
       <r>    8.9044    1.0000 </r>
       <r>    8.9155    1.0000 </r>
       <r>    9.8691    1.0000 </r>
       <r>    9.9035    1.0000 </r>
       <r>   11.2212    0.0000 </r>
       <r>   12.9478    0.0000 </r>
       <r>   13.0027    0.0000 </r>
       <r>   13.4878    0.0000 </r>
       <r>   13.7654    0.0000 </r>
       <r>   14.4255    0.0000 </r>
       <r>   14.9603    0.0000 </r>
       <r>   15.1330    0.0000 </r>
      </set>
      <set comment="kpoint 30">
       <r>   -3.0627    1.0000 </r>
       <r>   -2.7729    1.0000 </r>
       <r>   -1.8984    1.0000 </r>
       <r>    0.7073    1.0000 </r>
       <r>    0.9254    1.0000 </r>
       <r>    1.7948    1.0000 </r>
       <r>    3.8686    1.0000 </r>
       <r>    5.4937    1.0000 </r>
       <r>    5.9074    1.0000 </r>
       <r>    7.6886    1.0000 </r>
       <r>    8.0488    1.0000 </r>
       <r>    8.0663    1.0000 </r>
       <r>    8.8749    1.0000 </r>
       <r>    9.3603    1.0000 </r>
       <r>    9.4417    1.0000 </r>
       <r>   11.4327    0.0000 </r>
       <r>   11.5006    0.0000 </r>
       <r>   12.0844    0.0000 </r>
       <r>   12.6938    0.0000 </r>
       <r>   14.0524    0.0000 </r>
       <r>   14.1758    0.0000 </r>
       <r>   14.2801    0.0000 </r>
       <r>   14.7449    0.0000 </r>
       <r>   15.1786    0.0000 </r>
      </set>
      <set comment="kpoint 31">
       <r>   -4.6731    1.0000 </r>
       <r>   -2.7977    1.0000 </r>
       <r>    2.7631    1.0000 </r>
       <r>    2.8602    1.0000 </r>
       <r>    3.0339    1.0000 </r>
       <r>    3.0339    1.0000 </r>
       <r>    3.3236    1.0000 </r>
       <r>    3.3236    1.0000 </r>
       <r>    4.9367    1.0000 </r>
       <r>    4.9756    1.0000 </r>
       <r>    5.1279    1.0000 </r>
       <r>    5.1279    1.0000 </r>
       <r>    5.3414    1.0000 </r>
       <r>    5.3415    1.0000 </r>
       <r>    8.2251    1.0000 </r>
       <r>   13.1196    0.0000 </r>
       <r>   14.5896    0.0000 </r>
       <r>   14.8599    0.0000 </r>
       <r>   15.5252    0.0000 </r>
       <r>   15.5252    0.0000 </r>
       <r>   15.7475    0.0000 </r>
       <r>   15.7475    0.0000 </r>
       <r>   16.3435    0.0000 </r>
       <r>   16.3437    0.0000 </r>
      </set>
      <set comment="kpoint 32">
       <r>   -4.5494    1.0000 </r>
       <r>   -2.6763    1.0000 </r>
       <r>    1.3149    1.0000 </r>
       <r>    2.1792    1.0000 </r>
       <r>    2.3568    1.0000 </r>
       <r>    3.1081    1.0000 </r>
       <r>    3.5404    1.0000 </r>
       <r>    3.8700    1.0000 </r>
       <r>    4.6844    1.0000 </r>
       <r>    4.8001    1.0000 </r>
       <r>    5.3625    1.0000 </r>
       <r>    5.9938    1.0000 </r>
       <r>    6.2712    1.0000 </r>
       <r>    7.0463    1.0000 </r>
       <r>    8.3414    1.0000 </r>
       <r>   13.0743    0.0000 </r>
       <r>   13.9253    0.0000 </r>
       <r>   14.3596    0.0000 </r>
       <r>   14.7720    0.0000 </r>
       <r>   14.7760    0.0000 </r>
       <r>   15.3903    0.0000 </r>
       <r>   15.4831    0.0000 </r>
       <r>   16.5683    0.0000 </r>
       <r>   16.7618    0.0000 </r>
      </set>
      <set comment="kpoint 33">
       <r>   -4.1793    1.0000 </r>
       <r>   -2.3152    1.0000 </r>
       <r>   -0.2293    1.0000 </r>
       <r>    1.4377    1.0000 </r>
       <r>    1.7597    1.0000 </r>
       <r>    1.8128    1.0000 </r>
       <r>    3.3328    1.0000 </r>
       <r>    3.5562    1.0000 </r>
       <r>    5.5764    1.0000 </r>
       <r>    5.8336    1.0000 </r>
       <r>    7.1888    1.0000 </r>
       <r>    7.5053    1.0000 </r>
       <r>    7.5564    1.0000 </r>
       <r>    8.6619    1.0000 </r>
       <r>    9.1748    1.0000 </r>
       <r>   12.3871    0.0000 </r>
       <r>   12.6244    0.0000 </r>
       <r>   13.1190    0.0000 </r>
       <r>   13.4454    0.0000 </r>
       <r>   13.9577    0.0000 </r>
       <r>   14.0716    0.0000 </r>
       <r>   14.5138    0.0000 </r>
       <r>   15.7421    0.0000 </r>
       <r>   16.8436    0.0000 </r>
      </set>
      <set comment="kpoint 34">
       <r>   -3.5669    1.0000 </r>
       <r>   -1.8109    1.0000 </r>
       <r>   -1.4575    1.0000 </r>
       <r>    0.2478    1.0000 </r>
       <r>    1.3543    1.0000 </r>
       <r>    1.3951    1.0000 </r>
       <r>    3.0495    1.0000 </r>
       <r>    3.2291    1.0000 </r>
       <r>    6.9756    1.0000 </r>
       <r>    7.3470    1.0000 </r>
       <r>    8.5377    1.0000 </r>
       <r>    9.0543    1.0000 </r>
       <r>    9.2343    1.0000 </r>
       <r>    9.8046    1.0000 </r>
       <r>   10.5329    0.0000 </r>
       <r>   10.8989    0.0000 </r>
       <r>   11.0645    0.0000 </r>
       <r>   12.1061    0.0000 </r>
       <r>   12.1895    0.0000 </r>
       <r>   12.5275    0.0000 </r>
       <r>   13.5364    0.0000 </r>
       <r>   14.3257    0.0000 </r>
       <r>   14.9369    0.0000 </r>
       <r>   15.6960    0.0000 </r>
      </set>
      <set comment="kpoint 35">
       <r>   -2.8338    1.0000 </r>
       <r>   -2.5713    1.0000 </r>
       <r>   -0.9176    1.0000 </r>
       <r>   -0.7316    1.0000 </r>
       <r>    1.2305    1.0000 </r>
       <r>    1.2728    1.0000 </r>
       <r>    2.9468    1.0000 </r>
       <r>    3.1145    1.0000 </r>
       <r>    8.4884    1.0000 </r>
       <r>    8.6196    1.0000 </r>
       <r>    9.0677    1.0000 </r>
       <r>    9.1218    1.0000 </r>
       <r>    9.8441    1.0000 </r>
       <r>    9.9264    1.0000 </r>
       <r>   10.4410    0.0000 </r>
       <r>   10.5432    0.0000 </r>
       <r>   10.6343    0.0000 </r>
       <r>   10.8939    0.0000 </r>
       <r>   12.2677    0.0000 </r>
       <r>   12.8397    0.0000 </r>
       <r>   13.3677    0.0000 </r>
       <r>   14.0913    0.0000 </r>
       <r>   14.7257    0.0000 </r>
       <r>   14.7744    0.0000 </r>
      </set>
      <set comment="kpoint 36">
       <r>   -4.3025    1.0000 </r>
       <r>   -2.4347    1.0000 </r>
       <r>    0.5123    1.0000 </r>
       <r>    0.7157    1.0000 </r>
       <r>    2.3412    1.0000 </r>
       <r>    2.4931    1.0000 </r>
       <r>    3.3519    1.0000 </r>
       <r>    3.5073    1.0000 </r>
       <r>    5.4121    1.0000 </r>
       <r>    5.5455    1.0000 </r>
       <r>    6.4436    1.0000 </r>
       <r>    6.5124    1.0000 </r>
       <r>    8.1332    1.0000 </r>
       <r>    8.1919    1.0000 </r>
       <r>    8.5912    1.0000 </r>
       <r>   12.7521    0.0000 </r>
       <r>   12.7889    0.0000 </r>
       <r>   13.2212    0.0000 </r>
       <r>   13.9678    0.0000 </r>
       <r>   14.1004    0.0000 </r>
       <r>   14.9544    0.0000 </r>
       <r>   15.2958    0.0000 </r>
       <r>   15.8208    0.0000 </r>
       <r>   16.4783    0.0000 </r>
      </set>
      <set comment="kpoint 37">
       <r>   -3.8107    1.0000 </r>
       <r>   -1.9628    1.0000 </r>
       <r>   -0.8320    1.0000 </r>
       <r>    0.1371    1.0000 </r>
       <r>    1.0208    1.0000 </r>
       <r>    1.9722    1.0000 </r>
       <r>    3.0053    1.0000 </r>
       <r>    4.4102    1.0000 </r>
       <r>    5.4288    1.0000 </r>
       <r>    6.7919    1.0000 </r>
       <r>    7.8502    1.0000 </r>
       <r>    8.7402    1.0000 </r>
       <r>    8.9868    1.0000 </r>
       <r>    9.5029    1.0000 </r>
       <r>   10.2141    1.0000 </r>
       <r>   10.7081    0.0000 </r>
       <r>   12.0180    0.0000 </r>
       <r>   12.2062    0.0000 </r>
       <r>   12.5594    0.0000 </r>
       <r>   13.3817    0.0000 </r>
       <r>   14.1187    0.0000 </r>
       <r>   14.8720    0.0000 </r>
       <r>   15.6458    0.0000 </r>
       <r>   15.8479    0.0000 </r>
      </set>
      <set comment="kpoint 38">
       <r>   -3.0852    1.0000 </r>
       <r>   -2.0885    1.0000 </r>
       <r>   -1.1924    1.0000 </r>
       <r>   -0.3201    1.0000 </r>
       <r>    0.0521    1.0000 </r>
       <r>    1.7373    1.0000 </r>
       <r>    2.7831    1.0000 </r>
       <r>    4.4869    1.0000 </r>
       <r>    6.7140    1.0000 </r>
       <r>    8.0719    1.0000 </r>
       <r>    8.8814    1.0000 </r>
       <r>    9.4096    1.0000 </r>
       <r>    9.6418    1.0000 </r>
       <r>   10.1674    1.0000 </r>
       <r>   10.4632    0.0000 </r>
       <r>   10.9018    0.0000 </r>
       <r>   11.1895    0.0000 </r>
       <r>   11.4577    0.0000 </r>
       <r>   12.3444    0.0000 </r>
       <r>   13.1747    0.0000 </r>
       <r>   13.5672    0.0000 </r>
       <r>   13.8213    0.0000 </r>
       <r>   15.0965    0.0000 </r>
       <r>   15.3731    0.0000 </r>
      </set>
      <set comment="kpoint 39">
       <r>   -3.2013    1.0000 </r>
       <r>   -1.4640    1.0000 </r>
       <r>   -1.3182    1.0000 </r>
       <r>   -0.9582    1.0000 </r>
       <r>    0.5717    1.0000 </r>
       <r>    0.7619    1.0000 </r>
       <r>    4.3830    1.0000 </r>
       <r>    4.5675    1.0000 </r>
       <r>    6.3422    1.0000 </r>
       <r>    6.5909    1.0000 </r>
       <r>    8.5621    1.0000 </r>
       <r>    9.5290    1.0000 </r>
       <r>    9.9346    1.0000 </r>
       <r>   10.1334    1.0000 </r>
       <r>   10.4283    0.0000 </r>
       <r>   11.0003    0.0000 </r>
       <r>   11.1010    0.0000 </r>
       <r>   12.2614    0.0000 </r>
       <r>   12.5273    0.0000 </r>
       <r>   13.5767    0.0000 </r>
       <r>   14.1454    0.0000 </r>
       <r>   14.3909    0.0000 </r>
       <r>   15.0842    0.0000 </r>
       <r>   15.3797    0.0000 </r>
      </set>
      <set comment="kpoint 40">
       <r>   -2.4733    1.0000 </r>
       <r>   -2.2123    1.0000 </r>
       <r>   -1.3620    1.0000 </r>
       <r>   -0.5668    1.0000 </r>
       <r>   -0.2704    1.0000 </r>
       <r>    0.5614    1.0000 </r>
       <r>    4.3915    1.0000 </r>
       <r>    5.6005    1.0000 </r>
       <r>    6.4148    1.0000 </r>
       <r>    6.9336    1.0000 </r>
       <r>    8.2994    1.0000 </r>
       <r>    8.3245    1.0000 </r>
       <r>   10.2270    1.0000 </r>
       <r>   10.2671    1.0000 </r>
       <r>   10.9208    0.0000 </r>
       <r>   11.9500    0.0000 </r>
       <r>   11.9620    0.0000 </r>
       <r>   12.5443    0.0000 </r>
       <r>   13.1357    0.0000 </r>
       <r>   13.5846    0.0000 </r>
       <r>   14.1011    0.0000 </r>
       <r>   14.3176    0.0000 </r>
       <r>   14.3945    0.0000 </r>
       <r>   14.4948    0.0000 </r>
      </set>
      <set comment="kpoint 41">
       <r>   -3.8499    1.0000 </r>
       <r>   -3.8499    1.0000 </r>
       <r>    3.1353    1.0000 </r>
       <r>    3.1353    1.0000 </r>
       <r>    3.6196    1.0000 </r>
       <r>    3.6196    1.0000 </r>
       <r>    3.6196    1.0000 </r>
       <r>    3.6196    1.0000 </r>
       <r>    4.4261    1.0000 </r>
       <r>    4.4261    1.0000 </r>
       <r>    4.5757    1.0000 </r>
       <r>    4.5757    1.0000 </r>
       <r>    4.5757    1.0000 </r>
       <r>    4.5757    1.0000 </r>
       <r>   10.7118    0.0000 </r>
       <r>   10.7118    0.0000 </r>
       <r>   15.6455    0.0000 </r>
       <r>   15.6455    0.0000 </r>
       <r>   16.3796    0.0000 </r>
       <r>   16.3796    0.0000 </r>
       <r>   16.3796    0.0000 </r>
       <r>   16.3798    0.0000 </r>
       <r>   17.6602    0.0000 </r>
       <r>   17.6607    0.0000 </r>
      </set>
      <set comment="kpoint 42">
       <r>   -3.7270    1.0000 </r>
       <r>   -3.7270    1.0000 </r>
       <r>    2.0699    1.0000 </r>
       <r>    2.0699    1.0000 </r>
       <r>    2.9473    1.0000 </r>
       <r>    2.9473    1.0000 </r>
       <r>    3.1268    1.0000 </r>
       <r>    3.1268    1.0000 </r>
       <r>    5.0911    1.0000 </r>
       <r>    5.0911    1.0000 </r>
       <r>    5.3053    1.0000 </r>
       <r>    5.3053    1.0000 </r>
       <r>    6.0872    1.0000 </r>
       <r>    6.0872    1.0000 </r>
       <r>   10.8184    0.0000 </r>
       <r>   10.8184    0.0000 </r>
       <r>   15.0981    0.0000 </r>
       <r>   15.0981    0.0000 </r>
       <r>   15.6139    0.0000 </r>
       <r>   15.6139    0.0000 </r>
       <r>   15.6773    0.0000 </r>
       <r>   15.6774    0.0000 </r>
       <r>   16.7550    0.0000 </r>
       <r>   16.7600    0.0000 </r>
      </set>
      <set comment="kpoint 43">
       <r>   -3.3595    1.0000 </r>
       <r>   -3.3595    1.0000 </r>
       <r>    0.5583    1.0000 </r>
       <r>    0.5583    1.0000 </r>
       <r>    2.4200    1.0000 </r>
       <r>    2.4200    1.0000 </r>
       <r>    2.5607    1.0000 </r>
       <r>    2.5607    1.0000 </r>
       <r>    6.2676    1.0000 </r>
       <r>    6.2676    1.0000 </r>
       <r>    6.5796    1.0000 </r>
       <r>    6.5796    1.0000 </r>
       <r>    8.2493    1.0000 </r>
       <r>    8.2493    1.0000 </r>
       <r>   11.1329    0.0000 </r>
       <r>   11.1329    0.0000 </r>
       <r>   13.3000    0.0000 </r>
       <r>   13.3000    0.0000 </r>
       <r>   13.8158    0.0000 </r>
       <r>   13.8158    0.0000 </r>
       <r>   14.6744    0.0000 </r>
       <r>   14.6744    0.0000 </r>
       <r>   16.0888    0.0000 </r>
       <r>   16.0890    0.0000 </r>
      </set>
      <set comment="kpoint 44">
       <r>   -2.7542    1.0000 </r>
       <r>   -2.7542    1.0000 </r>
       <r>   -0.7554    1.0000 </r>
       <r>   -0.7554    1.0000 </r>
       <r>    2.0894    1.0000 </r>
       <r>    2.0894    1.0000 </r>
       <r>    2.2047    1.0000 </r>
       <r>    2.2047    1.0000 </r>
       <r>    7.6815    1.0000 </r>
       <r>    7.6815    1.0000 </r>
       <r>    8.1064    1.0000 </r>
       <r>    8.1064    1.0000 </r>
       <r>   10.4890    0.0000 </r>
       <r>   10.4890    0.0000 </r>
       <r>   11.3801    0.0000 </r>
       <r>   11.3801    0.0000 </r>
       <r>   11.7003    0.0000 </r>
       <r>   11.7003    0.0000 </r>
       <r>   11.7882    0.0000 </r>
       <r>   11.7882    0.0000 </r>
       <r>   13.7141    0.0000 </r>
       <r>   13.7141    0.0000 </r>
       <r>   15.6472    0.0000 </r>
       <r>   15.6473    0.0000 </r>
      </set>
      <set comment="kpoint 45">
       <r>   -2.0821    1.0000 </r>
       <r>   -2.0821    1.0000 </r>
       <r>   -1.6653    1.0000 </r>
       <r>   -1.6653    1.0000 </r>
       <r>    1.9777    1.0000 </r>
       <r>    1.9777    1.0000 </r>
       <r>    2.0847    1.0000 </r>
       <r>    2.0847    1.0000 </r>
       <r>    8.9070    1.0000 </r>
       <r>    8.9070    1.0000 </r>
       <r>    9.7004    1.0000 </r>
       <r>    9.7004    1.0000 </r>
       <r>    9.9065    1.0000 </r>
       <r>    9.9065    1.0000 </r>
       <r>   10.0147    1.0000 </r>
       <r>   10.0147    1.0000 </r>
       <r>   11.7823    0.0000 </r>
       <r>   11.7823    0.0000 </r>
       <r>   12.5484    0.0000 </r>
       <r>   12.5484    0.0000 </r>
       <r>   13.5401    0.0000 </r>
       <r>   13.5401    0.0000 </r>
       <r>   13.9495    0.0000 </r>
       <r>   13.9495    0.0000 </r>
      </set>
      <set comment="kpoint 46">
       <r>   -3.4818    1.0000 </r>
       <r>   -3.4818    1.0000 </r>
       <r>    1.2461    1.0000 </r>
       <r>    1.2461    1.0000 </r>
       <r>    1.5790    1.0000 </r>
       <r>    1.5790    1.0000 </r>
       <r>    3.8276    1.0000 </r>
       <r>    3.8276    1.0000 </r>
       <r>    4.8621    1.0000 </r>
       <r>    4.8621    1.0000 </r>
       <r>    7.1961    1.0000 </r>
       <r>    7.1961    1.0000 </r>
       <r>    7.2594    1.0000 </r>
       <r>    7.2594    1.0000 </r>
       <r>   11.0291    0.0000 </r>
       <r>   11.0291    0.0000 </r>
       <r>   13.4431    0.0000 </r>
       <r>   13.4431    0.0000 </r>
       <r>   14.7416    0.0000 </r>
       <r>   14.7416    0.0000 </r>
       <r>   15.5557    0.0000 </r>
       <r>   15.5580    0.0000 </r>
       <r>   15.9790    0.0000 </r>
       <r>   15.9836    0.0000 </r>
      </set>
      <set comment="kpoint 47">
       <r>   -2.9943    1.0000 </r>
       <r>   -2.9942    1.0000 </r>
       <r>   -0.0538    1.0000 </r>
       <r>   -0.0538    1.0000 </r>
       <r>    0.9775    1.0000 </r>
       <r>    0.9775    1.0000 </r>
       <r>    3.7321    1.0000 </r>
       <r>    3.7321    1.0000 </r>
       <r>    5.8782    1.0000 </r>
       <r>    5.8782    1.0000 </r>
       <r>    8.5904    1.0000 </r>
       <r>    8.5904    1.0000 </r>
       <r>    9.4735    1.0000 </r>
       <r>    9.4735    1.0000 </r>
       <r>   11.3139    0.0000 </r>
       <r>   11.3139    0.0000 </r>
       <r>   11.4937    0.0000 </r>
       <r>   11.4937    0.0000 </r>
       <r>   13.6417    0.0000 </r>
       <r>   13.6417    0.0000 </r>
       <r>   14.3143    0.0000 </r>
       <r>   14.3143    0.0000 </r>
       <r>   15.4339    0.0000 </r>
       <r>   15.4339    0.0000 </r>
      </set>
      <set comment="kpoint 48">
       <r>   -2.2843    1.0000 </r>
       <r>   -2.2843    1.0000 </r>
       <r>   -1.2291    1.0000 </r>
       <r>   -1.2291    1.0000 </r>
       <r>    0.7294    1.0000 </r>
       <r>    0.7294    1.0000 </r>
       <r>    3.5456    1.0000 </r>
       <r>    3.5456    1.0000 </r>
       <r>    7.3867    1.0000 </r>
       <r>    7.3867    1.0000 </r>
       <r>    9.3422    1.0000 </r>
       <r>    9.3422    1.0000 </r>
       <r>   10.1867    1.0000 </r>
       <r>   10.1867    1.0000 </r>
       <r>   11.5077    0.0000 </r>
       <r>   11.5077    0.0000 </r>
       <r>   12.0064    0.0000 </r>
       <r>   12.0064    0.0000 </r>
       <r>   12.2169    0.0000 </r>
       <r>   12.2169    0.0000 </r>
       <r>   13.4543    0.0000 </r>
       <r>   13.4543    0.0000 </r>
       <r>   14.7814    0.0000 </r>
       <r>   14.7818    0.0000 </r>
      </set>
      <set comment="kpoint 49">
       <r>   -2.3927    1.0000 </r>
       <r>   -2.3927    1.0000 </r>
       <r>   -0.5849    1.0000 </r>
       <r>   -0.5849    1.0000 </r>
       <r>   -0.1634    1.0000 </r>
       <r>   -0.1634    1.0000 </r>
       <r>    4.8648    1.0000 </r>
       <r>    4.8648    1.0000 </r>
       <r>    5.8906    1.0000 </r>
       <r>    5.8906    1.0000 </r>
       <r>    9.2230    1.0000 </r>
       <r>    9.2230    1.0000 </r>
       <r>   10.7826    0.0000 </r>
       <r>   10.7826    0.0000 </r>
       <r>   11.0221    0.0000 </r>
       <r>   11.0221    0.0000 </r>
       <r>   11.9633    0.0000 </r>
       <r>   11.9633    0.0000 </r>
       <r>   13.2908    0.0000 </r>
       <r>   13.2908    0.0000 </r>
       <r>   14.0847    0.0000 </r>
       <r>   14.0847    0.0000 </r>
       <r>   14.8255    0.0000 </r>
       <r>   14.8256    0.0000 </r>
      </set>
      <set comment="kpoint 50">
       <r>   -1.7070    1.0000 </r>
       <r>   -1.7070    1.0000 </r>
       <r>   -1.3734    1.0000 </r>
       <r>   -1.3734    1.0000 </r>
       <r>   -0.4191    1.0000 </r>
       <r>   -0.4191    1.0000 </r>
       <r>    5.0660    1.0000 </r>
       <r>    5.0660    1.0000 </r>
       <r>    6.9104    1.0000 </r>
       <r>    6.9104    1.0000 </r>
       <r>    7.7052    1.0000 </r>
       <r>    7.7052    1.0000 </r>
       <r>   11.8392    0.0000 </r>
       <r>   11.8392    0.0000 </r>
       <r>   12.4092    0.0000 </r>
       <r>   12.4092    0.0000 </r>
       <r>   12.5404    0.0000 </r>
       <r>   12.5404    0.0000 </r>
       <r>   12.9476    0.0000 </r>
       <r>   12.9476    0.0000 </r>
       <r>   13.6987    0.0000 </r>
       <r>   13.6987    0.0000 </r>
       <r>   14.0569    0.0000 </r>
       <r>   14.0569    0.0000 </r>
      </set>
     </set>
    </set>
   </array>
  </eigenvalues>
  <separator name="orbital magnetization" >
   <v name="MAGDIPOLOUT">      0.00000000      0.00000000      0.00000000</v>
  </separator>
  <dos>
   <i name="efermi">     10.36109133 </i>
   <total>
    <array>
     <dimension dim="1">gridpoints</dimension>
     <dimension dim="2">spin</dimension>
     <field>energy</field>
     <field>total</field>
     <field>integrated</field>
     <set>
      <set comment="spin 1">
       <r>    -6.9070     0.0000     0.0000 </r>
       <r>    -6.8212     0.0000     0.0000 </r>
       <r>    -6.7354     0.0000     0.0000 </r>
       <r>    -6.6496     0.0000     0.0000 </r>
       <r>    -6.5638     0.0000     0.0000 </r>
       <r>    -6.4780     0.0000     0.0000 </r>
       <r>    -6.3922     0.0000     0.0000 </r>
       <r>    -6.3065     0.0000     0.0000 </r>
       <r>    -6.2207     0.0000     0.0000 </r>
       <r>    -6.1349     0.0000     0.0000 </r>
       <r>    -6.0491     0.0000     0.0000 </r>
       <r>    -5.9633     0.0000     0.0000 </r>
       <r>    -5.8775     0.0000     0.0000 </r>
       <r>    -5.7917     0.0000     0.0000 </r>
       <r>    -5.7059     0.0449     0.0039 </r>
       <r>    -5.6201     0.1238     0.0145 </r>
       <r>    -5.5343     0.2423     0.0353 </r>
       <r>    -5.4485     0.5448     0.0820 </r>
       <r>    -5.3627     0.1473     0.0946 </r>
       <r>    -5.2769     0.1506     0.1076 </r>
       <r>    -5.1912     0.8863     0.1836 </r>
       <r>    -5.1054     1.0217     0.2712 </r>
       <r>    -5.0196     0.0711     0.2773 </r>
       <r>    -4.9338     0.0008     0.2774 </r>
       <r>    -4.8480     1.0535     0.3678 </r>
       <r>    -4.7622     0.6284     0.4217 </r>
       <r>    -4.6764     1.0864     0.5149 </r>
       <r>    -4.5906     0.3252     0.5428 </r>
       <r>    -4.5048     0.8327     0.6143 </r>
       <r>    -4.4190     0.3328     0.6428 </r>
       <r>    -4.3332     1.0300     0.7312 </r>
       <r>    -4.2474     0.7339     0.7941 </r>
       <r>    -4.1616     0.7656     0.8598 </r>
       <r>    -4.0759     1.4975     0.9883 </r>
       <r>    -3.9901     1.0779     1.0808 </r>
       <r>    -3.9043     0.0479     1.0849 </r>
       <r>    -3.8185     0.5175     1.1293 </r>
       <r>    -3.7327     1.7769     1.2817 </r>
       <r>    -3.6469     1.3875     1.4008 </r>
       <r>    -3.5611     0.5731     1.4499 </r>
       <r>    -3.4753     0.9858     1.5345 </r>
       <r>    -3.3895     1.0952     1.6285 </r>
       <r>    -3.3037     0.5516     1.6758 </r>
       <r>    -3.2179     0.2779     1.6996 </r>
       <r>    -3.1321     0.7872     1.7672 </r>
       <r>    -3.0464     2.6886     1.9978 </r>
       <r>    -2.9606     2.2306     2.1892 </r>
       <r>    -2.8748     0.0264     2.1915 </r>
       <r>    -2.7890     0.4125     2.2268 </r>
       <r>    -2.7032     1.0596     2.3177 </r>
       <r>    -2.6174     1.7853     2.4709 </r>
       <r>    -2.5316     0.4132     2.5064 </r>
       <r>    -2.4458     1.1677     2.6065 </r>
       <r>    -2.3600     1.2114     2.7105 </r>
       <r>    -2.2742     1.7165     2.8577 </r>
       <r>    -2.1884     1.9010     3.0208 </r>
       <r>    -2.1026     0.9948     3.1062 </r>
       <r>    -2.0168     1.5648     3.2404 </r>
       <r>    -1.9311     1.2502     3.3477 </r>
       <r>    -1.8453     1.6429     3.4886 </r>
       <r>    -1.7595     1.5860     3.6247 </r>
       <r>    -1.6737     1.1900     3.7268 </r>
       <r>    -1.5879     0.2251     3.7461 </r>
       <r>    -1.5021     0.0885     3.7537 </r>
       <r>    -1.4163     2.3170     3.9525 </r>
       <r>    -1.3305     1.6075     4.0904 </r>
       <r>    -1.2447     0.8686     4.1649 </r>
       <r>    -1.1589     3.0915     4.4301 </r>
       <r>    -1.0731     1.1343     4.5274 </r>
       <r>    -0.9873     1.1019     4.6220 </r>
       <r>    -0.9015     1.0140     4.7090 </r>
       <r>    -0.8158     1.3467     4.8245 </r>
       <r>    -0.7300     2.8290     5.0672 </r>
       <r>    -0.6442     1.9031     5.2305 </r>
       <r>    -0.5584     0.9263     5.3099 </r>
       <r>    -0.4726     0.4400     5.3477 </r>
       <r>    -0.3868     1.5766     5.4829 </r>
       <r>    -0.3010     2.4375     5.6921 </r>
       <r>    -0.2152     1.6356     5.8324 </r>
       <r>    -0.1294     0.6289     5.8863 </r>
       <r>    -0.0436     1.3953     6.0060 </r>
       <r>     0.0422     1.6287     6.1458 </r>
       <r>     0.1280     2.2215     6.3364 </r>
       <r>     0.2137     1.5975     6.4734 </r>
       <r>     0.2995     1.5497     6.6064 </r>
       <r>     0.3853     2.0200     6.7797 </r>
       <r>     0.4711     1.5608     6.9136 </r>
       <r>     0.5569     1.2269     7.0188 </r>
       <r>     0.6427     1.3739     7.1367 </r>
       <r>     0.7285     2.1987     7.3253 </r>
       <r>     0.8143     2.5858     7.5472 </r>
       <r>     0.9001     2.5636     7.7671 </r>
       <r>     0.9859     1.3713     7.8847 </r>
       <r>     1.0717     2.2192     8.0751 </r>
       <r>     1.1575     1.6336     8.2153 </r>
       <r>     1.2433     1.0449     8.3049 </r>
       <r>     1.3290     1.2971     8.4162 </r>
       <r>     1.4148     1.8301     8.5732 </r>
       <r>     1.5006     1.6592     8.7156 </r>
       <r>     1.5864     1.6911     8.8606 </r>
       <r>     1.6722     1.0000     8.9464 </r>
       <r>     1.7580     2.2873     9.1427 </r>
       <r>     1.8438     2.7760     9.3808 </r>
       <r>     1.9296     1.9793     9.5506 </r>
       <r>     2.0154     2.1115     9.7318 </r>
       <r>     2.1012     1.7107     9.8786 </r>
       <r>     2.1870     2.3583    10.0809 </r>
       <r>     2.2728     3.2085    10.3561 </r>
       <r>     2.3586     1.8877    10.5181 </r>
       <r>     2.4443     1.3906    10.6374 </r>
       <r>     2.5301     2.8588    10.8826 </r>
       <r>     2.6159     2.1418    11.0664 </r>
       <r>     2.7017     0.7970    11.1348 </r>
       <r>     2.7875     1.1134    11.2303 </r>
       <r>     2.8733     1.7162    11.3775 </r>
       <r>     2.9591     1.7569    11.5283 </r>
       <r>     3.0449     3.6243    11.8392 </r>
       <r>     3.1307     1.9620    12.0075 </r>
       <r>     3.2165     2.3445    12.2087 </r>
       <r>     3.3023     1.8424    12.3667 </r>
       <r>     3.3881     2.2916    12.5633 </r>
       <r>     3.4738     1.2364    12.6694 </r>
       <r>     3.5596     3.2027    12.9442 </r>
       <r>     3.6454     2.1399    13.1277 </r>
       <r>     3.7312     3.1015    13.3938 </r>
       <r>     3.8170     2.1761    13.5805 </r>
       <r>     3.9028     3.1689    13.8524 </r>
       <r>     3.9886     1.2353    13.9584 </r>
       <r>     4.0744     0.9962    14.0438 </r>
       <r>     4.1602     1.5917    14.1804 </r>
       <r>     4.2460     2.6816    14.4104 </r>
       <r>     4.3318     1.8053    14.5653 </r>
       <r>     4.4176     3.9759    14.9064 </r>
       <r>     4.5034     2.1873    15.0941 </r>
       <r>     4.5891     2.8739    15.3406 </r>
       <r>     4.6749     2.3570    15.5428 </r>
       <r>     4.7607     1.2283    15.6482 </r>
       <r>     4.8465     2.1615    15.8337 </r>
       <r>     4.9323     1.5629    15.9678 </r>
       <r>     5.0181     0.1484    15.9805 </r>
       <r>     5.1039     1.7705    16.1324 </r>
       <r>     5.1897     1.0694    16.2241 </r>
       <r>     5.2755     1.4581    16.3492 </r>
       <r>     5.3613     3.1239    16.6172 </r>
       <r>     5.4471     4.2992    16.9861 </r>
       <r>     5.5329     1.9955    17.1573 </r>
       <r>     5.6187     4.2663    17.5233 </r>
       <r>     5.7044     2.4050    17.7296 </r>
       <r>     5.7902     0.1929    17.7462 </r>
       <r>     5.8760     1.6038    17.8838 </r>
       <r>     5.9618     3.9619    18.2237 </r>
       <r>     6.0476     2.7602    18.4605 </r>
       <r>     6.1334     0.9614    18.5429 </r>
       <r>     6.2192     1.6725    18.6864 </r>
       <r>     6.3050     2.7269    18.9204 </r>
       <r>     6.3908     1.4187    19.0421 </r>
       <r>     6.4766     2.9739    19.2972 </r>
       <r>     6.5624     2.2449    19.4898 </r>
       <r>     6.6482     2.2981    19.6870 </r>
       <r>     6.7339     4.8245    20.1009 </r>
       <r>     6.8197     1.5176    20.2311 </r>
       <r>     6.9055     1.6365    20.3715 </r>
       <r>     6.9913     4.4920    20.7569 </r>
       <r>     7.0771     1.8951    20.9194 </r>
       <r>     7.1629     1.9572    21.0873 </r>
       <r>     7.2487     3.7192    21.4064 </r>
       <r>     7.3345     3.4955    21.7063 </r>
       <r>     7.4203     3.2823    21.9879 </r>
       <r>     7.5061     1.9234    22.1529 </r>
       <r>     7.5919     1.0827    22.2458 </r>
       <r>     7.6777     0.6938    22.3053 </r>
       <r>     7.7635     2.8949    22.5537 </r>
       <r>     7.8492     1.9209    22.7185 </r>
       <r>     7.9350     3.6234    23.0293 </r>
       <r>     8.0208     3.0747    23.2931 </r>
       <r>     8.1066     3.3848    23.5835 </r>
       <r>     8.1924     4.9876    24.0114 </r>
       <r>     8.2782     2.5886    24.2335 </r>
       <r>     8.3640     3.1968    24.5078 </r>
       <r>     8.4498     1.3221    24.6212 </r>
       <r>     8.5356     1.7710    24.7731 </r>
       <r>     8.6214     4.0462    25.1203 </r>
       <r>     8.7072     2.8806    25.3674 </r>
       <r>     8.7930     2.4167    25.5747 </r>
       <r>     8.8788     2.9104    25.8244 </r>
       <r>     8.9645     3.9269    26.1613 </r>
       <r>     9.0503     2.5003    26.3758 </r>
       <r>     9.1361     1.5955    26.5127 </r>
       <r>     9.2219     3.9382    26.8506 </r>
       <r>     9.3077     0.9328    26.9306 </r>
       <r>     9.3935     2.6341    27.1566 </r>
       <r>     9.4793     6.0608    27.6766 </r>
       <r>     9.5651     4.2653    28.0425 </r>
       <r>     9.6509     3.7658    28.3656 </r>
       <r>     9.7367     1.0193    28.4530 </r>
       <r>     9.8225     1.6914    28.5981 </r>
       <r>     9.9083     2.5605    28.8178 </r>
       <r>     9.9940     1.6647    28.9606 </r>
       <r>    10.0798     1.5952    29.0975 </r>
       <r>    10.1656     2.9488    29.3505 </r>
       <r>    10.2514     5.1753    29.7945 </r>
       <r>    10.3372     1.7741    29.9467 </r>
       <r>    10.4230     1.7273    30.0949 </r>
       <r>    10.5088     4.6943    30.4976 </r>
       <r>    10.5946     1.7777    30.6501 </r>
       <r>    10.6804     1.1898    30.7522 </r>
       <r>    10.7662     3.0643    31.0151 </r>
       <r>    10.8520     2.4701    31.2270 </r>
       <r>    10.9378     2.8854    31.4745 </r>
       <r>    11.0236     2.8632    31.7202 </r>
       <r>    11.1093     4.4269    32.1000 </r>
       <r>    11.1951     2.0812    32.2785 </r>
       <r>    11.2809     4.3131    32.6485 </r>
       <r>    11.3667     1.5825    32.7843 </r>
       <r>    11.4525     3.0068    33.0423 </r>
       <r>    11.5383     5.6541    33.5273 </r>
       <r>    11.6241     1.7767    33.6798 </r>
       <r>    11.7099     1.2283    33.7852 </r>
       <r>    11.7957     1.3212    33.8985 </r>
       <r>    11.8815     1.8169    34.0544 </r>
       <r>    11.9673     2.3679    34.2575 </r>
       <r>    12.0531     4.3255    34.6286 </r>
       <r>    12.1389     4.0896    34.9795 </r>
       <r>    12.2246     6.2139    35.5126 </r>
       <r>    12.3104     3.9795    35.8540 </r>
       <r>    12.3962     2.9121    36.1038 </r>
       <r>    12.4820     1.9906    36.2746 </r>
       <r>    12.5678     4.2279    36.6373 </r>
       <r>    12.6536     2.1265    36.8198 </r>
       <r>    12.7394     2.8402    37.0634 </r>
       <r>    12.8252     3.7864    37.3883 </r>
       <r>    12.9110     1.7115    37.5351 </r>
       <r>    12.9968     4.4632    37.9180 </r>
       <r>    13.0826     1.8191    38.0741 </r>
       <r>    13.1684     2.4478    38.2841 </r>
       <r>    13.2541     1.8078    38.4392 </r>
       <r>    13.3399     4.9304    38.8622 </r>
       <r>    13.4257     3.3682    39.1511 </r>
       <r>    13.5115     3.6517    39.4644 </r>
       <r>    13.5973     4.9205    39.8866 </r>
       <r>    13.6831     1.7441    40.0362 </r>
       <r>    13.7689     3.3537    40.3239 </r>
       <r>    13.8547     3.3935    40.6151 </r>
       <r>    13.9405     3.4073    40.9074 </r>
       <r>    14.0263     2.3185    41.1063 </r>
       <r>    14.1121     4.8868    41.5255 </r>
       <r>    14.1979     3.5985    41.8343 </r>
       <r>    14.2837     2.7257    42.0681 </r>
       <r>    14.3694     3.3124    42.3523 </r>
       <r>    14.4552     2.9960    42.6093 </r>
       <r>    14.5410     3.3327    42.8952 </r>
       <r>    14.6268     2.8811    43.1424 </r>
       <r>    14.7126     2.7115    43.3750 </r>
       <r>    14.7984     5.2897    43.8289 </r>
       <r>    14.8842     3.7720    44.1525 </r>
       <r>    14.9700     2.9988    44.4097 </r>
       <r>    15.0558     1.0446    44.4994 </r>
       <r>    15.1416     3.9973    44.8423 </r>
       <r>    15.2274     2.4045    45.0486 </r>
       <r>    15.3132     2.2035    45.2376 </r>
       <r>    15.3990     3.2289    45.5146 </r>
       <r>    15.4847     3.2252    45.7913 </r>
       <r>    15.5705     3.6374    46.1034 </r>
       <r>    15.6563     3.3843    46.3937 </r>
       <r>    15.7421     2.4345    46.6026 </r>
       <r>    15.8279     2.2640    46.7968 </r>
       <r>    15.9137     3.3231    47.0819 </r>
       <r>    15.9995     2.0960    47.2617 </r>
       <r>    16.0853     1.0430    47.3512 </r>
       <r>    16.1711     1.1490    47.4498 </r>
       <r>    16.2569     1.0130    47.5367 </r>
       <r>    16.3427     0.2537    47.5585 </r>
       <r>    16.4285     1.3665    47.6757 </r>
       <r>    16.5142     0.8277    47.7467 </r>
       <r>    16.6000     1.0787    47.8393 </r>
       <r>    16.6858     0.0521    47.8437 </r>
       <r>    16.7716     0.9545    47.9256 </r>
       <r>    16.8574     0.6860    47.9845 </r>
       <r>    16.9432     0.0900    47.9922 </r>
       <r>    17.0290     0.0000    47.9922 </r>
       <r>    17.1148     0.0000    47.9922 </r>
       <r>    17.2006     0.0000    47.9922 </r>
       <r>    17.2864     0.0000    47.9922 </r>
       <r>    17.3722     0.0000    47.9922 </r>
       <r>    17.4580     0.0000    47.9922 </r>
       <r>    17.5438     0.0000    47.9922 </r>
       <r>    17.6295     0.0013    47.9923 </r>
       <r>    17.7153     0.0897    48.0000 </r>
       <r>    17.8011     0.0000    48.0000 </r>
       <r>    17.8869     0.0000    48.0000 </r>
       <r>    17.9727     0.0000    48.0000 </r>
       <r>    18.0585     0.0000    48.0000 </r>
       <r>    18.1443     0.0000    48.0000 </r>
       <r>    18.2301     0.0000    48.0000 </r>
       <r>    18.3159     0.0000    48.0000 </r>
       <r>    18.4017     0.0000    48.0000 </r>
       <r>    18.4875     0.0000    48.0000 </r>
       <r>    18.5733     0.0000    48.0000 </r>
       <r>    18.6591     0.0000    48.0000 </r>
       <r>    18.7448     0.0000    48.0000 </r>
       <r>    18.8306     0.0000    48.0000 </r>
      </set>
     </set>
    </array>
   </total>
  </dos>
 </calculation>
 <structure name="finalpos" >
  <crystal>
   <varray name="basis" >
    <v>       2.50641300      -4.34123400       0.00000000 </v>
    <v>       2.50641300       4.34123400       0.00000000 </v>
    <v>       0.00000000       0.00000000       4.45324400 </v>
   </varray>
   <i name="volume">     96.91083091 </i>
   <varray name="rec_basis" >
    <v>       0.19948827      -0.11517463       0.00000000 </v>
    <v>       0.19948827       0.11517463       0.00000000 </v>
    <v>       0.00000000       0.00000000       0.22455540 </v>
   </varray>
  </crystal>
  <varray name="positions" >
   <v>       0.33333300       0.66666700       0.75000000 </v>
   <v>       0.66666700       0.33333300       0.25000000 </v>
   <v>       0.16913800       0.33827500       0.25000000 </v>
   <v>       0.66172500       0.83086200       0.25000000 </v>
   <v>       0.16913800       0.83086200       0.25000000 </v>
   <v>       0.83086200       0.66172500       0.75000000 </v>
   <v>       0.33827500       0.16913800       0.75000000 </v>
   <v>       0.83086200       0.16913800       0.75000000 </v>
  </varray>
 </structure>
</modeling>
