<?xml version="1.0" encoding="ISO-8859-1"?>
<modeling>
 <generator>
  <i name="program" type="string">vasp </i>
  <i name="version" type="string">6.2.0  </i>
  <i name="subversion" type="string">18Jan21 (build Jan 05 2022 15:41:44) complex                          parallel </i>
  <i name="platform" type="string">LinuxIFC </i>
  <i name="date" type="string">2025 05 07 </i>
  <i name="time" type="string">15:57:13 </i>
 </generator>
 <incar>
  <i type="string" name="SYSTEM">routine with relax: pwdword</i>
  <i type="string" name="PREC">Acc</i>
  <i type="int" name="IALGO">    38</i>
  <i type="string" name="ALGO">A</i>
  <i type="logical" name="ADDGRID"> T  </i>
  <i type="int" name="ICHARG">     2</i>
  <i type="int" name="NELM">   100</i>
  <i type="int" name="NELMIN">     6</i>
  <i name="EDIFF">      0.00000000</i>
  <i type="int" name="NSW">     0</i>
  <i type="int" name="ISIF">    -1</i>
  <i name="SYMPREC">      0.00010000</i>
  <i name="ENCUT">    600.00000000</i>
  <i type="logical" name="LREAL"> F  </i>
  <i type="int" name="ISMEAR">     0</i>
  <i name="SIGMA">      0.02000000</i>
  <i type="logical" name="LASPH"> T  </i>
  <i type="string" name="METAGGA">R2SCAN</i>
  <i type="logical" name="LMIXTAU"> F  </i>
 </incar>
 <primitive_cell>
  <structure name="primitive_cell" >
   <crystal>
    <varray name="basis" >
     <v>       4.93225120       0.00000000      -2.54888698 </v>
     <v>      -1.82837151       4.58084703      -2.54888698 </v>
     <v>       0.00000000       0.00000000       5.55193000 </v>
    </varray>
    <i name="volume">    125.43968585 </i>
    <varray name="rec_basis" >
     <v>       0.20274718       0.08092328       0.00000000 </v>
     <v>       0.00000000       0.21830024       0.00000000 </v>
     <v>       0.09308108       0.13737330       0.18011754 </v>
    </varray>
   </crystal>
   <varray name="positions" >
    <v>       0.24635000       0.25365000       0.50000000 </v>
    <v>       0.75365000       0.74635000       0.50000000 </v>
    <v>       0.25365000       0.75365000       0.00731000 </v>
    <v>       0.74635000       0.24635000       0.99269000 </v>
    <v>       0.22661000       0.72661000       0.95323000 </v>
    <v>       0.25000000       0.25000000       1.00000000 </v>
    <v>       0.77339000       0.27339000       0.04677000 </v>
    <v>       0.75000000       0.75000000       1.00000000 </v>
    <v>       0.72661000       0.77339000       0.50000000 </v>
    <v>       0.27339000       0.22661000       0.50000000 </v>
    <v>       0.50000000       0.00000000       0.50000000 </v>
    <v>       0.00000000       0.50000000       0.50000000 </v>
   </varray>
  </structure>
  <varray name="primitive_index" >
   <v type="int" >        1 </v>
   <v type="int" >        2 </v>
   <v type="int" >        3 </v>
   <v type="int" >        4 </v>
   <v type="int" >        5 </v>
   <v type="int" >        6 </v>
   <v type="int" >        7 </v>
   <v type="int" >        8 </v>
   <v type="int" >        9 </v>
   <v type="int" >       10 </v>
   <v type="int" >       11 </v>
   <v type="int" >       12 </v>
  </varray>
 </primitive_cell>
 <kpoints>
  <generation param="Gamma">
   <v type="int" name="divisions">       8        8        9 </v>
   <v name="usershift">      0.00000000       0.00000000       0.00000000 </v>
   <v name="genvec1">      0.12500000       0.00000000       0.00000000 </v>
   <v name="genvec2">      0.00000000       0.12500000       0.00000000 </v>
   <v name="genvec3">      0.00000000       0.00000000       0.11111111 </v>
   <v name="shift">      0.00000000       0.00000000       0.00000000 </v>
  </generation>
  <varray name="kpointlist" >
   <v>       0.00000000       0.00000000       0.00000000 </v>
   <v>       0.12500000      -0.00000000       0.00000000 </v>
   <v>       0.25000000      -0.00000000       0.00000000 </v>
   <v>       0.37500000      -0.00000000       0.00000000 </v>
   <v>       0.50000000      -0.00000000       0.00000000 </v>
   <v>       0.12500000       0.12500000       0.00000000 </v>
   <v>       0.25000000       0.12500000       0.00000000 </v>
   <v>       0.37500000       0.12500000       0.00000000 </v>
   <v>       0.50000000       0.12500000       0.00000000 </v>
   <v>      -0.37500000       0.12500000       0.00000000 </v>
   <v>      -0.25000000       0.12500000       0.00000000 </v>
   <v>      -0.12500000       0.12500000       0.00000000 </v>
   <v>       0.25000000       0.25000000       0.00000000 </v>
   <v>       0.37500000       0.25000000       0.00000000 </v>
   <v>       0.50000000       0.25000000       0.00000000 </v>
   <v>      -0.37500000       0.25000000       0.00000000 </v>
   <v>      -0.25000000       0.25000000       0.00000000 </v>
   <v>       0.37500000       0.37500000       0.00000000 </v>
   <v>       0.50000000       0.37500000       0.00000000 </v>
   <v>      -0.37500000       0.37500000       0.00000000 </v>
   <v>       0.50000000       0.50000000       0.00000000 </v>
   <v>       0.00000000       0.00000000       0.11111111 </v>
   <v>       0.12500000       0.00000000       0.11111111 </v>
   <v>       0.25000000       0.00000000       0.11111111 </v>
   <v>       0.37500000      -0.00000000       0.11111111 </v>
   <v>       0.50000000       0.00000000       0.11111111 </v>
   <v>      -0.37500000       0.00000000       0.11111111 </v>
   <v>      -0.25000000       0.00000000       0.11111111 </v>
   <v>      -0.12500000       0.00000000       0.11111111 </v>
   <v>       0.12500000       0.12500000       0.11111111 </v>
   <v>       0.25000000       0.12500000       0.11111111 </v>
   <v>       0.37500000       0.12500000       0.11111111 </v>
   <v>       0.50000000       0.12500000       0.11111111 </v>
   <v>      -0.37500000       0.12500000       0.11111111 </v>
   <v>      -0.25000000       0.12500000       0.11111111 </v>
   <v>      -0.12500000       0.12500000       0.11111111 </v>
   <v>       0.25000000       0.25000000       0.11111111 </v>
   <v>       0.37500000       0.25000000       0.11111111 </v>
   <v>       0.50000000       0.25000000       0.11111111 </v>
   <v>      -0.37500000       0.25000000       0.11111111 </v>
   <v>      -0.25000000       0.25000000       0.11111111 </v>
   <v>      -0.12500000       0.25000000       0.11111111 </v>
   <v>       0.37500000       0.37500000       0.11111111 </v>
   <v>       0.50000000       0.37500000       0.11111111 </v>
   <v>      -0.37500000       0.37500000       0.11111111 </v>
   <v>      -0.25000000       0.37500000       0.11111111 </v>
   <v>      -0.12500000       0.37500000       0.11111111 </v>
   <v>       0.50000000       0.50000000       0.11111111 </v>
   <v>      -0.37500000       0.50000000       0.11111111 </v>
   <v>      -0.25000000       0.50000000       0.11111111 </v>
   <v>      -0.12500000       0.50000000       0.11111111 </v>
   <v>      -0.37500000      -0.37500000       0.11111111 </v>
   <v>      -0.25000000      -0.37500000       0.11111111 </v>
   <v>      -0.12500000      -0.37500000       0.11111111 </v>
   <v>      -0.25000000      -0.25000000       0.11111111 </v>
   <v>      -0.12500000      -0.25000000       0.11111111 </v>
   <v>      -0.12500000      -0.12500000       0.11111111 </v>
   <v>      -0.00000000      -0.00000000       0.22222222 </v>
   <v>       0.12500000       0.00000000       0.22222222 </v>
   <v>       0.25000000       0.00000000       0.22222222 </v>
   <v>       0.37500000      -0.00000000       0.22222222 </v>
   <v>       0.50000000       0.00000000       0.22222222 </v>
   <v>      -0.37500000       0.00000000       0.22222222 </v>
   <v>      -0.25000000       0.00000000       0.22222222 </v>
   <v>      -0.12500000       0.00000000       0.22222222 </v>
   <v>       0.12500000       0.12500000       0.22222222 </v>
   <v>       0.25000000       0.12500000       0.22222222 </v>
   <v>       0.37500000       0.12500000       0.22222222 </v>
   <v>       0.50000000       0.12500000       0.22222222 </v>
   <v>      -0.37500000       0.12500000       0.22222222 </v>
   <v>      -0.25000000       0.12500000       0.22222222 </v>
   <v>      -0.12500000       0.12500000       0.22222222 </v>
   <v>       0.25000000       0.25000000       0.22222222 </v>
   <v>       0.37500000       0.25000000       0.22222222 </v>
   <v>       0.50000000       0.25000000       0.22222222 </v>
   <v>      -0.37500000       0.25000000       0.22222222 </v>
   <v>      -0.25000000       0.25000000       0.22222222 </v>
   <v>      -0.12500000       0.25000000       0.22222222 </v>
   <v>       0.37500000       0.37500000       0.22222222 </v>
   <v>       0.50000000       0.37500000       0.22222222 </v>
   <v>      -0.37500000       0.37500000       0.22222222 </v>
   <v>      -0.25000000       0.37500000       0.22222222 </v>
   <v>      -0.12500000       0.37500000       0.22222222 </v>
   <v>       0.50000000       0.50000000       0.22222222 </v>
   <v>      -0.37500000       0.50000000       0.22222222 </v>
   <v>      -0.25000000       0.50000000       0.22222222 </v>
   <v>      -0.12500000       0.50000000       0.22222222 </v>
   <v>      -0.37500000      -0.37500000       0.22222222 </v>
   <v>      -0.25000000      -0.37500000       0.22222222 </v>
   <v>      -0.12500000      -0.37500000       0.22222222 </v>
   <v>      -0.25000000      -0.25000000       0.22222222 </v>
   <v>      -0.12500000      -0.25000000       0.22222222 </v>
   <v>      -0.12500000      -0.12500000       0.22222222 </v>
   <v>      -0.00000000       0.00000000       0.33333333 </v>
   <v>       0.12500000       0.00000000       0.33333333 </v>
   <v>       0.25000000       0.00000000       0.33333333 </v>
   <v>       0.37500000       0.00000000       0.33333333 </v>
   <v>       0.50000000       0.00000000       0.33333333 </v>
   <v>      -0.37500000       0.00000000       0.33333333 </v>
   <v>      -0.25000000       0.00000000       0.33333333 </v>
   <v>      -0.12500000       0.00000000       0.33333333 </v>
   <v>       0.12500000       0.12500000       0.33333333 </v>
   <v>       0.25000000       0.12500000       0.33333333 </v>
   <v>       0.37500000       0.12500000       0.33333333 </v>
   <v>       0.50000000       0.12500000       0.33333333 </v>
   <v>      -0.37500000       0.12500000       0.33333333 </v>
   <v>      -0.25000000       0.12500000       0.33333333 </v>
   <v>      -0.12500000       0.12500000       0.33333333 </v>
   <v>       0.25000000       0.25000000       0.33333333 </v>
   <v>       0.37500000       0.25000000       0.33333333 </v>
   <v>       0.50000000       0.25000000       0.33333333 </v>
   <v>      -0.37500000       0.25000000       0.33333333 </v>
   <v>      -0.25000000       0.25000000       0.33333333 </v>
   <v>      -0.12500000       0.25000000       0.33333333 </v>
   <v>       0.37500000       0.37500000       0.33333333 </v>
   <v>       0.50000000       0.37500000       0.33333333 </v>
   <v>      -0.37500000       0.37500000       0.33333333 </v>
   <v>      -0.25000000       0.37500000       0.33333333 </v>
   <v>      -0.12500000       0.37500000       0.33333333 </v>
   <v>       0.50000000       0.50000000       0.33333333 </v>
   <v>      -0.37500000       0.50000000       0.33333333 </v>
   <v>      -0.25000000       0.50000000       0.33333333 </v>
   <v>      -0.12500000       0.50000000       0.33333333 </v>
   <v>      -0.37500000      -0.37500000       0.33333333 </v>
   <v>      -0.25000000      -0.37500000       0.33333333 </v>
   <v>      -0.12500000      -0.37500000       0.33333333 </v>
   <v>      -0.25000000      -0.25000000       0.33333333 </v>
   <v>      -0.12500000      -0.25000000       0.33333333 </v>
   <v>      -0.12500000      -0.12500000       0.33333333 </v>
   <v>      -0.00000000      -0.00000000       0.44444444 </v>
   <v>       0.12500000       0.00000000       0.44444444 </v>
   <v>       0.25000000       0.00000000       0.44444444 </v>
   <v>       0.37500000       0.00000000       0.44444444 </v>
   <v>       0.50000000       0.00000000       0.44444444 </v>
   <v>      -0.37500000       0.00000000       0.44444444 </v>
   <v>      -0.25000000       0.00000000       0.44444444 </v>
   <v>      -0.12500000       0.00000000       0.44444444 </v>
   <v>       0.12500000       0.12500000       0.44444444 </v>
   <v>       0.25000000       0.12500000       0.44444444 </v>
   <v>       0.37500000       0.12500000       0.44444444 </v>
   <v>       0.50000000       0.12500000       0.44444444 </v>
   <v>      -0.37500000       0.12500000       0.44444444 </v>
   <v>      -0.25000000       0.12500000       0.44444444 </v>
   <v>      -0.12500000       0.12500000       0.44444444 </v>
   <v>       0.25000000       0.25000000       0.44444444 </v>
   <v>       0.37500000       0.25000000       0.44444444 </v>
   <v>       0.50000000       0.25000000       0.44444444 </v>
   <v>      -0.37500000       0.25000000       0.44444444 </v>
   <v>      -0.25000000       0.25000000       0.44444444 </v>
   <v>      -0.12500000       0.25000000       0.44444444 </v>
   <v>       0.37500000       0.37500000       0.44444444 </v>
   <v>       0.50000000       0.37500000       0.44444444 </v>
   <v>      -0.37500000       0.37500000       0.44444444 </v>
   <v>      -0.25000000       0.37500000       0.44444444 </v>
   <v>      -0.12500000       0.37500000       0.44444444 </v>
   <v>       0.50000000       0.50000000       0.44444444 </v>
   <v>      -0.37500000       0.50000000       0.44444444 </v>
   <v>      -0.25000000       0.50000000       0.44444444 </v>
   <v>      -0.12500000       0.50000000       0.44444444 </v>
   <v>      -0.37500000      -0.37500000       0.44444444 </v>
   <v>      -0.25000000      -0.37500000       0.44444444 </v>
   <v>      -0.12500000      -0.37500000       0.44444444 </v>
   <v>      -0.25000000      -0.25000000       0.44444444 </v>
   <v>      -0.12500000      -0.25000000       0.44444444 </v>
   <v>      -0.12500000      -0.12500000       0.44444444 </v>
  </varray>
  <varray name="weights" >
   <v>       0.00173611 </v>
   <v>       0.00694444 </v>
   <v>       0.00694444 </v>
   <v>       0.00694444 </v>
   <v>       0.00347222 </v>
   <v>       0.00347222 </v>
   <v>       0.00694444 </v>
   <v>       0.00694444 </v>
   <v>       0.00694444 </v>
   <v>       0.00694444 </v>
   <v>       0.00694444 </v>
   <v>       0.00347222 </v>
   <v>       0.00347222 </v>
   <v>       0.00694444 </v>
   <v>       0.00694444 </v>
   <v>       0.00694444 </v>
   <v>       0.00347222 </v>
   <v>       0.00347222 </v>
   <v>       0.00694444 </v>
   <v>       0.00347222 </v>
   <v>       0.00173611 </v>
   <v>       0.00347222 </v>
   <v>       0.00694444 </v>
   <v>       0.00694444 </v>
   <v>       0.00694444 </v>
   <v>       0.00694444 </v>
   <v>       0.00694444 </v>
   <v>       0.00694444 </v>
   <v>       0.00694444 </v>
   <v>       0.00347222 </v>
   <v>       0.00694444 </v>
   <v>       0.00694444 </v>
   <v>       0.00694444 </v>
   <v>       0.00694444 </v>
   <v>       0.00694444 </v>
   <v>       0.00694444 </v>
   <v>       0.00347222 </v>
   <v>       0.00694444 </v>
   <v>       0.00694444 </v>
   <v>       0.00694444 </v>
   <v>       0.00694444 </v>
   <v>       0.00694444 </v>
   <v>       0.00347222 </v>
   <v>       0.00694444 </v>
   <v>       0.00694444 </v>
   <v>       0.00694444 </v>
   <v>       0.00694444 </v>
   <v>       0.00347222 </v>
   <v>       0.00694444 </v>
   <v>       0.00694444 </v>
   <v>       0.00694444 </v>
   <v>       0.00347222 </v>
   <v>       0.00694444 </v>
   <v>       0.00694444 </v>
   <v>       0.00347222 </v>
   <v>       0.00694444 </v>
   <v>       0.00347222 </v>
   <v>       0.00347222 </v>
   <v>       0.00694444 </v>
   <v>       0.00694444 </v>
   <v>       0.00694444 </v>
   <v>       0.00694444 </v>
   <v>       0.00694444 </v>
   <v>       0.00694444 </v>
   <v>       0.00694444 </v>
   <v>       0.00347222 </v>
   <v>       0.00694444 </v>
   <v>       0.00694444 </v>
   <v>       0.00694444 </v>
   <v>       0.00694444 </v>
   <v>       0.00694444 </v>
   <v>       0.00694444 </v>
   <v>       0.00347222 </v>
   <v>       0.00694444 </v>
   <v>       0.00694444 </v>
   <v>       0.00694444 </v>
   <v>       0.00694444 </v>
   <v>       0.00694444 </v>
   <v>       0.00347222 </v>
   <v>       0.00694444 </v>
   <v>       0.00694444 </v>
   <v>       0.00694444 </v>
   <v>       0.00694444 </v>
   <v>       0.00347222 </v>
   <v>       0.00694444 </v>
   <v>       0.00694444 </v>
   <v>       0.00694444 </v>
   <v>       0.00347222 </v>
   <v>       0.00694444 </v>
   <v>       0.00694444 </v>
   <v>       0.00347222 </v>
   <v>       0.00694444 </v>
   <v>       0.00347222 </v>
   <v>       0.00347222 </v>
   <v>       0.00694444 </v>
   <v>       0.00694444 </v>
   <v>       0.00694444 </v>
   <v>       0.00694444 </v>
   <v>       0.00694444 </v>
   <v>       0.00694444 </v>
   <v>       0.00694444 </v>
   <v>       0.00347222 </v>
   <v>       0.00694444 </v>
   <v>       0.00694444 </v>
   <v>       0.00694444 </v>
   <v>       0.00694444 </v>
   <v>       0.00694444 </v>
   <v>       0.00694444 </v>
   <v>       0.00347222 </v>
   <v>       0.00694444 </v>
   <v>       0.00694444 </v>
   <v>       0.00694444 </v>
   <v>       0.00694444 </v>
   <v>       0.00694444 </v>
   <v>       0.00347222 </v>
   <v>       0.00694444 </v>
   <v>       0.00694444 </v>
   <v>       0.00694444 </v>
   <v>       0.00694444 </v>
   <v>       0.00347222 </v>
   <v>       0.00694444 </v>
   <v>       0.00694444 </v>
   <v>       0.00694444 </v>
   <v>       0.00347222 </v>
   <v>       0.00694444 </v>
   <v>       0.00694444 </v>
   <v>       0.00347222 </v>
   <v>       0.00694444 </v>
   <v>       0.00347222 </v>
   <v>       0.00347222 </v>
   <v>       0.00694444 </v>
   <v>       0.00694444 </v>
   <v>       0.00694444 </v>
   <v>       0.00694444 </v>
   <v>       0.00694444 </v>
   <v>       0.00694444 </v>
   <v>       0.00694444 </v>
   <v>       0.00347222 </v>
   <v>       0.00694444 </v>
   <v>       0.00694444 </v>
   <v>       0.00694444 </v>
   <v>       0.00694444 </v>
   <v>       0.00694444 </v>
   <v>       0.00694444 </v>
   <v>       0.00347222 </v>
   <v>       0.00694444 </v>
   <v>       0.00694444 </v>
   <v>       0.00694444 </v>
   <v>       0.00694444 </v>
   <v>       0.00694444 </v>
   <v>       0.00347222 </v>
   <v>       0.00694444 </v>
   <v>       0.00694444 </v>
   <v>       0.00694444 </v>
   <v>       0.00694444 </v>
   <v>       0.00347222 </v>
   <v>       0.00694444 </v>
   <v>       0.00694444 </v>
   <v>       0.00694444 </v>
   <v>       0.00347222 </v>
   <v>       0.00694444 </v>
   <v>       0.00694444 </v>
   <v>       0.00347222 </v>
   <v>       0.00694444 </v>
   <v>       0.00347222 </v>
  </varray>
 </kpoints>
 <parameters>
  <separator name="general" >
   <i type="string" name="SYSTEM">routine with relax: pwdword</i>
   <i type="logical" name="LCOMPAT"> F  </i>
  </separator>
  <separator name="electronic" >
   <i type="string" name="PREC">acc</i>
   <i name="ENMAX">    600.00000000</i>
   <i name="ENAUG">    535.51400000</i>
   <i name="EDIFF">      0.00000000</i>
   <i type="int" name="IALGO">    58</i>
   <i type="int" name="IWAVPR">    10</i>
   <i type="int" name="NBANDS">    66</i>
   <i type="int" name="NBANDSLOW">    -1</i>
   <i type="int" name="NBANDSHIGH">    -1</i>
   <i name="NELECT">    104.00000000</i>
   <i type="int" name="TURBO">     0</i>
   <i type="int" name="IRESTART">     0</i>
   <i type="int" name="NREBOOT">     0</i>
   <i type="int" name="NMIN">     0</i>
   <i name="EREF">      0.00000000</i>
   <separator name="electronic smearing" >
    <i type="int" name="ISMEAR">     0</i>
    <i name="SIGMA">      0.02000000</i>
    <i name="KSPACING">      0.50000000</i>
    <i type="logical" name="KGAMMA"> T  </i>
    <i type="logical" name="KBLOWUP"> F  </i>
   </separator>
   <separator name="electronic projectors" >
    <i type="logical" name="LREAL"> F  </i>
    <v name="ROPT">      0.00000000      0.00000000      0.00000000</v>
    <i type="int" name="LMAXPAW">  -100</i>
    <i type="int" name="LMAXMIX">     2</i>
    <i type="logical" name="NLSPLINE"> F  </i>
   </separator>
   <separator name="electronic startup" >
    <i type="int" name="ISTART">     0</i>
    <i type="int" name="ICHARG">     2</i>
    <i type="int" name="INIWAV">     1</i>
   </separator>
   <separator name="electronic spin" >
    <i type="int" name="ISPIN">     1</i>
    <i type="logical" name="LNONCOLLINEAR"> F  </i>
    <v name="MAGMOM">      1.00000000      1.00000000      1.00000000      1.00000000      1.00000000      1.00000000      1.00000000      1.00000000      1.00000000      1.00000000      1.00000000      1.00000000</v>
    <i name="NUPDOWN">     -1.00000000</i>
    <i type="logical" name="LSORBIT"> F  </i>
    <v name="SAXIS">      0.00000000      0.00000000      1.00000000</v>
    <i type="logical" name="LSPIRAL"> F  </i>
    <v name="QSPIRAL">      0.00000000      0.00000000      0.00000000</v>
    <i type="logical" name="LZEROZ"> F  </i>
   </separator>
   <separator name="electronic exchange-correlation" >
    <i type="logical" name="LASPH"> T  </i>
    <i type="logical" name="LMETAGGA"> F  </i>
   </separator>
   <separator name="electronic convergence" >
    <i type="int" name="NELM">   100</i>
    <i type="int" name="NELMDL">    -5</i>
    <i type="int" name="NELMIN">     6</i>
    <i name="ENINI">    600.00000000</i>
    <separator name="electronic convergence detail" >
     <i type="logical" name="LDIAG"> T  </i>
     <i type="logical" name="LSUBROT"> F  </i>
     <i name="WEIMIN">      0.00000000</i>
     <i name="EBREAK">      0.00000000</i>
     <i name="DEPER">      0.30000000</i>
     <i type="int" name="NRMM">     4</i>
     <i name="TIME">      0.40000000</i>
    </separator>
   </separator>
   <separator name="electronic mixer" >
    <i name="AMIX">      0.40000000</i>
    <i name="BMIX">      1.00000000</i>
    <i name="AMIN">      0.10000000</i>
    <i name="AMIX_MAG">      1.60000000</i>
    <i name="BMIX_MAG">      1.00000000</i>
    <separator name="electronic mixer details" >
     <i type="int" name="IMIX">     4</i>
     <i type="logical" name="MIXFIRST"> F  </i>
     <i type="int" name="MAXMIX">   -45</i>
     <i name="WC">    100.00000000</i>
     <i type="int" name="INIMIX">     1</i>
     <i type="int" name="MIXPRE">     1</i>
     <i type="int" name="MREMOVE">     5</i>
    </separator>
   </separator>
   <separator name="electronic dipolcorrection" >
    <i type="logical" name="LDIPOL"> F  </i>
    <i type="logical" name="LMONO"> F  </i>
    <i type="int" name="IDIPOL">     0</i>
    <i name="EPSILON">      1.00000000</i>
    <v name="DIPOL">   -100.00000000   -100.00000000   -100.00000000</v>
    <i name="EFIELD">      0.00000000</i>
   </separator>
  </separator>
  <separator name="grids" >
   <i type="int" name="NGX">    48</i>
   <i type="int" name="NGY">    48</i>
   <i type="int" name="NGZ">    48</i>
   <i type="int" name="NGXF">    96</i>
   <i type="int" name="NGYF">    96</i>
   <i type="int" name="NGZF">    96</i>
   <i type="logical" name="ADDGRID"> T  </i>
  </separator>
  <separator name="ionic" >
   <i type="int" name="NSW">     0</i>
   <i type="int" name="IBRION">    -1</i>
   <i type="int" name="MDALGO">     0</i>
   <i type="int" name="ISIF">    -1</i>
   <i name="PSTRESS">      0.00000000</i>
   <i name="EDIFFG">      0.00000001</i>
   <i type="int" name="NFREE">     0</i>
   <i name="POTIM">      0.50000000</i>
   <i name="SMASS">     -3.00000000</i>
   <i name="SCALEE">      1.00000000</i>
  </separator>
  <separator name="ionic md" >
   <i name="TEBEG">      0.00010000</i>
   <i name="TEEND">      0.00010000</i>
   <i type="int" name="NBLOCK">     1</i>
   <i type="int" name="KBLOCK">     1</i>
   <i type="int" name="NPACO">   256</i>
   <i name="APACO">     16.00000000</i>
  </separator>
  <separator name="symmetry" >
   <i type="int" name="ISYM">     2</i>
   <i name="SYMPREC">      0.00010000</i>
  </separator>
  <separator name="dos" >
   <i type="int" name="LORBIT">     0</i>
   <v name="RWIGS">     -1.00000000     -1.00000000     -1.00000000</v>
   <i type="int" name="NEDOS">   301</i>
   <i name="EMIN">     10.00000000</i>
   <i name="EMAX">    -10.00000000</i>
   <i name="EFERMI">      0.00000000</i>
  </separator>
  <separator name="writing" >
   <i type="int" name="NWRITE">     2</i>
   <i type="logical" name="LWAVE"> T  </i>
   <i type="logical" name="LDOWNSAMPLE"> F  </i>
   <i type="logical" name="LCHARG"> T  </i>
   <i type="logical" name="LPARD"> F  </i>
   <i type="logical" name="LVTOT"> F  </i>
   <i type="logical" name="LVHAR"> F  </i>
   <i type="logical" name="LELF"> F  </i>
   <i type="logical" name="LOPTICS"> F  </i>
   <v name="STM">      0.00000000      0.00000000      0.00000000      0.00000000      0.00000000      0.00000000      0.00000000</v>
  </separator>
  <separator name="performance" >
   <i type="int" name="NPAR">     6</i>
   <i type="int" name="NSIM">     4</i>
   <i type="int" name="NBLK">    -1</i>
   <i type="logical" name="LPLANE"> T  </i>
   <i type="logical" name="LSCALAPACK"> T  </i>
   <i type="logical" name="LSCAAWARE"> F  </i>
   <i type="logical" name="LSCALU"> F  </i>
   <i type="logical" name="LASYNC"> F  </i>
   <i type="logical" name="LORBITALREAL"> F  </i>
  </separator>
  <separator name="miscellaneous" >
   <i type="int" name="IDIOT">     3</i>
   <i type="int" name="PHON_NSTRUCT">    -1</i>
   <i type="logical" name="LMUSIC"> F  </i>
   <v name="POMASS">     10.81100000     95.94000000     28.08500000</v>
   <v name="DARWINR">      0.00000000      0.00000000      0.00000000</v>
   <v name="DARWINV">      1.00000000      1.00000000      1.00000000</v>
   <i type="logical" name="LCORR"> T  </i>
  </separator>
  <i type="logical" name="GGA_COMPAT"> T  </i>
  <i type="logical" name="LBERRY"> F  </i>
  <i type="int" name="ICORELEVEL">     0</i>
  <i type="logical" name="LDAU"> F  </i>
  <i type="int" name="I_CONSTRAINED_M">     0</i>
  <separator name="electronic exchange-correlation" >
   <i type="string" name="GGA">--</i>
   <i type="int" name="VOSKOWN">     0</i>
   <i type="logical" name="LHFCALC"> F  </i>
   <i type="string" name="PRECFOCK"></i>
   <i type="logical" name="LSYMGRAD"> F  </i>
   <i type="logical" name="LHFONE"> F  </i>
   <i type="logical" name="LRHFCALC"> F  </i>
   <i type="logical" name="LTHOMAS"> F  </i>
   <i type="logical" name="LMODELHF"> F  </i>
   <i type="logical" name="LFOCKACE"> F  </i>
   <i name="ENCUT4O">     -1.00000000</i>
   <i type="int" name="EXXOEP">     0</i>
   <i type="int" name="FOURORBIT">     0</i>
   <i name="AEXX">      0.00000000</i>
   <i name="HFALPHA">      0.00000000</i>
   <i name="MCALPHA">      0.00000000</i>
   <i name="ALDAX">      1.00000000</i>
   <i name="AGGAX">      1.00000000</i>
   <i name="ALDAC">      1.00000000</i>
   <i name="AGGAC">      1.00000000</i>
   <i type="int" name="NKREDX">     1</i>
   <i type="int" name="NKREDY">     1</i>
   <i type="int" name="NKREDZ">     1</i>
   <i type="logical" name="SHIFTRED"> F  </i>
   <i type="logical" name="ODDONLY"> F  </i>
   <i type="logical" name="EVENONLY"> F  </i>
   <i type="int" name="LMAXFOCK">     0</i>
   <i type="int" name="NMAXFOCKAE">     0</i>
   <i type="logical" name="LFOCKAEDFT"> F  </i>
   <i name="HFSCREEN">      0.00000000</i>
   <i name="HFSCREENC">      0.00000000</i>
   <i type="int" name="NBANDSGWLOW">     0</i>
  </separator>
  <separator name="vdW DFT" >
   <i type="logical" name="LUSE_VDW"> F  </i>
   <i name="Zab_VDW">     -0.84910000</i>
   <i name="PARAM1">      0.12340000</i>
   <i name="PARAM2">      1.00000000</i>
   <i name="PARAM3">      0.00000000</i>
  </separator>
  <separator name="model GW" >
   <i type="int" name="MODEL_GW">     0</i>
   <i name="MODEL_EPS0">      6.27198429</i>
   <i name="MODEL_ALPHA">      1.00000000</i>
  </separator>
  <separator name="linear response parameters" >
   <i type="logical" name="LEPSILON"> F  </i>
   <i type="logical" name="LRPA"> F  </i>
   <i type="logical" name="LNABLA"> F  </i>
   <i type="logical" name="LVEL"> F  </i>
   <i type="int" name="KINTER">     0</i>
   <i name="CSHIFT">      0.10000000</i>
   <i name="OMEGAMAX">     -1.00000000</i>
   <i name="DEG_THRESHOLD">      0.00200000</i>
   <i name="RTIME">     -0.10000000</i>
   <i name="WPLASMAI">      0.00000000</i>
   <v name="DFIELD">      0.00000000      0.00000000      0.00000000</v>
   <v name="WPLASMA">      0.00000000      0.00000000      0.00000000      0.00000000      0.00000000      0.00000000      0.00000000      0.00000000      0.00000000</v>
  </separator>
  <separator name="orbital magnetization" >
   <i type="logical" name="NUCIND"> F  </i>
   <v name="MAGPOS">      0.00000000      0.00000000      0.00000000</v>
   <i type="logical" name="LNICSALL"> T  </i>
   <i type="logical" name="ORBITALMAG"> F  </i>
   <i type="logical" name="LMAGBLOCH"> F  </i>
   <i type="logical" name="LCHIMAG"> F  </i>
   <i type="logical" name="LGAUGE"> T  </i>
   <i type="int" name="MAGATOM">     0</i>
   <v name="MAGDIPOL">      0.00000000      0.00000000      0.00000000</v>
   <v name="AVECCONST">      0.00000000      0.00000000      0.00000000</v>
  </separator>
  <separator name="response functions" >
   <i type="logical" name="LFINITE_TEMPERATURE"> F  </i>
   <i type="logical" name="LADDER"> F  </i>
   <i type="logical" name="LRPAFORCE"> F  </i>
   <i type="logical" name="LFXC"> F  </i>
   <i type="logical" name="LHARTREE"> T  </i>
   <i type="int" name="IBSE">     0</i>
   <v type="int" name="KPOINT">    -1     0     0     0</v>
   <i type="logical" name="LTCTC"> F  </i>
   <i type="logical" name="LTCTE"> F  </i>
   <i type="logical" name="LTETE"> F  </i>
   <i type="logical" name="LTRIPLET"> F  </i>
   <i type="logical" name="LFXCEPS"> F  </i>
   <i type="logical" name="LFXHEG"> F  </i>
   <i type="int" name="NATURALO">     2</i>
   <i type="logical" name="LHOLEGF"> F  </i>
   <i type="logical" name="L2ORDER"> F  </i>
   <i type="logical" name="LDMP1"> F  </i>
   <i type="logical" name="LMP2LT"> F  </i>
   <i type="logical" name="LSMP2LT"> F  </i>
   <i type="logical" name="LGWLF"> F  </i>
   <i name="ENCUTGW">     -2.00000000</i>
   <i name="ENCUTGWSOFT">     -2.00000000</i>
   <i name="ENCUTLF">     -1.00000000</i>
   <i type="logical" name="LESF_SPLINES"> F  </i>
   <i type="int" name="LMAXMP2">    -1</i>
   <i name="SCISSOR">      0.00000000</i>
   <i type="int" name="NOMEGA">     0</i>
   <i type="int" name="NOMEGAR">     0</i>
   <i type="int" name="NBANDSGW">    -1</i>
   <i type="int" name="NBANDSO">    -1</i>
   <i type="int" name="NBANDSV">    -1</i>
   <i type="int" name="NELM">   100</i>
   <i type="int" name="NELMHF">     1</i>
   <i type="int" name="DIM">     3</i>
   <i type="int" name="IESPILON">     4</i>
   <i type="int" name="ANTIRES">     0</i>
   <i name="OMEGAMAX">    -30.00000000</i>
   <i name="OMEGAMIN">    -30.00000000</i>
   <i name="OMEGATL">   -200.00000000</i>
   <i type="int" name="OMEGAGRID">     0</i>
   <i name="CSHIFT">     -0.10000000</i>
   <i type="logical" name="LSELFENERGY"> F  </i>
   <i type="logical" name="LSPECTRAL"> F  </i>
   <i type="logical" name="LSPECTRALGW"> F  </i>
   <i type="logical" name="LSINGLES"> F  </i>
   <i type="logical" name="LFERMIGW"> F  </i>
   <i type="logical" name="ODDONLYGW"> F  </i>
   <i type="logical" name="EVENONLYGW"> F  </i>
   <i type="int" name="NKREDLFX">     1</i>
   <i type="int" name="NKREDLFY">     1</i>
   <i type="int" name="NKREDLFZ">     1</i>
   <i type="int" name="MAXMEM">  2800</i>
   <i type="int" name="TELESCOPE">     0</i>
   <i type="int" name="NTAUPAR">    -1</i>
   <i type="int" name="NOMEGAPAR">    -1</i>
   <i name="DAMP_NEWTON">      0.80000001</i>
   <i name="LAMBDA">      1.00000000</i>
  </separator>
  <separator name="External order field" >
   <i name="OFIELD_KAPPA">      0.00000000</i>
   <v name="OFIELD_K">      0.00000000      0.00000000      0.00000000</v>
   <i name="OFIELD_Q6_NEAR">      0.00000000</i>
   <i name="OFIELD_Q6_FAR">      0.00000000</i>
   <i name="OFIELD_A">      0.00000000</i>
  </separator>
 </parameters>
 <atominfo>
  <atoms>      12 </atoms>
  <types>       3 </types>
  <array name="atoms" >
   <dimension dim="1">ion</dimension>
   <field type="string">element</field>
   <field type="int">atomtype</field>
   <set>
    <rc><c>B </c><c>   1</c></rc>
    <rc><c>B </c><c>   1</c></rc>
    <rc><c>B </c><c>   1</c></rc>
    <rc><c>B </c><c>   1</c></rc>
    <rc><c>Mo</c><c>   2</c></rc>
    <rc><c>Mo</c><c>   2</c></rc>
    <rc><c>Mo</c><c>   2</c></rc>
    <rc><c>Mo</c><c>   2</c></rc>
    <rc><c>Mo</c><c>   2</c></rc>
    <rc><c>Mo</c><c>   2</c></rc>
    <rc><c>Si</c><c>   3</c></rc>
    <rc><c>Si</c><c>   3</c></rc>
   </set>
  </array>
  <array name="atomtypes" >
   <dimension dim="1">type</dimension>
   <field type="int">atomspertype</field>
   <field type="string">element</field>
   <field>mass</field>
   <field>valence</field>
   <field type="string">pseudopotential</field>
   <set>
    <rc><c>   4</c><c>B </c><c>     10.81100000</c><c>      3.00000000</c><c>  PAW_PBE B 06Sep2000                   </c></rc>
    <rc><c>   6</c><c>Mo</c><c>     95.94000000</c><c>     14.00000000</c><c>  PAW_PBE Mo_sv 02Feb2006               </c></rc>
    <rc><c>   2</c><c>Si</c><c>     28.08500000</c><c>      4.00000000</c><c>  PAW_PBE Si 05Jan2001                  </c></rc>
   </set>
  </array>
 </atominfo>
 <structure name="initialpos" >
  <crystal>
   <varray name="basis" >
    <v>       4.93225120       0.00000000      -2.54888698 </v>
    <v>      -1.82837151       4.58084703      -2.54888698 </v>
    <v>       0.00000000       0.00000000       5.55193000 </v>
   </varray>
   <i name="volume">    125.43968585 </i>
   <varray name="rec_basis" >
    <v>       0.20274718       0.08092328       0.00000000 </v>
    <v>       0.00000000       0.21830024       0.00000000 </v>
    <v>       0.09308108       0.13737330       0.18011754 </v>
   </varray>
  </crystal>
  <varray name="positions" >
   <v>       0.24635000       0.25365000       0.50000000 </v>
   <v>       0.75365000       0.74635000       0.50000000 </v>
   <v>       0.25365000       0.75365000       0.00731000 </v>
   <v>       0.74635000       0.24635000       0.99269000 </v>
   <v>       0.22661000       0.72661000       0.95323000 </v>
   <v>       0.25000000       0.25000000       0.00000000 </v>
   <v>       0.77339000       0.27339000       0.04677000 </v>
   <v>       0.75000000       0.75000000       0.00000000 </v>
   <v>       0.72661000       0.77339000       0.50000000 </v>
   <v>       0.27339000       0.22661000       0.50000000 </v>
   <v>       0.50000000       0.00000000       0.50000000 </v>
   <v>       0.00000000       0.50000000       0.50000000 </v>
  </varray>
 </structure>
 <calculation>
  <scstep>
   <time name="total">   25.38   25.66</time>
   <energy>
    <i name="alphaZ">    744.81376823 </i>
    <i name="ewald">   -897.42992111 </i>
    <i name="hartreedc">  -2781.44321527 </i>
    <i name="XCdc">    514.53363796 </i>
    <i name="pawpsdc">   9250.47132855 </i>
    <i name="pawaedc">  -9210.50234729 </i>
    <i name="eentropy">     -0.00073405 </i>
    <i name="bandstr">   -491.06356187 </i>
    <i name="atom">  11664.50664672 </i>
    <i name="e_fr_energy">   8793.88560188 </i>
    <i name="e_wo_entrp">   8793.88633593 </i>
    <i name="e_0_energy">   8793.88596890 </i>
   </energy>
  </scstep>
  <scstep>
   <time name="total">   25.11   25.34</time>
   <energy>
    <i name="e_fr_energy">   7264.53954514 </i>
    <i name="e_wo_entrp">   7264.53997715 </i>
    <i name="e_0_energy">   7264.53976115 </i>
   </energy>
  </scstep>
  <scstep>
   <time name="total">   25.83   26.06</time>
   <energy>
    <i name="e_fr_energy">   7211.16271879 </i>
    <i name="e_wo_entrp">   7211.16333167 </i>
    <i name="e_0_energy">   7211.16302523 </i>
   </energy>
  </scstep>
  <scstep>
   <time name="total">   25.52   25.75</time>
   <energy>
    <i name="e_fr_energy">   7210.52993427 </i>
    <i name="e_wo_entrp">   7210.53065964 </i>
    <i name="e_0_energy">   7210.53029696 </i>
   </energy>
  </scstep>
  <scstep>
   <time name="total">   27.60   27.83</time>
   <energy>
    <i name="e_fr_energy">   7210.52161027 </i>
    <i name="e_wo_entrp">   7210.52233250 </i>
    <i name="e_0_energy">   7210.52197138 </i>
   </energy>
  </scstep>
  <scstep>
   <time name="total">   28.11   28.33</time>
   <energy>
    <i name="e_fr_energy">   7770.64268405 </i>
    <i name="e_wo_entrp">   7770.64443553 </i>
    <i name="e_0_energy">   7770.64355979 </i>
   </energy>
  </scstep>
  <scstep>
   <time name="total">   28.19   28.42</time>
   <energy>
    <i name="e_fr_energy">   7491.01967677 </i>
    <i name="e_wo_entrp">   7491.02157097 </i>
    <i name="e_0_energy">   7491.02062387 </i>
   </energy>
  </scstep>
  <scstep>
   <time name="total">   28.30   28.52</time>
   <energy>
    <i name="e_fr_energy">   7445.61072404 </i>
    <i name="e_wo_entrp">   7445.61298656 </i>
    <i name="e_0_energy">   7445.61185530 </i>
   </energy>
  </scstep>
  <scstep>
   <time name="total">   28.45   28.68</time>
   <energy>
    <i name="e_fr_energy">   7431.00427154 </i>
    <i name="e_wo_entrp">   7431.00649492 </i>
    <i name="e_0_energy">   7431.00538323 </i>
   </energy>
  </scstep>
  <scstep>
   <time name="total">   28.21   28.43</time>
   <energy>
    <i name="e_fr_energy">   7423.29332905 </i>
    <i name="e_wo_entrp">   7423.29557842 </i>
    <i name="e_0_energy">   7423.29445374 </i>
   </energy>
  </scstep>
  <scstep>
   <time name="total">   28.43   28.65</time>
   <energy>
    <i name="e_fr_energy">   7420.27215913 </i>
    <i name="e_wo_entrp">   7420.27467943 </i>
    <i name="e_0_energy">   7420.27341928 </i>
   </energy>
  </scstep>
  <scstep>
   <time name="total">   28.29   28.51</time>
   <energy>
    <i name="e_fr_energy">   7419.15155949 </i>
    <i name="e_wo_entrp">   7419.15429621 </i>
    <i name="e_0_energy">   7419.15292785 </i>
   </energy>
  </scstep>
  <scstep>
   <time name="total">   28.49   28.71</time>
   <energy>
    <i name="e_fr_energy">   7418.59197748 </i>
    <i name="e_wo_entrp">   7418.59495297 </i>
    <i name="e_0_energy">   7418.59346523 </i>
   </energy>
  </scstep>
  <scstep>
   <time name="total">   28.21   28.43</time>
   <energy>
    <i name="e_fr_energy">   7418.38871726 </i>
    <i name="e_wo_entrp">   7418.39183450 </i>
    <i name="e_0_energy">   7418.39027588 </i>
   </energy>
  </scstep>
  <scstep>
   <time name="total">   28.79   29.02</time>
   <energy>
    <i name="e_fr_energy">   7418.28435441 </i>
    <i name="e_wo_entrp">   7418.28752942 </i>
    <i name="e_0_energy">   7418.28594191 </i>
   </energy>
  </scstep>
  <scstep>
   <time name="total">   28.17   28.39</time>
   <energy>
    <i name="e_fr_energy">   7418.24673171 </i>
    <i name="e_wo_entrp">   7418.25000622 </i>
    <i name="e_0_energy">   7418.24836896 </i>
   </energy>
  </scstep>
  <scstep>
   <time name="total">   28.44   28.66</time>
   <energy>
    <i name="e_fr_energy">   7418.22855065 </i>
    <i name="e_wo_entrp">   7418.23181814 </i>
    <i name="e_0_energy">   7418.23018439 </i>
   </energy>
  </scstep>
  <scstep>
   <time name="total">   28.22   28.44</time>
   <energy>
    <i name="e_fr_energy">   7418.22079173 </i>
    <i name="e_wo_entrp">   7418.22399684 </i>
    <i name="e_0_energy">   7418.22239429 </i>
   </energy>
  </scstep>
  <scstep>
   <time name="total">   28.25   28.46</time>
   <energy>
    <i name="e_fr_energy">   7418.21791813 </i>
    <i name="e_wo_entrp">   7418.22110528 </i>
    <i name="e_0_energy">   7418.21951170 </i>
   </energy>
  </scstep>
  <scstep>
   <time name="total">   28.46   28.69</time>
   <energy>
    <i name="e_fr_energy">   7418.21637141 </i>
    <i name="e_wo_entrp">   7418.21953362 </i>
    <i name="e_0_energy">   7418.21795251 </i>
   </energy>
  </scstep>
  <scstep>
   <time name="total">   28.19   28.41</time>
   <energy>
    <i name="e_fr_energy">   7418.21580514 </i>
    <i name="e_wo_entrp">   7418.21891655 </i>
    <i name="e_0_energy">   7418.21736084 </i>
   </energy>
  </scstep>
  <scstep>
   <time name="total">   28.48   28.70</time>
   <energy>
    <i name="e_fr_energy">   7418.21556505 </i>
    <i name="e_wo_entrp">   7418.21863297 </i>
    <i name="e_0_energy">   7418.21709901 </i>
   </energy>
  </scstep>
  <scstep>
   <time name="total">   28.38   28.60</time>
   <energy>
    <i name="e_fr_energy">   7418.21542355 </i>
    <i name="e_wo_entrp">   7418.21845316 </i>
    <i name="e_0_energy">   7418.21693835 </i>
   </energy>
  </scstep>
  <scstep>
   <time name="total">   28.49   28.71</time>
   <energy>
    <i name="e_fr_energy">   7418.21535339 </i>
    <i name="e_wo_entrp">   7418.21834699 </i>
    <i name="e_0_energy">   7418.21685019 </i>
   </energy>
  </scstep>
  <scstep>
   <time name="total">   28.19   28.41</time>
   <energy>
    <i name="e_fr_energy">   7418.21532179 </i>
    <i name="e_wo_entrp">   7418.21828743 </i>
    <i name="e_0_energy">   7418.21680461 </i>
   </energy>
  </scstep>
  <scstep>
   <time name="total">   28.35   28.57</time>
   <energy>
    <i name="e_fr_energy">   7418.21530284 </i>
    <i name="e_wo_entrp">   7418.21825071 </i>
    <i name="e_0_energy">   7418.21677677 </i>
   </energy>
  </scstep>
  <scstep>
   <time name="total">   28.34   28.56</time>
   <energy>
    <i name="e_fr_energy">   7418.21529372 </i>
    <i name="e_wo_entrp">   7418.21822500 </i>
    <i name="e_0_energy">   7418.21675936 </i>
   </energy>
  </scstep>
  <scstep>
   <time name="total">   28.34   28.57</time>
   <energy>
    <i name="e_fr_energy">   7418.21528829 </i>
    <i name="e_wo_entrp">   7418.21821104 </i>
    <i name="e_0_energy">   7418.21674967 </i>
   </energy>
  </scstep>
  <scstep>
   <time name="total">   28.79   29.02</time>
   <energy>
    <i name="e_fr_energy">   7418.21528584 </i>
    <i name="e_wo_entrp">   7418.21820158 </i>
    <i name="e_0_energy">   7418.21674371 </i>
   </energy>
  </scstep>
  <scstep>
   <time name="total">   28.21   28.42</time>
   <energy>
    <i name="e_fr_energy">   7418.21528423 </i>
    <i name="e_wo_entrp">   7418.21819721 </i>
    <i name="e_0_energy">   7418.21674072 </i>
   </energy>
  </scstep>
  <scstep>
   <time name="total">   28.85   29.08</time>
   <energy>
    <i name="e_fr_energy">   7418.21528379 </i>
    <i name="e_wo_entrp">   7418.21819602 </i>
    <i name="e_0_energy">   7418.21673990 </i>
   </energy>
  </scstep>
  <scstep>
   <time name="total">   28.38   28.60</time>
   <energy>
    <i name="e_fr_energy">   7418.21528364 </i>
    <i name="e_wo_entrp">   7418.21819624 </i>
    <i name="e_0_energy">   7418.21673994 </i>
   </energy>
  </scstep>
  <scstep>
   <time name="total">   28.52   28.75</time>
   <energy>
    <i name="e_fr_energy">   7418.21528351 </i>
    <i name="e_wo_entrp">   7418.21819590 </i>
    <i name="e_0_energy">   7418.21673971 </i>
   </energy>
  </scstep>
  <scstep>
   <time name="total">   28.18   28.40</time>
   <energy>
    <i name="e_fr_energy">   7418.21528343 </i>
    <i name="e_wo_entrp">   7418.21819611 </i>
    <i name="e_0_energy">   7418.21673977 </i>
   </energy>
  </scstep>
  <scstep>
   <time name="total">   28.48   28.71</time>
   <energy>
    <i name="e_fr_energy">   7418.21528342 </i>
    <i name="e_wo_entrp">   7418.21819623 </i>
    <i name="e_0_energy">   7418.21673983 </i>
   </energy>
  </scstep>
  <scstep>
   <time name="total">   29.17   29.40</time>
   <energy>
    <i name="e_fr_energy">   7418.21528343 </i>
    <i name="e_wo_entrp">   7418.21819635 </i>
    <i name="e_0_energy">   7418.21673989 </i>
   </energy>
  </scstep>
  <scstep>
   <time name="total">   28.67   28.89</time>
   <energy>
    <i name="e_fr_energy">   7418.21528343 </i>
    <i name="e_wo_entrp">   7418.21819653 </i>
    <i name="e_0_energy">   7418.21673998 </i>
   </energy>
  </scstep>
  <scstep>
   <time name="total">   28.56   28.79</time>
   <energy>
    <i name="e_fr_energy">   7418.21528342 </i>
    <i name="e_wo_entrp">   7418.21819660 </i>
    <i name="e_0_energy">   7418.21674001 </i>
   </energy>
  </scstep>
  <scstep>
   <time name="total">   28.38   28.59</time>
   <energy>
    <i name="e_fr_energy">   7418.21528341 </i>
    <i name="e_wo_entrp">   7418.21819649 </i>
    <i name="e_0_energy">   7418.21673995 </i>
   </energy>
  </scstep>
  <scstep>
   <time name="total">   29.60   29.83</time>
   <energy>
    <i name="e_fr_energy">   7418.21528339 </i>
    <i name="e_wo_entrp">   7418.21819648 </i>
    <i name="e_0_energy">   7418.21673993 </i>
   </energy>
  </scstep>
  <scstep>
   <time name="total">   29.08   29.30</time>
   <energy>
    <i name="e_fr_energy">   7418.21528339 </i>
    <i name="e_wo_entrp">   7418.21819648 </i>
    <i name="e_0_energy">   7418.21673994 </i>
   </energy>
  </scstep>
  <scstep>
   <time name="total">   29.25   29.48</time>
   <energy>
    <i name="e_fr_energy">   7418.21528339 </i>
    <i name="e_wo_entrp">   7418.21819649 </i>
    <i name="e_0_energy">   7418.21673994 </i>
   </energy>
  </scstep>
  <scstep>
   <time name="total">   33.37   33.61</time>
   <energy>
    <i name="alphaZ">    744.81376823 </i>
    <i name="ewald">   -897.42992111 </i>
    <i name="hartreedc">  -3560.51831145 </i>
    <i name="XCdc">    567.59164078 </i>
    <i name="pawpsdc"> 140497.38361230 </i>
    <i name="pawaedc">-140334.69724476 </i>
    <i name="eentropy">     -0.00291310 </i>
    <i name="bandstr">  -1263.43199422 </i>
    <i name="atom">  11664.50664672 </i>
    <i name="e_fr_energy">   7418.21528339 </i>
    <i name="e_wo_entrp">   7418.21819649 </i>
    <i name="e_0_energy">   7418.21673994 </i>
   </energy>
  </scstep>
  <structure>
   <crystal>
    <varray name="basis" >
     <v>       4.93225120       0.00000000      -2.54888698 </v>
     <v>      -1.82837151       4.58084703      -2.54888698 </v>
     <v>       0.00000000       0.00000000       5.55193000 </v>
    </varray>
    <i name="volume">    125.43968585 </i>
    <varray name="rec_basis" >
     <v>       0.20274718       0.08092328       0.00000000 </v>
     <v>       0.00000000       0.21830024       0.00000000 </v>
     <v>       0.09308108       0.13737330       0.18011754 </v>
    </varray>
   </crystal>
   <varray name="positions" >
    <v>       0.24635000       0.25365000       0.50000000 </v>
    <v>       0.75365000       0.74635000       0.50000000 </v>
    <v>       0.25365000       0.75365000       0.00731000 </v>
    <v>       0.74635000       0.24635000       0.99269000 </v>
    <v>       0.22661000       0.72661000       0.95323000 </v>
    <v>       0.25000000       0.25000000       0.00000000 </v>
    <v>       0.77339000       0.27339000       0.04677000 </v>
    <v>       0.75000000       0.75000000       0.00000000 </v>
    <v>       0.72661000       0.77339000       0.50000000 </v>
    <v>       0.27339000       0.22661000       0.50000000 </v>
    <v>       0.50000000       0.00000000       0.50000000 </v>
    <v>       0.00000000       0.50000000       0.50000000 </v>
   </varray>
  </structure>
  <varray name="forces" >
   <v>       0.00000000       0.00000000       0.00000000 </v>
   <v>       0.00000000       0.00000000       0.00000000 </v>
   <v>       0.00000000       0.00000000       0.00000000 </v>
   <v>       0.00000000       0.00000000       0.00000000 </v>
   <v>       0.00000000       0.00000000       0.00000000 </v>
   <v>       0.00000000       0.00000000       0.00000000 </v>
   <v>       0.00000000       0.00000000       0.00000000 </v>
   <v>       0.00000000       0.00000000       0.00000000 </v>
   <v>       0.00000000       0.00000000       0.00000000 </v>
   <v>       0.00000000       0.00000000       0.00000000 </v>
   <v>       0.00000000       0.00000000       0.00000000 </v>
   <v>       0.00000000       0.00000000       0.00000000 </v>
  </varray>
  <varray name="stress" >
   <v>       0.00000000       0.00000000       0.00000000 </v>
   <v>       0.00000000       0.00000000       0.00000000 </v>
   <v>       0.00000000       0.00000000       0.00000000 </v>
  </varray>
  <energy>
   <i name="e_fr_energy">   7418.21528339 </i>
   <i name="e_wo_entrp">   7418.21819649 </i>
   <i name="e_0_energy">   7418.21673994 </i>
  </energy>
  <time name="totalsc"> 1220.47 1230.19</time>
  <eigenvalues>
   <array>
    <dimension dim="1">band</dimension>
    <dimension dim="2">kpoint</dimension>
    <dimension dim="3">spin</dimension>
    <field>eigene</field>
    <field>occ</field>
    <set>
     <set comment="spin 1">
      <set comment="kpoint 1">
       <r>  -51.8116    1.0000 </r>
       <r>  -51.8072    1.0000 </r>
       <r>  -45.5197    1.0000 </r>
       <r>  -45.4927    1.0000 </r>
       <r>  -45.4864    1.0000 </r>
       <r>  -45.4834    1.0000 </r>
       <r>  -34.2584    1.0000 </r>
       <r>  -34.0454    1.0000 </r>
       <r>  -34.0454    1.0000 </r>
       <r>  -33.9908    1.0000 </r>
       <r>  -33.9659    1.0000 </r>
       <r>  -33.9657    1.0000 </r>
       <r>  -33.9012    1.0000 </r>
       <r>  -33.8343    1.0000 </r>
       <r>  -26.9348    1.0000 </r>
       <r>  -26.5582    1.0000 </r>
       <r>  -26.5562    1.0000 </r>
       <r>  -26.2934    1.0000 </r>
       <r>  -25.2152    1.0000 </r>
       <r>  -25.1948    1.0000 </r>
       <r>  -25.1878    1.0000 </r>
       <r>  -25.1877    1.0000 </r>
       <r>  -25.1789    1.0000 </r>
       <r>  -25.1788    1.0000 </r>
       <r>   -1.1436    1.0000 </r>
       <r>    2.3620    1.0000 </r>
       <r>    2.3628    1.0000 </r>
       <r>    2.6468    1.0000 </r>
       <r>    3.2307    1.0000 </r>
       <r>    4.5560    1.0000 </r>
       <r>    5.0202    1.0000 </r>
       <r>    5.1078    1.0000 </r>
       <r>    5.1081    1.0000 </r>
       <r>    5.2482    1.0000 </r>
       <r>    5.4513    1.0000 </r>
       <r>    5.4516    1.0000 </r>
       <r>    5.6125    1.0000 </r>
       <r>    6.0370    1.0000 </r>
       <r>    7.0027    1.0000 </r>
       <r>    7.3114    1.0000 </r>
       <r>    7.3119    1.0000 </r>
       <r>    7.5628    1.0000 </r>
       <r>    7.6428    1.0000 </r>
       <r>    8.7915    1.0000 </r>
       <r>    8.7917    1.0000 </r>
       <r>    8.8912    1.0000 </r>
       <r>   10.7296    1.0000 </r>
       <r>   10.7300    1.0000 </r>
       <r>   11.5272    0.0000 </r>
       <r>   11.6426    0.0000 </r>
       <r>   11.6954    0.0000 </r>
       <r>   11.7283    0.0000 </r>
       <r>   11.9273    0.0000 </r>
       <r>   12.0318    0.0000 </r>
       <r>   12.0320    0.0000 </r>
       <r>   12.2106    0.0000 </r>
       <r>   12.4006    0.0000 </r>
       <r>   12.4010    0.0000 </r>
       <r>   12.5589    0.0000 </r>
       <r>   13.1461    0.0000 </r>
       <r>   13.7711    0.0000 </r>
       <r>   13.7713    0.0000 </r>
       <r>   14.8143    0.0000 </r>
       <r>   16.8515    0.0000 </r>
       <r>   18.5124    0.0000 </r>
       <r>   18.5132    0.0000 </r>
      </set>
      <set comment="kpoint 2">
       <r>  -51.8115    1.0000 </r>
       <r>  -51.8073    1.0000 </r>
       <r>  -45.5190    1.0000 </r>
       <r>  -45.4943    1.0000 </r>
       <r>  -45.4859    1.0000 </r>
       <r>  -45.4830    1.0000 </r>
       <r>  -34.2492    1.0000 </r>
       <r>  -34.0524    1.0000 </r>
       <r>  -34.0371    1.0000 </r>
       <r>  -33.9890    1.0000 </r>
       <r>  -33.9659    1.0000 </r>
       <r>  -33.9630    1.0000 </r>
       <r>  -33.9034    1.0000 </r>
       <r>  -33.8420    1.0000 </r>
       <r>  -26.9212    1.0000 </r>
       <r>  -26.5726    1.0000 </r>
       <r>  -26.5480    1.0000 </r>
       <r>  -26.3047    1.0000 </r>
       <r>  -25.2165    1.0000 </r>
       <r>  -25.1975    1.0000 </r>
       <r>  -25.1889    1.0000 </r>
       <r>  -25.1888    1.0000 </r>
       <r>  -25.1801    1.0000 </r>
       <r>  -25.1800    1.0000 </r>
       <r>   -1.0395    1.0000 </r>
       <r>    2.1697    1.0000 </r>
       <r>    2.4607    1.0000 </r>
       <r>    2.7380    1.0000 </r>
       <r>    3.3202    1.0000 </r>
       <r>    4.6721    1.0000 </r>
       <r>    4.9254    1.0000 </r>
       <r>    5.0750    1.0000 </r>
       <r>    5.1792    1.0000 </r>
       <r>    5.3274    1.0000 </r>
       <r>    5.3353    1.0000 </r>
       <r>    5.5292    1.0000 </r>
       <r>    5.6858    1.0000 </r>
       <r>    6.2489    1.0000 </r>
       <r>    6.9381    1.0000 </r>
       <r>    7.2375    1.0000 </r>
       <r>    7.3318    1.0000 </r>
       <r>    7.5611    1.0000 </r>
       <r>    7.6640    1.0000 </r>
       <r>    8.5040    1.0000 </r>
       <r>    8.7101    1.0000 </r>
       <r>    8.7411    1.0000 </r>
       <r>   10.6953    1.0000 </r>
       <r>   10.7130    1.0000 </r>
       <r>   11.3042    0.8520 </r>
       <r>   11.4422    0.0000 </r>
       <r>   11.5275    0.0000 </r>
       <r>   11.5380    0.0000 </r>
       <r>   11.6323    0.0000 </r>
       <r>   11.8017    0.0000 </r>
       <r>   12.0474    0.0000 </r>
       <r>   12.1283    0.0000 </r>
       <r>   12.3432    0.0000 </r>
       <r>   12.5228    0.0000 </r>
       <r>   12.8709    0.0000 </r>
       <r>   13.5191    0.0000 </r>
       <r>   13.7110    0.0000 </r>
       <r>   13.8093    0.0000 </r>
       <r>   15.1860    0.0000 </r>
       <r>   17.1251    0.0000 </r>
       <r>   18.4772    0.0000 </r>
       <r>   18.6276    0.0000 </r>
      </set>
      <set comment="kpoint 3">
       <r>  -51.8110    1.0000 </r>
       <r>  -51.8079    1.0000 </r>
       <r>  -45.5171    1.0000 </r>
       <r>  -45.4983    1.0000 </r>
       <r>  -45.4852    1.0000 </r>
       <r>  -45.4825    1.0000 </r>
       <r>  -34.2236    1.0000 </r>
       <r>  -34.0729    1.0000 </r>
       <r>  -34.0136    1.0000 </r>
       <r>  -33.9844    1.0000 </r>
       <r>  -33.9668    1.0000 </r>
       <r>  -33.9553    1.0000 </r>
       <r>  -33.9096    1.0000 </r>
       <r>  -33.8643    1.0000 </r>
       <r>  -26.8829    1.0000 </r>
       <r>  -26.6164    1.0000 </r>
       <r>  -26.5225    1.0000 </r>
       <r>  -26.3368    1.0000 </r>
       <r>  -25.2197    1.0000 </r>
       <r>  -25.2048    1.0000 </r>
       <r>  -25.1912    1.0000 </r>
       <r>  -25.1905    1.0000 </r>
       <r>  -25.1837    1.0000 </r>
       <r>  -25.1828    1.0000 </r>
       <r>   -0.7364    1.0000 </r>
       <r>    1.6678    1.0000 </r>
       <r>    2.7415    1.0000 </r>
       <r>    3.0064    1.0000 </r>
       <r>    3.5750    1.0000 </r>
       <r>    4.6536    1.0000 </r>
       <r>    4.9040    1.0000 </r>
       <r>    5.0163    1.0000 </r>
       <r>    5.1346    1.0000 </r>
       <r>    5.4043    1.0000 </r>
       <r>    5.5530    1.0000 </r>
       <r>    5.7389    1.0000 </r>
       <r>    5.8327    1.0000 </r>
       <r>    6.5842    1.0000 </r>
       <r>    6.7905    1.0000 </r>
       <r>    7.1119    1.0000 </r>
       <r>    7.3424    1.0000 </r>
       <r>    7.6482    1.0000 </r>
       <r>    7.7042    1.0000 </r>
       <r>    7.9807    1.0000 </r>
       <r>    8.1180    1.0000 </r>
       <r>    8.6124    1.0000 </r>
       <r>   10.5259    1.0000 </r>
       <r>   10.6333    1.0000 </r>
       <r>   10.7475    1.0000 </r>
       <r>   10.7660    1.0000 </r>
       <r>   11.2463    1.0000 </r>
       <r>   11.3545    0.0060 </r>
       <r>   11.4437    0.0000 </r>
       <r>   11.5891    0.0000 </r>
       <r>   11.7024    0.0000 </r>
       <r>   12.0072    0.0000 </r>
       <r>   12.3201    0.0000 </r>
       <r>   12.4436    0.0000 </r>
       <r>   13.3148    0.0000 </r>
       <r>   13.5283    0.0000 </r>
       <r>   14.0757    0.0000 </r>
       <r>   14.4394    0.0000 </r>
       <r>   15.9558    0.0000 </r>
       <r>   17.6261    0.0000 </r>
       <r>   18.4930    0.0000 </r>
       <r>   18.7020    0.0000 </r>
      </set>
      <set comment="kpoint 4">
       <r>  -51.8104    1.0000 </r>
       <r>  -51.8087    1.0000 </r>
       <r>  -45.5137    1.0000 </r>
       <r>  -45.5034    1.0000 </r>
       <r>  -45.4847    1.0000 </r>
       <r>  -45.4821    1.0000 </r>
       <r>  -34.1864    1.0000 </r>
       <r>  -34.1050    1.0000 </r>
       <r>  -33.9788    1.0000 </r>
       <r>  -33.9784    1.0000 </r>
       <r>  -33.9689    1.0000 </r>
       <r>  -33.9442    1.0000 </r>
       <r>  -33.9193    1.0000 </r>
       <r>  -33.8979    1.0000 </r>
       <r>  -26.8244    1.0000 </r>
       <r>  -26.6804    1.0000 </r>
       <r>  -26.4831    1.0000 </r>
       <r>  -26.3829    1.0000 </r>
       <r>  -25.2222    1.0000 </r>
       <r>  -25.2138    1.0000 </r>
       <r>  -25.1927    1.0000 </r>
       <r>  -25.1907    1.0000 </r>
       <r>  -25.1882    1.0000 </r>
       <r>  -25.1860    1.0000 </r>
       <r>   -0.2610    1.0000 </r>
       <r>    1.0158    1.0000 </r>
       <r>    3.1588    1.0000 </r>
       <r>    3.4024    1.0000 </r>
       <r>    3.9494    1.0000 </r>
       <r>    4.2723    1.0000 </r>
       <r>    4.5691    1.0000 </r>
       <r>    4.8397    1.0000 </r>
       <r>    5.4642    1.0000 </r>
       <r>    5.7193    1.0000 </r>
       <r>    5.8939    1.0000 </r>
       <r>    5.9023    1.0000 </r>
       <r>    6.0253    1.0000 </r>
       <r>    6.5324    1.0000 </r>
       <r>    6.6983    1.0000 </r>
       <r>    7.2403    1.0000 </r>
       <r>    7.2632    1.0000 </r>
       <r>    7.4331    1.0000 </r>
       <r>    7.6821    1.0000 </r>
       <r>    7.7015    1.0000 </r>
       <r>    7.8831    1.0000 </r>
       <r>    8.4267    1.0000 </r>
       <r>    9.7527    1.0000 </r>
       <r>    9.7615    1.0000 </r>
       <r>   10.6142    1.0000 </r>
       <r>   10.9357    1.0000 </r>
       <r>   11.1602    1.0000 </r>
       <r>   11.3022    0.8818 </r>
       <r>   11.3040    0.8545 </r>
       <r>   11.4518    0.0000 </r>
       <r>   11.5770    0.0000 </r>
       <r>   11.7959    0.0000 </r>
       <r>   11.9368    0.0000 </r>
       <r>   12.2872    0.0000 </r>
       <r>   13.4526    0.0000 </r>
       <r>   13.4564    0.0000 </r>
       <r>   14.7769    0.0000 </r>
       <r>   15.0739    0.0000 </r>
       <r>   16.9034    0.0000 </r>
       <r>   17.8597    0.0000 </r>
       <r>   18.5673    0.0000 </r>
       <r>   18.6245    0.0000 </r>
      </set>
      <set comment="kpoint 5">
       <r>  -51.8095    1.0000 </r>
       <r>  -51.8095    1.0000 </r>
       <r>  -45.5101    1.0000 </r>
       <r>  -45.5076    1.0000 </r>
       <r>  -45.4844    1.0000 </r>
       <r>  -45.4819    1.0000 </r>
       <r>  -34.1447    1.0000 </r>
       <r>  -34.1446    1.0000 </r>
       <r>  -33.9728    1.0000 </r>
       <r>  -33.9728    1.0000 </r>
       <r>  -33.9386    1.0000 </r>
       <r>  -33.9386    1.0000 </r>
       <r>  -33.9309    1.0000 </r>
       <r>  -33.9309    1.0000 </r>
       <r>  -26.7535    1.0000 </r>
       <r>  -26.7534    1.0000 </r>
       <r>  -26.4344    1.0000 </r>
       <r>  -26.4342    1.0000 </r>
       <r>  -25.2205    1.0000 </r>
       <r>  -25.2205    1.0000 </r>
       <r>  -25.1919    1.0000 </r>
       <r>  -25.1918    1.0000 </r>
       <r>  -25.1888    1.0000 </r>
       <r>  -25.1887    1.0000 </r>
       <r>    0.3427    1.0000 </r>
       <r>    0.3444    1.0000 </r>
       <r>    3.5797    1.0000 </r>
       <r>    3.5806    1.0000 </r>
       <r>    4.0954    1.0000 </r>
       <r>    4.0967    1.0000 </r>
       <r>    4.4441    1.0000 </r>
       <r>    4.4445    1.0000 </r>
       <r>    5.7952    1.0000 </r>
       <r>    5.7952    1.0000 </r>
       <r>    6.0725    1.0000 </r>
       <r>    6.0733    1.0000 </r>
       <r>    6.4004    1.0000 </r>
       <r>    6.4007    1.0000 </r>
       <r>    6.5303    1.0000 </r>
       <r>    6.5304    1.0000 </r>
       <r>    7.5054    1.0000 </r>
       <r>    7.5055    1.0000 </r>
       <r>    7.6614    1.0000 </r>
       <r>    7.6614    1.0000 </r>
       <r>    8.1666    1.0000 </r>
       <r>    8.1671    1.0000 </r>
       <r>    9.3214    1.0000 </r>
       <r>    9.3219    1.0000 </r>
       <r>   10.8171    1.0000 </r>
       <r>   10.8173    1.0000 </r>
       <r>   11.2121    1.0000 </r>
       <r>   11.2123    1.0000 </r>
       <r>   11.3105    0.7249 </r>
       <r>   11.3105    0.7243 </r>
       <r>   11.6016    0.0000 </r>
       <r>   11.6017    0.0000 </r>
       <r>   12.0115    0.0000 </r>
       <r>   12.0116    0.0000 </r>
       <r>   13.4585    0.0000 </r>
       <r>   13.4592    0.0000 </r>
       <r>   15.2145    0.0000 </r>
       <r>   15.2151    0.0000 </r>
       <r>   17.7371    0.0000 </r>
       <r>   17.7382    0.0000 </r>
       <r>   18.4461    0.0000 </r>
       <r>   18.4474    0.0000 </r>
      </set>
      <set comment="kpoint 6">
       <r>  -51.8111    1.0000 </r>
       <r>  -51.8078    1.0000 </r>
       <r>  -45.5186    1.0000 </r>
       <r>  -45.4952    1.0000 </r>
       <r>  -45.4866    1.0000 </r>
       <r>  -45.4823    1.0000 </r>
       <r>  -34.2387    1.0000 </r>
       <r>  -34.0439    1.0000 </r>
       <r>  -34.0437    1.0000 </r>
       <r>  -33.9876    1.0000 </r>
       <r>  -33.9622    1.0000 </r>
       <r>  -33.9611    1.0000 </r>
       <r>  -33.9067    1.0000 </r>
       <r>  -33.8500    1.0000 </r>
       <r>  -26.9081    1.0000 </r>
       <r>  -26.5690    1.0000 </r>
       <r>  -26.5586    1.0000 </r>
       <r>  -26.3176    1.0000 </r>
       <r>  -25.2181    1.0000 </r>
       <r>  -25.2027    1.0000 </r>
       <r>  -25.1908    1.0000 </r>
       <r>  -25.1906    1.0000 </r>
       <r>  -25.1825    1.0000 </r>
       <r>  -25.1817    1.0000 </r>
       <r>   -0.9187    1.0000 </r>
       <r>    2.1032    1.0000 </r>
       <r>    2.4222    1.0000 </r>
       <r>    2.8890    1.0000 </r>
       <r>    3.4160    1.0000 </r>
       <r>    4.8527    1.0000 </r>
       <r>    4.9200    1.0000 </r>
       <r>    5.0762    1.0000 </r>
       <r>    5.1924    1.0000 </r>
       <r>    5.2988    1.0000 </r>
       <r>    5.4635    1.0000 </r>
       <r>    5.4733    1.0000 </r>
       <r>    5.8447    1.0000 </r>
       <r>    6.4123    1.0000 </r>
       <r>    6.9158    1.0000 </r>
       <r>    7.2388    1.0000 </r>
       <r>    7.3082    1.0000 </r>
       <r>    7.6415    1.0000 </r>
       <r>    7.7116    1.0000 </r>
       <r>    8.2275    1.0000 </r>
       <r>    8.4837    1.0000 </r>
       <r>    8.5231    1.0000 </r>
       <r>   10.5441    1.0000 </r>
       <r>   10.6660    1.0000 </r>
       <r>   10.9449    1.0000 </r>
       <r>   10.9560    1.0000 </r>
       <r>   11.3004    0.9047 </r>
       <r>   11.3329    0.1613 </r>
       <r>   11.5296    0.0000 </r>
       <r>   11.5667    0.0000 </r>
       <r>   11.8977    0.0000 </r>
       <r>   12.3758    0.0000 </r>
       <r>   12.3852    0.0000 </r>
       <r>   12.5334    0.0000 </r>
       <r>   12.8038    0.0000 </r>
       <r>   13.5929    0.0000 </r>
       <r>   13.9022    0.0000 </r>
       <r>   14.2416    0.0000 </r>
       <r>   15.4808    0.0000 </r>
       <r>   17.2531    0.0000 </r>
       <r>   18.6062    0.0000 </r>
       <r>   18.7433    0.0000 </r>
      </set>
      <set comment="kpoint 7">
       <r>  -51.8106    1.0000 </r>
       <r>  -51.8084    1.0000 </r>
       <r>  -45.5167    1.0000 </r>
       <r>  -45.4986    1.0000 </r>
       <r>  -45.4865    1.0000 </r>
       <r>  -45.4819    1.0000 </r>
       <r>  -34.2127    1.0000 </r>
       <r>  -34.0646    1.0000 </r>
       <r>  -34.0203    1.0000 </r>
       <r>  -33.9835    1.0000 </r>
       <r>  -33.9618    1.0000 </r>
       <r>  -33.9530    1.0000 </r>
       <r>  -33.9140    1.0000 </r>
       <r>  -33.8725    1.0000 </r>
       <r>  -26.8703    1.0000 </r>
       <r>  -26.6084    1.0000 </r>
       <r>  -26.5365    1.0000 </r>
       <r>  -26.3505    1.0000 </r>
       <r>  -25.2205    1.0000 </r>
       <r>  -25.2110    1.0000 </r>
       <r>  -25.1929    1.0000 </r>
       <r>  -25.1918    1.0000 </r>
       <r>  -25.1861    1.0000 </r>
       <r>  -25.1851    1.0000 </r>
       <r>   -0.6057    1.0000 </r>
       <r>    1.6555    1.0000 </r>
       <r>    2.6499    1.0000 </r>
       <r>    3.2064    1.0000 </r>
       <r>    3.6643    1.0000 </r>
       <r>    4.6770    1.0000 </r>
       <r>    4.8723    1.0000 </r>
       <r>    5.1101    1.0000 </r>
       <r>    5.2514    1.0000 </r>
       <r>    5.3815    1.0000 </r>
       <r>    5.5707    1.0000 </r>
       <r>    5.7464    1.0000 </r>
       <r>    6.0542    1.0000 </r>
       <r>    6.7005    1.0000 </r>
       <r>    6.7845    1.0000 </r>
       <r>    7.1561    1.0000 </r>
       <r>    7.3817    1.0000 </r>
       <r>    7.6223    1.0000 </r>
       <r>    7.7907    1.0000 </r>
       <r>    7.8414    1.0000 </r>
       <r>    7.9058    1.0000 </r>
       <r>    8.3228    1.0000 </r>
       <r>    9.9533    1.0000 </r>
       <r>   10.0036    1.0000 </r>
       <r>   10.6336    1.0000 </r>
       <r>   10.8462    1.0000 </r>
       <r>   11.0631    1.0000 </r>
       <r>   11.2732    0.9994 </r>
       <r>   11.4406    0.0000 </r>
       <r>   11.5320    0.0000 </r>
       <r>   11.6552    0.0000 </r>
       <r>   12.1501    0.0000 </r>
       <r>   12.1640    0.0000 </r>
       <r>   12.4909    0.0000 </r>
       <r>   13.1639    0.0000 </r>
       <r>   13.4985    0.0000 </r>
       <r>   14.4811    0.0000 </r>
       <r>   14.9476    0.0000 </r>
       <r>   16.0644    0.0000 </r>
       <r>   17.4576    0.0000 </r>
       <r>   18.7061    0.0000 </r>
       <r>   18.8090    0.0000 </r>
      </set>
      <set comment="kpoint 8">
       <r>  -51.8098    1.0000 </r>
       <r>  -51.8093    1.0000 </r>
       <r>  -45.5134    1.0000 </r>
       <r>  -45.5033    1.0000 </r>
       <r>  -45.4856    1.0000 </r>
       <r>  -45.4819    1.0000 </r>
       <r>  -34.1761    1.0000 </r>
       <r>  -34.0975    1.0000 </r>
       <r>  -33.9859    1.0000 </r>
       <r>  -33.9782    1.0000 </r>
       <r>  -33.9639    1.0000 </r>
       <r>  -33.9416    1.0000 </r>
       <r>  -33.9244    1.0000 </r>
       <r>  -33.9063    1.0000 </r>
       <r>  -26.8124    1.0000 </r>
       <r>  -26.6711    1.0000 </r>
       <r>  -26.4959    1.0000 </r>
       <r>  -26.3965    1.0000 </r>
       <r>  -25.2207    1.0000 </r>
       <r>  -25.2189    1.0000 </r>
       <r>  -25.1935    1.0000 </r>
       <r>  -25.1918    1.0000 </r>
       <r>  -25.1892    1.0000 </r>
       <r>  -25.1883    1.0000 </r>
       <r>   -0.1300    1.0000 </r>
       <r>    1.0206    1.0000 </r>
       <r>    3.0729    1.0000 </r>
       <r>    3.6041    1.0000 </r>
       <r>    3.9962    1.0000 </r>
       <r>    4.2873    1.0000 </r>
       <r>    4.4679    1.0000 </r>
       <r>    4.8689    1.0000 </r>
       <r>    5.6578    1.0000 </r>
       <r>    5.6816    1.0000 </r>
       <r>    5.7816    1.0000 </r>
       <r>    6.1264    1.0000 </r>
       <r>    6.1871    1.0000 </r>
       <r>    6.4833    1.0000 </r>
       <r>    6.6692    1.0000 </r>
       <r>    7.0500    1.0000 </r>
       <r>    7.2608    1.0000 </r>
       <r>    7.4643    1.0000 </r>
       <r>    7.6091    1.0000 </r>
       <r>    7.7443    1.0000 </r>
       <r>    8.0674    1.0000 </r>
       <r>    8.1257    1.0000 </r>
       <r>    9.1747    1.0000 </r>
       <r>    9.3289    1.0000 </r>
       <r>   10.7759    1.0000 </r>
       <r>   10.8416    1.0000 </r>
       <r>   11.0629    1.0000 </r>
       <r>   11.2419    1.0000 </r>
       <r>   11.3813    0.0000 </r>
       <r>   11.4229    0.0000 </r>
       <r>   11.5678    0.0000 </r>
       <r>   11.7582    0.0000 </r>
       <r>   12.0424    0.0000 </r>
       <r>   12.4332    0.0000 </r>
       <r>   13.2494    0.0000 </r>
       <r>   13.6111    0.0000 </r>
       <r>   15.0632    0.0000 </r>
       <r>   15.2903    0.0000 </r>
       <r>   17.0661    0.0000 </r>
       <r>   17.4005    0.0000 </r>
       <r>   18.4310    0.0000 </r>
       <r>   18.9981    0.0000 </r>
      </set>
      <set comment="kpoint 9">
       <r>  -51.8101    1.0000 </r>
       <r>  -51.8090    1.0000 </r>
       <r>  -45.5098    1.0000 </r>
       <r>  -45.5074    1.0000 </r>
       <r>  -45.4849    1.0000 </r>
       <r>  -45.4822    1.0000 </r>
       <r>  -34.1381    1.0000 </r>
       <r>  -34.1354    1.0000 </r>
       <r>  -33.9738    1.0000 </r>
       <r>  -33.9687    1.0000 </r>
       <r>  -33.9468    1.0000 </r>
       <r>  -33.9454    1.0000 </r>
       <r>  -33.9364    1.0000 </r>
       <r>  -33.9292    1.0000 </r>
       <r>  -26.7430    1.0000 </r>
       <r>  -26.7420    1.0000 </r>
       <r>  -26.4478    1.0000 </r>
       <r>  -26.4455    1.0000 </r>
       <r>  -25.2231    1.0000 </r>
       <r>  -25.2166    1.0000 </r>
       <r>  -25.1930    1.0000 </r>
       <r>  -25.1915    1.0000 </r>
       <r>  -25.1905    1.0000 </r>
       <r>  -25.1877    1.0000 </r>
       <r>    0.3647    1.0000 </r>
       <r>    0.4624    1.0000 </r>
       <r>    3.5370    1.0000 </r>
       <r>    3.5415    1.0000 </r>
       <r>    3.9586    1.0000 </r>
       <r>    4.2605    1.0000 </r>
       <r>    4.4716    1.0000 </r>
       <r>    4.5196    1.0000 </r>
       <r>    5.7671    1.0000 </r>
       <r>    5.9057    1.0000 </r>
       <r>    6.0382    1.0000 </r>
       <r>    6.0485    1.0000 </r>
       <r>    6.2756    1.0000 </r>
       <r>    6.3517    1.0000 </r>
       <r>    6.4470    1.0000 </r>
       <r>    6.7134    1.0000 </r>
       <r>    7.1765    1.0000 </r>
       <r>    7.5512    1.0000 </r>
       <r>    7.6008    1.0000 </r>
       <r>    7.7273    1.0000 </r>
       <r>    7.8896    1.0000 </r>
       <r>    8.3676    1.0000 </r>
       <r>    9.0785    1.0000 </r>
       <r>    9.2184    1.0000 </r>
       <r>   10.7174    1.0000 </r>
       <r>   10.9217    1.0000 </r>
       <r>   11.0468    1.0000 </r>
       <r>   11.3189    0.5016 </r>
       <r>   11.3870    0.0000 </r>
       <r>   11.4097    0.0000 </r>
       <r>   11.6194    0.0000 </r>
       <r>   11.8263    0.0000 </r>
       <r>   12.1244    0.0000 </r>
       <r>   12.2777    0.0000 </r>
       <r>   13.0677    0.0000 </r>
       <r>   13.8114    0.0000 </r>
       <r>   14.9527    0.0000 </r>
       <r>   15.7096    0.0000 </r>
       <r>   16.8908    0.0000 </r>
       <r>   18.0036    0.0000 </r>
       <r>   18.1634    0.0000 </r>
       <r>   19.1470    0.0000 </r>
      </set>
      <set comment="kpoint 10">
       <r>  -51.8108    1.0000 </r>
       <r>  -51.8082    1.0000 </r>
       <r>  -45.5130    1.0000 </r>
       <r>  -45.5036    1.0000 </r>
       <r>  -45.4843    1.0000 </r>
       <r>  -45.4828    1.0000 </r>
       <r>  -34.1804    1.0000 </r>
       <r>  -34.0967    1.0000 </r>
       <r>  -33.9873    1.0000 </r>
       <r>  -33.9752    1.0000 </r>
       <r>  -33.9701    1.0000 </r>
       <r>  -33.9488    1.0000 </r>
       <r>  -33.9181    1.0000 </r>
       <r>  -33.9053    1.0000 </r>
       <r>  -26.8126    1.0000 </r>
       <r>  -26.6698    1.0000 </r>
       <r>  -26.4964    1.0000 </r>
       <r>  -26.3927    1.0000 </r>
       <r>  -25.2228    1.0000 </r>
       <r>  -25.2091    1.0000 </r>
       <r>  -25.1929    1.0000 </r>
       <r>  -25.1907    1.0000 </r>
       <r>  -25.1880    1.0000 </r>
       <r>  -25.1843    1.0000 </r>
       <r>   -0.2209    1.0000 </r>
       <r>    1.1080    1.0000 </r>
       <r>    3.0680    1.0000 </r>
       <r>    3.3484    1.0000 </r>
       <r>    3.9794    1.0000 </r>
       <r>    4.2496    1.0000 </r>
       <r>    4.7262    1.0000 </r>
       <r>    4.8122    1.0000 </r>
       <r>    5.4069    1.0000 </r>
       <r>    5.6598    1.0000 </r>
       <r>    5.7952    1.0000 </r>
       <r>    5.8587    1.0000 </r>
       <r>    6.0474    1.0000 </r>
       <r>    6.4021    1.0000 </r>
       <r>    6.7402    1.0000 </r>
       <r>    6.9706    1.0000 </r>
       <r>    7.2683    1.0000 </r>
       <r>    7.4825    1.0000 </r>
       <r>    7.6089    1.0000 </r>
       <r>    7.6505    1.0000 </r>
       <r>    7.7579    1.0000 </r>
       <r>    8.6134    1.0000 </r>
       <r>    9.6452    1.0000 </r>
       <r>    9.8419    1.0000 </r>
       <r>   10.5954    1.0000 </r>
       <r>   11.0386    1.0000 </r>
       <r>   11.1379    1.0000 </r>
       <r>   11.3526    0.0087 </r>
       <r>   11.3870    0.0000 </r>
       <r>   11.5294    0.0000 </r>
       <r>   11.7337    0.0000 </r>
       <r>   12.0107    0.0000 </r>
       <r>   12.2073    0.0000 </r>
       <r>   12.5776    0.0000 </r>
       <r>   12.9317    0.0000 </r>
       <r>   13.7576    0.0000 </r>
       <r>   14.5347    0.0000 </r>
       <r>   15.4647    0.0000 </r>
       <r>   16.3757    0.0000 </r>
       <r>   17.8050    0.0000 </r>
       <r>   18.4381    0.0000 </r>
       <r>   19.0265    0.0000 </r>
      </set>
      <set comment="kpoint 11">
       <r>  -51.8113    1.0000 </r>
       <r>  -51.8076    1.0000 </r>
       <r>  -45.5162    1.0000 </r>
       <r>  -45.4991    1.0000 </r>
       <r>  -45.4843    1.0000 </r>
       <r>  -45.4832    1.0000 </r>
       <r>  -34.2172    1.0000 </r>
       <r>  -34.0652    1.0000 </r>
       <r>  -34.0217    1.0000 </r>
       <r>  -33.9821    1.0000 </r>
       <r>  -33.9675    1.0000 </r>
       <r>  -33.9587    1.0000 </r>
       <r>  -33.9095    1.0000 </r>
       <r>  -33.8719    1.0000 </r>
       <r>  -26.8701    1.0000 </r>
       <r>  -26.6067    1.0000 </r>
       <r>  -26.5362    1.0000 </r>
       <r>  -26.3463    1.0000 </r>
       <r>  -25.2197    1.0000 </r>
       <r>  -25.2013    1.0000 </r>
       <r>  -25.1916    1.0000 </r>
       <r>  -25.1890    1.0000 </r>
       <r>  -25.1844    1.0000 </r>
       <r>  -25.1807    1.0000 </r>
       <r>   -0.6752    1.0000 </r>
       <r>    1.7174    1.0000 </r>
       <r>    2.6542    1.0000 </r>
       <r>    2.9827    1.0000 </r>
       <r>    3.6353    1.0000 </r>
       <r>    4.6716    1.0000 </r>
       <r>    4.9439    1.0000 </r>
       <r>    4.9953    1.0000 </r>
       <r>    5.0767    1.0000 </r>
       <r>    5.3576    1.0000 </r>
       <r>    5.5293    1.0000 </r>
       <r>    5.5708    1.0000 </r>
       <r>    5.8521    1.0000 </r>
       <r>    6.6840    1.0000 </r>
       <r>    6.7299    1.0000 </r>
       <r>    7.0308    1.0000 </r>
       <r>    7.2956    1.0000 </r>
       <r>    7.5079    1.0000 </r>
       <r>    7.6292    1.0000 </r>
       <r>    7.7841    1.0000 </r>
       <r>    8.2842    1.0000 </r>
       <r>    8.7350    1.0000 </r>
       <r>   10.3761    1.0000 </r>
       <r>   10.5345    1.0000 </r>
       <r>   10.6655    1.0000 </r>
       <r>   11.0679    1.0000 </r>
       <r>   11.3390    0.0786 </r>
       <r>   11.4366    0.0000 </r>
       <r>   11.5629    0.0000 </r>
       <r>   11.7029    0.0000 </r>
       <r>   11.8357    0.0000 </r>
       <r>   12.1121    0.0000 </r>
       <r>   12.3540    0.0000 </r>
       <r>   12.6193    0.0000 </r>
       <r>   13.1246    0.0000 </r>
       <r>   13.5579    0.0000 </r>
       <r>   13.9342    0.0000 </r>
       <r>   14.6801    0.0000 </r>
       <r>   15.9559    0.0000 </r>
       <r>   17.7805    0.0000 </r>
       <r>   18.1134    0.0000 </r>
       <r>   18.8982    0.0000 </r>
      </set>
      <set comment="kpoint 12">
       <r>  -51.8115    1.0000 </r>
       <r>  -51.8073    1.0000 </r>
       <r>  -45.5182    1.0000 </r>
       <r>  -45.4957    1.0000 </r>
       <r>  -45.4847    1.0000 </r>
       <r>  -45.4834    1.0000 </r>
       <r>  -34.2416    1.0000 </r>
       <r>  -34.0450    1.0000 </r>
       <r>  -34.0442    1.0000 </r>
       <r>  -33.9871    1.0000 </r>
       <r>  -33.9658    1.0000 </r>
       <r>  -33.9641    1.0000 </r>
       <r>  -33.9043    1.0000 </r>
       <r>  -33.8497    1.0000 </r>
       <r>  -26.9079    1.0000 </r>
       <r>  -26.5660    1.0000 </r>
       <r>  -26.5601    1.0000 </r>
       <r>  -26.3148    1.0000 </r>
       <r>  -25.2171    1.0000 </r>
       <r>  -25.1969    1.0000 </r>
       <r>  -25.1896    1.0000 </r>
       <r>  -25.1878    1.0000 </r>
       <r>  -25.1815    1.0000 </r>
       <r>  -25.1790    1.0000 </r>
       <r>   -0.9562    1.0000 </r>
       <r>    2.1314    1.0000 </r>
       <r>    2.4245    1.0000 </r>
       <r>    2.7707    1.0000 </r>
       <r>    3.3955    1.0000 </r>
       <r>    4.6996    1.0000 </r>
       <r>    4.9123    1.0000 </r>
       <r>    5.1102    1.0000 </r>
       <r>    5.1750    1.0000 </r>
       <r>    5.2167    1.0000 </r>
       <r>    5.3872    1.0000 </r>
       <r>    5.4342    1.0000 </r>
       <r>    5.6990    1.0000 </r>
       <r>    6.4591    1.0000 </r>
       <r>    6.8672    1.0000 </r>
       <r>    7.2168    1.0000 </r>
       <r>    7.2576    1.0000 </r>
       <r>    7.5006    1.0000 </r>
       <r>    7.6278    1.0000 </r>
       <r>    8.2911    1.0000 </r>
       <r>    8.6874    1.0000 </r>
       <r>    8.7755    1.0000 </r>
       <r>   10.5837    1.0000 </r>
       <r>   10.8606    1.0000 </r>
       <r>   11.0871    1.0000 </r>
       <r>   11.2719    0.9996 </r>
       <r>   11.4761    0.0000 </r>
       <r>   11.5489    0.0000 </r>
       <r>   11.6825    0.0000 </r>
       <r>   12.0547    0.0000 </r>
       <r>   12.1253    0.0000 </r>
       <r>   12.1725    0.0000 </r>
       <r>   12.2061    0.0000 </r>
       <r>   12.4728    0.0000 </r>
       <r>   12.9563    0.0000 </r>
       <r>   13.5123    0.0000 </r>
       <r>   13.6313    0.0000 </r>
       <r>   14.0498    0.0000 </r>
       <r>   15.4350    0.0000 </r>
       <r>   17.3694    0.0000 </r>
       <r>   18.2572    0.0000 </r>
       <r>   18.7066    0.0000 </r>
      </set>
      <set comment="kpoint 13">
       <r>  -51.8099    1.0000 </r>
       <r>  -51.8091    1.0000 </r>
       <r>  -45.5150    1.0000 </r>
       <r>  -45.5004    1.0000 </r>
       <r>  -45.4871    1.0000 </r>
       <r>  -45.4819    1.0000 </r>
       <r>  -34.1871    1.0000 </r>
       <r>  -34.0428    1.0000 </r>
       <r>  -34.0405    1.0000 </r>
       <r>  -33.9803    1.0000 </r>
       <r>  -33.9538    1.0000 </r>
       <r>  -33.9523    1.0000 </r>
       <r>  -33.9220    1.0000 </r>
       <r>  -33.8953    1.0000 </r>
       <r>  -26.8337    1.0000 </r>
       <r>  -26.5958    1.0000 </r>
       <r>  -26.5625    1.0000 </r>
       <r>  -26.3840    1.0000 </r>
       <r>  -25.2203    1.0000 </r>
       <r>  -25.2178    1.0000 </r>
       <r>  -25.1947    1.0000 </r>
       <r>  -25.1923    1.0000 </r>
       <r>  -25.1887    1.0000 </r>
       <r>  -25.1886    1.0000 </r>
       <r>   -0.2975    1.0000 </r>
       <r>    1.5084    1.0000 </r>
       <r>    2.6102    1.0000 </r>
       <r>    3.5469    1.0000 </r>
       <r>    3.8988    1.0000 </r>
       <r>    4.4637    1.0000 </r>
       <r>    4.7690    1.0000 </r>
       <r>    5.1806    1.0000 </r>
       <r>    5.3427    1.0000 </r>
       <r>    5.4232    1.0000 </r>
       <r>    5.6043    1.0000 </r>
       <r>    6.0678    1.0000 </r>
       <r>    6.2936    1.0000 </r>
       <r>    6.6159    1.0000 </r>
       <r>    6.9190    1.0000 </r>
       <r>    6.9442    1.0000 </r>
       <r>    7.2484    1.0000 </r>
       <r>    7.5262    1.0000 </r>
       <r>    7.6274    1.0000 </r>
       <r>    7.7144    1.0000 </r>
       <r>    7.9743    1.0000 </r>
       <r>    8.0941    1.0000 </r>
       <r>    9.0130    1.0000 </r>
       <r>    9.2349    1.0000 </r>
       <r>   10.7994    1.0000 </r>
       <r>   10.8742    1.0000 </r>
       <r>   10.9607    1.0000 </r>
       <r>   11.2870    0.9880 </r>
       <r>   11.4326    0.0000 </r>
       <r>   11.5328    0.0000 </r>
       <r>   11.5351    0.0000 </r>
       <r>   11.9243    0.0000 </r>
       <r>   12.3772    0.0000 </r>
       <r>   12.5073    0.0000 </r>
[...]
       <r>    7.5023    1.0000 </r>
       <r>    7.6886    1.0000 </r>
       <r>    7.7859    1.0000 </r>
       <r>    8.2802    1.0000 </r>
       <r>    9.4398    1.0000 </r>
       <r>    9.4548    1.0000 </r>
       <r>   10.7652    1.0000 </r>
       <r>   10.9631    1.0000 </r>
       <r>   11.0350    1.0000 </r>
       <r>   11.3141    0.6351 </r>
       <r>   11.4302    0.0000 </r>
       <r>   11.5407    0.0000 </r>
       <r>   11.7164    0.0000 </r>
       <r>   12.1832    0.0000 </r>
       <r>   12.3540    0.0000 </r>
       <r>   12.5007    0.0000 </r>
       <r>   13.0375    0.0000 </r>
       <r>   13.5349    0.0000 </r>
       <r>   14.9024    0.0000 </r>
       <r>   15.5470    0.0000 </r>
       <r>   16.3292    0.0000 </r>
       <r>   17.7324    0.0000 </r>
       <r>   18.3958    0.0000 </r>
       <r>   18.8782    0.0000 </r>
      </set>
      <set comment="kpoint 165">
       <r>  -51.8107    1.0000 </r>
       <r>  -51.8083    1.0000 </r>
       <r>  -45.5122    1.0000 </r>
       <r>  -45.5025    1.0000 </r>
       <r>  -45.4870    1.0000 </r>
       <r>  -45.4822    1.0000 </r>
       <r>  -34.1558    1.0000 </r>
       <r>  -34.0425    1.0000 </r>
       <r>  -34.0409    1.0000 </r>
       <r>  -33.9701    1.0000 </r>
       <r>  -33.9622    1.0000 </r>
       <r>  -33.9562    1.0000 </r>
       <r>  -33.9295    1.0000 </r>
       <r>  -33.9231    1.0000 </r>
       <r>  -26.7766    1.0000 </r>
       <r>  -26.6081    1.0000 </r>
       <r>  -26.5654    1.0000 </r>
       <r>  -26.4288    1.0000 </r>
       <r>  -25.2229    1.0000 </r>
       <r>  -25.2093    1.0000 </r>
       <r>  -25.1942    1.0000 </r>
       <r>  -25.1913    1.0000 </r>
       <r>  -25.1895    1.0000 </r>
       <r>  -25.1835    1.0000 </r>
       <r>    0.0106    1.0000 </r>
       <r>    1.3449    1.0000 </r>
       <r>    2.7541    1.0000 </r>
       <r>    3.5100    1.0000 </r>
       <r>    3.9885    1.0000 </r>
       <r>    4.2134    1.0000 </r>
       <r>    4.9015    1.0000 </r>
       <r>    5.2014    1.0000 </r>
       <r>    5.3026    1.0000 </r>
       <r>    5.5320    1.0000 </r>
       <r>    5.5651    1.0000 </r>
       <r>    6.0676    1.0000 </r>
       <r>    6.1468    1.0000 </r>
       <r>    6.1655    1.0000 </r>
       <r>    6.5803    1.0000 </r>
       <r>    6.9246    1.0000 </r>
       <r>    7.1157    1.0000 </r>
       <r>    7.4547    1.0000 </r>
       <r>    7.4637    1.0000 </r>
       <r>    7.5238    1.0000 </r>
       <r>    7.6364    1.0000 </r>
       <r>    8.3920    1.0000 </r>
       <r>    9.0814    1.0000 </r>
       <r>    9.4114    1.0000 </r>
       <r>   10.7270    1.0000 </r>
       <r>   11.0299    1.0000 </r>
       <r>   11.2840    0.9932 </r>
       <r>   11.3122    0.6839 </r>
       <r>   11.4501    0.0000 </r>
       <r>   11.5358    0.0000 </r>
       <r>   12.0046    0.0000 </r>
       <r>   12.1007    0.0000 </r>
       <r>   12.4409    0.0000 </r>
       <r>   12.4915    0.0000 </r>
       <r>   13.1022    0.0000 </r>
       <r>   13.9271    0.0000 </r>
       <r>   15.1973    0.0000 </r>
       <r>   15.7554    0.0000 </r>
       <r>   16.4078    0.0000 </r>
       <r>   17.6758    0.0000 </r>
       <r>   17.9871    0.0000 </r>
       <r>   19.2571    0.0000 </r>
      </set>
     </set>
    </set>
   </array>
  </eigenvalues>
  <separator name="orbital magnetization" >
   <v name="MAGDIPOLOUT">      0.00000000      0.00000000      0.00000000</v>
  </separator>
  <dos>
   <i name="efermi">     11.31895785 </i>
   <total>
    <array>
     <dimension dim="1">gridpoints</dimension>
     <dimension dim="2">spin</dimension>
     <field>energy</field>
     <field>total</field>
     <field>integrated</field>
     <set>
      <set comment="spin 1">
       <r>   -55.4128     0.0000     0.0000 </r>
       <r>   -55.1487     0.0000     0.0000 </r>
       <r>   -54.8846     0.0000     0.0000 </r>
       <r>   -54.6205     0.0000     0.0000 </r>
       <r>   -54.3564     0.0000     0.0000 </r>
       <r>   -54.0924     0.0000     0.0000 </r>
       <r>   -53.8283     0.0000     0.0000 </r>
       <r>   -53.5642     0.0000     0.0000 </r>
       <r>   -53.3001     0.0000     0.0000 </r>
       <r>   -53.0360     0.0000     0.0000 </r>
       <r>   -52.7719     0.0000     0.0000 </r>
       <r>   -52.5078     0.0000     0.0000 </r>
       <r>   -52.2438     0.0000     0.0000 </r>
       <r>   -51.9797     0.0000     0.0000 </r>
       <r>   -51.7156    15.1466     4.0000 </r>
       <r>   -51.4515     0.0000     4.0000 </r>
       <r>   -51.1874     0.0000     4.0000 </r>
       <r>   -50.9233     0.0000     4.0000 </r>
       <r>   -50.6592     0.0000     4.0000 </r>
       <r>   -50.3952     0.0000     4.0000 </r>
       <r>   -50.1311     0.0000     4.0000 </r>
       <r>   -49.8670     0.0000     4.0000 </r>
       <r>   -49.6029     0.0000     4.0000 </r>
       <r>   -49.3388     0.0000     4.0000 </r>
       <r>   -49.0747     0.0000     4.0000 </r>
       <r>   -48.8106     0.0000     4.0000 </r>
       <r>   -48.5466     0.0000     4.0000 </r>
       <r>   -48.2825     0.0000     4.0000 </r>
       <r>   -48.0184     0.0000     4.0000 </r>
       <r>   -47.7543     0.0000     4.0000 </r>
       <r>   -47.4902     0.0000     4.0000 </r>
       <r>   -47.2261     0.0000     4.0000 </r>
       <r>   -46.9620     0.0000     4.0000 </r>
       <r>   -46.6980     0.0000     4.0000 </r>
       <r>   -46.4339     0.0000     4.0000 </r>
       <r>   -46.1698     0.0000     4.0000 </r>
       <r>   -45.9057     0.0000     4.0000 </r>
       <r>   -45.6416     0.0000     4.0000 </r>
       <r>   -45.3775    30.2932    12.0000 </r>
       <r>   -45.1134     0.0000    12.0000 </r>
       <r>   -44.8494     0.0000    12.0000 </r>
       <r>   -44.5853     0.0000    12.0000 </r>
       <r>   -44.3212     0.0000    12.0000 </r>
       <r>   -44.0571     0.0000    12.0000 </r>
       <r>   -43.7930     0.0000    12.0000 </r>
       <r>   -43.5289     0.0000    12.0000 </r>
       <r>   -43.2648     0.0000    12.0000 </r>
       <r>   -43.0008     0.0000    12.0000 </r>
       <r>   -42.7367     0.0000    12.0000 </r>
       <r>   -42.4726     0.0000    12.0000 </r>
       <r>   -42.2085     0.0000    12.0000 </r>
       <r>   -41.9444     0.0000    12.0000 </r>
       <r>   -41.6803     0.0000    12.0000 </r>
       <r>   -41.4162     0.0000    12.0000 </r>
       <r>   -41.1522     0.0000    12.0000 </r>
       <r>   -40.8881     0.0000    12.0000 </r>
       <r>   -40.6240     0.0000    12.0000 </r>
       <r>   -40.3599     0.0000    12.0000 </r>
       <r>   -40.0958     0.0000    12.0000 </r>
       <r>   -39.8317     0.0000    12.0000 </r>
       <r>   -39.5676     0.0000    12.0000 </r>
       <r>   -39.3036     0.0000    12.0000 </r>
       <r>   -39.0395     0.0000    12.0000 </r>
       <r>   -38.7754     0.0000    12.0000 </r>
       <r>   -38.5113     0.0000    12.0000 </r>
       <r>   -38.2472     0.0000    12.0000 </r>
       <r>   -37.9831     0.0000    12.0000 </r>
       <r>   -37.7190     0.0000    12.0000 </r>
       <r>   -37.4550     0.0000    12.0000 </r>
       <r>   -37.1909     0.0000    12.0000 </r>
       <r>   -36.9268     0.0000    12.0000 </r>
       <r>   -36.6627     0.0000    12.0000 </r>
       <r>   -36.3986     0.0000    12.0000 </r>
       <r>   -36.1345     0.0000    12.0000 </r>
       <r>   -35.8704     0.0000    12.0000 </r>
       <r>   -35.6064     0.0000    12.0000 </r>
       <r>   -35.3423     0.0000    12.0000 </r>
       <r>   -35.0782     0.0000    12.0000 </r>
       <r>   -34.8141     0.0000    12.0000 </r>
       <r>   -34.5500     0.0000    12.0000 </r>
       <r>   -34.2859     0.0018    12.0005 </r>
       <r>   -34.0218    14.3172    16.6872 </r>
       <r>   -33.7578     6.4163    28.0000 </r>
       <r>   -33.4937     0.0000    28.0000 </r>
       <r>   -33.2296     0.0000    28.0000 </r>
       <r>   -32.9655     0.0000    28.0000 </r>
       <r>   -32.7014     0.0000    28.0000 </r>
       <r>   -32.4373     0.0000    28.0000 </r>
       <r>   -32.1732     0.0000    28.0000 </r>
       <r>   -31.9092     0.0000    28.0000 </r>
       <r>   -31.6451     0.0000    28.0000 </r>
       <r>   -31.3810     0.0000    28.0000 </r>
       <r>   -31.1169     0.0000    28.0000 </r>
       <r>   -30.8528     0.0000    28.0000 </r>
       <r>   -30.5887     0.0000    28.0000 </r>
       <r>   -30.3246     0.0000    28.0000 </r>
       <r>   -30.0606     0.0000    28.0000 </r>
       <r>   -29.7965     0.0000    28.0000 </r>
       <r>   -29.5324     0.0000    28.0000 </r>
       <r>   -29.2683     0.0000    28.0000 </r>
       <r>   -29.0042     0.0000    28.0000 </r>
       <r>   -28.7401     0.0000    28.0000 </r>
       <r>   -28.4760     0.0000    28.0000 </r>
       <r>   -28.2120     0.0000    28.0000 </r>
       <r>   -27.9479     0.0000    28.0000 </r>
       <r>   -27.6838     0.0000    28.0000 </r>
       <r>   -27.4197     0.0000    28.0000 </r>
       <r>   -27.1556     0.0000    28.0000 </r>
       <r>   -26.8915     1.2424    28.3281 </r>
       <r>   -26.6274     7.4220    31.1441 </r>
       <r>   -26.3634     8.0028    35.4016 </r>
       <r>   -26.0993     0.0000    36.0000 </r>
       <r>   -25.8352     0.0000    36.0000 </r>
       <r>   -25.5711     0.0000    36.0000 </r>
       <r>   -25.3070     0.0000    36.0000 </r>
       <r>   -25.0429    30.9637    48.0000 </r>
       <r>   -24.7788     0.0000    48.0000 </r>
       <r>   -24.5148     0.0000    48.0000 </r>
       <r>   -24.2507     0.0000    48.0000 </r>
       <r>   -23.9866     0.0000    48.0000 </r>
       <r>   -23.7225     0.0000    48.0000 </r>
       <r>   -23.4584     0.0000    48.0000 </r>
       <r>   -23.1943     0.0000    48.0000 </r>
       <r>   -22.9302     0.0000    48.0000 </r>
       <r>   -22.6662     0.0000    48.0000 </r>
       <r>   -22.4021     0.0000    48.0000 </r>
       <r>   -22.1380     0.0000    48.0000 </r>
       <r>   -21.8739     0.0000    48.0000 </r>
       <r>   -21.6098     0.0000    48.0000 </r>
       <r>   -21.3457     0.0000    48.0000 </r>
       <r>   -21.0816     0.0000    48.0000 </r>
       <r>   -20.8176     0.0000    48.0000 </r>
       <r>   -20.5535     0.0000    48.0000 </r>
       <r>   -20.2894     0.0000    48.0000 </r>
       <r>   -20.0253     0.0000    48.0000 </r>
       <r>   -19.7612     0.0000    48.0000 </r>
       <r>   -19.4971     0.0000    48.0000 </r>
       <r>   -19.2330     0.0000    48.0000 </r>
       <r>   -18.9689     0.0000    48.0000 </r>
       <r>   -18.7049     0.0000    48.0000 </r>
       <r>   -18.4408     0.0000    48.0000 </r>
       <r>   -18.1767     0.0000    48.0000 </r>
       <r>   -17.9126     0.0000    48.0000 </r>
       <r>   -17.6485     0.0000    48.0000 </r>
       <r>   -17.3844     0.0000    48.0000 </r>
       <r>   -17.1203     0.0000    48.0000 </r>
       <r>   -16.8563     0.0000    48.0000 </r>
       <r>   -16.5922     0.0000    48.0000 </r>
       <r>   -16.3281     0.0000    48.0000 </r>
       <r>   -16.0640     0.0000    48.0000 </r>
       <r>   -15.7999     0.0000    48.0000 </r>
       <r>   -15.5358     0.0000    48.0000 </r>
       <r>   -15.2717     0.0000    48.0000 </r>
       <r>   -15.0077     0.0000    48.0000 </r>
       <r>   -14.7436     0.0000    48.0000 </r>
       <r>   -14.4795     0.0000    48.0000 </r>
       <r>   -14.2154     0.0000    48.0000 </r>
       <r>   -13.9513     0.0000    48.0000 </r>
       <r>   -13.6872     0.0000    48.0000 </r>
       <r>   -13.4231     0.0000    48.0000 </r>
       <r>   -13.1591     0.0000    48.0000 </r>
       <r>   -12.8950     0.0000    48.0000 </r>
       <r>   -12.6309     0.0000    48.0000 </r>
       <r>   -12.3668     0.0000    48.0000 </r>
       <r>   -12.1027     0.0000    48.0000 </r>
       <r>   -11.8386     0.0000    48.0000 </r>
       <r>   -11.5745     0.0000    48.0000 </r>
       <r>   -11.3105     0.0000    48.0000 </r>
       <r>   -11.0464     0.0000    48.0000 </r>
       <r>   -10.7823     0.0000    48.0000 </r>
       <r>   -10.5182     0.0000    48.0000 </r>
       <r>   -10.2541     0.0000    48.0000 </r>
       <r>    -9.9900     0.0000    48.0000 </r>
       <r>    -9.7259     0.0000    48.0000 </r>
       <r>    -9.4619     0.0000    48.0000 </r>
       <r>    -9.1978     0.0000    48.0000 </r>
       <r>    -8.9337     0.0000    48.0000 </r>
       <r>    -8.6696     0.0000    48.0000 </r>
       <r>    -8.4055     0.0000    48.0000 </r>
       <r>    -8.1414     0.0000    48.0000 </r>
       <r>    -7.8773     0.0000    48.0000 </r>
       <r>    -7.6133     0.0000    48.0000 </r>
       <r>    -7.3492     0.0000    48.0000 </r>
       <r>    -7.0851     0.0000    48.0000 </r>
       <r>    -6.8210     0.0000    48.0000 </r>
       <r>    -6.5569     0.0000    48.0000 </r>
       <r>    -6.2928     0.0000    48.0000 </r>
       <r>    -6.0287     0.0000    48.0000 </r>
       <r>    -5.7647     0.0000    48.0000 </r>
       <r>    -5.5006     0.0000    48.0000 </r>
       <r>    -5.2365     0.0000    48.0000 </r>
       <r>    -4.9724     0.0000    48.0000 </r>
       <r>    -4.7083     0.0000    48.0000 </r>
       <r>    -4.4442     0.0000    48.0000 </r>
       <r>    -4.1801     0.0000    48.0000 </r>
       <r>    -3.9161     0.0000    48.0000 </r>
       <r>    -3.6520     0.0000    48.0000 </r>
       <r>    -3.3879     0.0000    48.0000 </r>
       <r>    -3.1238     0.0000    48.0000 </r>
       <r>    -2.8597     0.0000    48.0000 </r>
       <r>    -2.5956     0.0000    48.0000 </r>
       <r>    -2.3315     0.0000    48.0000 </r>
       <r>    -2.0675     0.0000    48.0000 </r>
       <r>    -1.8034     0.0000    48.0000 </r>
       <r>    -1.5393     0.0000    48.0000 </r>
       <r>    -1.2752     0.0000    48.0000 </r>
       <r>    -1.0111     0.1703    48.0450 </r>
       <r>    -0.7470     0.5103    48.2702 </r>
       <r>    -0.4829     0.4391    48.5292 </r>
       <r>    -0.2189     0.8668    48.9199 </r>
       <r>     0.0452     0.5355    49.1518 </r>
       <r>     0.3093     0.8306    49.5562 </r>
       <r>     0.5734     0.6023    49.8639 </r>
       <r>     0.8375     1.3123    50.4334 </r>
       <r>     1.1016     0.8287    50.8577 </r>
       <r>     1.3657     1.4099    51.3272 </r>
       <r>     1.6297     0.2952    51.4773 </r>
       <r>     1.8938     0.7833    51.7659 </r>
       <r>     2.1579     0.2757    51.8749 </r>
       <r>     2.4220     0.5132    52.1112 </r>
       <r>     2.6861     1.0344    52.5752 </r>
       <r>     2.9502     1.5874    53.2386 </r>
       <r>     3.2143     1.8917    54.0968 </r>
       <r>     3.4783     2.4052    55.0345 </r>
       <r>     3.7424     1.9770    56.1575 </r>
       <r>     4.0065     2.9572    57.3747 </r>
       <r>     4.2706     2.5559    58.4250 </r>
       <r>     4.5347     3.6363    60.0020 </r>
       <r>     4.7988     3.3328    61.4322 </r>
       <r>     5.0629     3.4488    63.0184 </r>
       <r>     5.3269     4.0348    64.6558 </r>
       <r>     5.5910     4.9372    66.7031 </r>
       <r>     5.8551     6.1725    69.4426 </r>
       <r>     6.1192     5.8432    72.0014 </r>
       <r>     6.3833     5.9310    74.5628 </r>
       <r>     6.6474     5.2956    76.7839 </r>
       <r>     6.9115     4.3622    78.9506 </r>
       <r>     7.1755     3.5340    80.5374 </r>
       <r>     7.4396     5.7591    82.7119 </r>
       <r>     7.7037     8.5098    86.2195 </r>
       <r>     7.9678     4.1514    88.4297 </r>
       <r>     8.2319     3.3940    89.9102 </r>
       <r>     8.4960     2.9130    91.1616 </r>
       <r>     8.7601     3.2481    92.4550 </r>
       <r>     9.0241     1.5572    93.3696 </r>
       <r>     9.2882     1.4279    94.3180 </r>
       <r>     9.5523     0.8201    94.8069 </r>
       <r>     9.8164     0.7192    95.1205 </r>
       <r>    10.0805     1.3281    95.6077 </r>
       <r>    10.3446     1.1697    96.0242 </r>
       <r>    10.6087     4.1015    97.4581 </r>
       <r>    10.8727     5.4385    99.7036 </r>
       <r>    11.1368     4.4631   101.7307 </r>
       <r>    11.4009     9.2741   105.3068 </r>
       <r>    11.6650     7.5483   108.9483 </r>
       <r>    11.9291     5.1591   111.2131 </r>
       <r>    12.1932     4.9911   113.2382 </r>
       <r>    12.4573     3.9232   115.0326 </r>
       <r>    12.7213     1.6180   115.9342 </r>
       <r>    12.9854     1.3253   116.5375 </r>
       <r>    13.2495     2.2039   117.5022 </r>
       <r>    13.5136     1.3831   118.1083 </r>
       <r>    13.7777     1.4004   118.8282 </r>
       <r>    14.0418     1.5263   119.6288 </r>
       <r>    14.3059     1.4229   120.2959 </r>
       <r>    14.5699     1.2939   120.8243 </r>
       <r>    14.8340     0.9704   121.2459 </r>
       <r>    15.0981     1.5744   121.8186 </r>
       <r>    15.3622     1.7398   122.4803 </r>
       <r>    15.6263     1.7576   123.2454 </r>
       <r>    15.8904     2.1990   124.1224 </r>
       <r>    16.1545     1.5014   124.8340 </r>
       <r>    16.4185     1.3847   125.4421 </r>
       <r>    16.6826     1.1184   126.0002 </r>
       <r>    16.9467     0.5595   126.3491 </r>
       <r>    17.2108     1.2848   126.7664 </r>
       <r>    17.4749     1.0245   127.1942 </r>
       <r>    17.7390     1.0818   127.7093 </r>
       <r>    18.0031     1.0536   128.2505 </r>
       <r>    18.2671     1.0960   128.7616 </r>
       <r>    18.5312     1.3348   129.3178 </r>
       <r>    18.7953     1.3781   129.9507 </r>
       <r>    19.0594     1.7635   130.7921 </r>
       <r>    19.3235     0.9041   131.2804 </r>
       <r>    19.5876     0.8978   131.6051 </r>
       <r>    19.8517     0.7145   131.8623 </r>
       <r>    20.1157     0.1315   131.9861 </r>
       <r>    20.3798     0.0000   132.0000 </r>
       <r>    20.6439     0.0000   132.0000 </r>
       <r>    20.9080     0.0000   132.0000 </r>
       <r>    21.1721     0.0000   132.0000 </r>
       <r>    21.4362     0.0000   132.0000 </r>
       <r>    21.7003     0.0000   132.0000 </r>
       <r>    21.9643     0.0000   132.0000 </r>
       <r>    22.2284     0.0000   132.0000 </r>
       <r>    22.4925     0.0000   132.0000 </r>
       <r>    22.7566     0.0000   132.0000 </r>
       <r>    23.0207     0.0000   132.0000 </r>
       <r>    23.2848     0.0000   132.0000 </r>
       <r>    23.5489     0.0000   132.0000 </r>
       <r>    23.8129     0.0000   132.0000 </r>
      </set>
     </set>
    </array>
   </total>
  </dos>
 </calculation>
 <structure name="finalpos" >
  <crystal>
   <varray name="basis" >
    <v>       4.93225120       0.00000000      -2.54888698 </v>
    <v>      -1.82837151       4.58084703      -2.54888698 </v>
    <v>       0.00000000       0.00000000       5.55193000 </v>
   </varray>
   <i name="volume">    125.43968585 </i>
   <varray name="rec_basis" >
    <v>       0.20274718       0.08092328       0.00000000 </v>
    <v>       0.00000000       0.21830024       0.00000000 </v>
    <v>       0.09308108       0.13737330       0.18011754 </v>
   </varray>
  </crystal>
  <varray name="positions" >
   <v>       0.24635000       0.25365000       0.50000000 </v>
   <v>       0.75365000       0.74635000       0.50000000 </v>
   <v>       0.25365000       0.75365000       0.00731000 </v>
   <v>       0.74635000       0.24635000       0.99269000 </v>
   <v>       0.22661000       0.72661000       0.95323000 </v>
   <v>       0.25000000       0.25000000       0.00000000 </v>
   <v>       0.77339000       0.27339000       0.04677000 </v>
   <v>       0.75000000       0.75000000       0.00000000 </v>
   <v>       0.72661000       0.77339000       0.50000000 </v>
   <v>       0.27339000       0.22661000       0.50000000 </v>
   <v>       0.50000000       0.00000000       0.50000000 </v>
   <v>       0.00000000       0.50000000       0.50000000 </v>
  </varray>
 </structure>
</modeling>
