<?xml version="1.0" encoding="ISO-8859-1"?>
<modeling>
 <generator>
  <i name="program" type="string">vasp </i>
  <i name="version" type="string">6.2.0  </i>
  <i name="subversion" type="string">18Jan21 (build Jan 05 2022 15:41:44) complex                          parallel </i>
  <i name="platform" type="string">LinuxIFC </i>
  <i name="date" type="string">2025 05 07 </i>
  <i name="time" type="string">17:47:56 </i>
 </generator>
 <incar>
  <i type="string" name="SYSTEM">routine with relax: pwdword</i>
  <i type="string" name="PREC">Acc</i>
  <i type="int" name="IALGO">    38</i>
  <i type="string" name="ALGO">A</i>
  <i type="logical" name="ADDGRID"> T  </i>
  <i type="int" name="ICHARG">     2</i>
  <i type="int" name="NELM">   100</i>
  <i type="int" name="NELMIN">     6</i>
  <i name="EDIFF">      0.00000000</i>
  <i type="int" name="NSW">     0</i>
  <i type="int" name="ISIF">    -1</i>
  <i name="ENCUT">    600.00000000</i>
  <i type="logical" name="LREAL"> F  </i>
  <i type="int" name="ISMEAR">     0</i>
  <i name="SIGMA">      0.02000000</i>
  <i type="logical" name="LASPH"> T  </i>
  <i type="string" name="METAGGA">R2SCAN</i>
  <i type="logical" name="LMIXTAU"> F  </i>
 </incar>
 <primitive_cell>
  <structure name="primitive_cell" >
   <crystal>
    <varray name="basis" >
     <v>       5.51723770       0.00000000      -3.09385067 </v>
     <v>      -1.89286188       5.18237259      -3.09385067 </v>
     <v>       0.00000000       0.00000000       6.32549000 </v>
    </varray>
    <i name="volume">    180.86082277 </i>
    <varray name="rec_basis" >
     <v>       0.18125012       0.06620162       0.00000000 </v>
     <v>       0.00000000       0.19296181       0.00000000 </v>
     <v>       0.08865097       0.12675902       0.15809052 </v>
    </varray>
   </crystal>
   <varray name="positions" >
    <v>       0.00000000       0.00000000       0.50000000 </v>
    <v>       0.00000000       0.50000000       0.00000000 </v>
    <v>       0.50000000       0.50000000       0.50000000 </v>
    <v>       0.50000000       0.00000000       0.00000000 </v>
    <v>       0.25000000       0.25000000       0.00000000 </v>
    <v>       0.24746000       0.74746000       0.99492000 </v>
    <v>       0.75000000       0.75000000       0.00000000 </v>
    <v>       0.75254000       0.25254000       0.00508000 </v>
    <v>       0.74746000       0.75254000       0.50000000 </v>
    <v>       0.25254000       0.24746000       0.50000000 </v>
    <v>       0.00000000       0.50000000       0.50000000 </v>
    <v>       0.50000000       0.00000000       0.50000000 </v>
   </varray>
  </structure>
  <varray name="primitive_index" >
   <v type="int" >        1 </v>
   <v type="int" >        2 </v>
   <v type="int" >        3 </v>
   <v type="int" >        4 </v>
   <v type="int" >        5 </v>
   <v type="int" >        6 </v>
   <v type="int" >        7 </v>
   <v type="int" >        8 </v>
   <v type="int" >        9 </v>
   <v type="int" >       10 </v>
   <v type="int" >       11 </v>
   <v type="int" >       12 </v>
  </varray>
 </primitive_cell>
 <kpoints>
  <generation param="Gamma">
   <v type="int" name="divisions">       7        7        8 </v>
   <v name="usershift">      0.00000000       0.00000000       0.00000000 </v>
   <v name="genvec1">      0.14285714       0.00000000       0.00000000 </v>
   <v name="genvec2">      0.00000000       0.14285714       0.00000000 </v>
   <v name="genvec3">      0.00000000       0.00000000       0.12500000 </v>
   <v name="shift">      0.00000000       0.00000000       0.00000000 </v>
  </generation>
  <varray name="kpointlist" >
   <v>       0.00000000       0.00000000       0.00000000 </v>
   <v>       0.14285714      -0.00000000       0.00000000 </v>
   <v>       0.28571429       0.00000000       0.00000000 </v>
   <v>       0.42857143      -0.00000000       0.00000000 </v>
   <v>       0.14285714       0.14285714       0.00000000 </v>
   <v>       0.28571429       0.14285714       0.00000000 </v>
   <v>       0.42857143       0.14285714       0.00000000 </v>
   <v>      -0.42857143       0.14285714       0.00000000 </v>
   <v>      -0.28571429       0.14285714       0.00000000 </v>
   <v>      -0.14285714       0.14285714       0.00000000 </v>
   <v>       0.28571429       0.28571429       0.00000000 </v>
   <v>       0.42857143       0.28571429       0.00000000 </v>
   <v>      -0.42857143       0.28571429       0.00000000 </v>
   <v>      -0.28571429       0.28571429       0.00000000 </v>
   <v>       0.42857143       0.42857143       0.00000000 </v>
   <v>      -0.42857143       0.42857143       0.00000000 </v>
   <v>       0.00000000      -0.00000000       0.12500000 </v>
   <v>       0.14285714      -0.00000000       0.12500000 </v>
   <v>       0.28571429       0.00000000       0.12500000 </v>
   <v>       0.42857143       0.00000000       0.12500000 </v>
   <v>      -0.42857143       0.00000000       0.12500000 </v>
   <v>      -0.28571429      -0.00000000       0.12500000 </v>
   <v>      -0.14285714       0.00000000       0.12500000 </v>
   <v>       0.14285714       0.14285714       0.12500000 </v>
   <v>       0.28571429       0.14285714       0.12500000 </v>
   <v>       0.42857143       0.14285714       0.12500000 </v>
   <v>      -0.42857143       0.14285714       0.12500000 </v>
   <v>      -0.28571429       0.14285714       0.12500000 </v>
   <v>      -0.14285714       0.14285714       0.12500000 </v>
   <v>       0.28571429       0.28571429       0.12500000 </v>
   <v>       0.42857143       0.28571429       0.12500000 </v>
   <v>      -0.42857143       0.28571429       0.12500000 </v>
   <v>      -0.28571429       0.28571429       0.12500000 </v>
   <v>      -0.14285714       0.28571429       0.12500000 </v>
   <v>       0.42857143       0.42857143       0.12500000 </v>
   <v>      -0.42857143       0.42857143       0.12500000 </v>
   <v>      -0.28571429       0.42857143       0.12500000 </v>
   <v>      -0.14285714       0.42857143       0.12500000 </v>
   <v>      -0.42857143      -0.42857143       0.12500000 </v>
   <v>      -0.28571429      -0.42857143       0.12500000 </v>
   <v>      -0.14285714      -0.42857143       0.12500000 </v>
   <v>      -0.28571429      -0.28571429       0.12500000 </v>
   <v>      -0.14285714      -0.28571429       0.12500000 </v>
   <v>      -0.14285714      -0.14285714       0.12500000 </v>
   <v>       0.00000000      -0.00000000       0.25000000 </v>
   <v>       0.14285714      -0.00000000       0.25000000 </v>
   <v>       0.28571429      -0.00000000       0.25000000 </v>
   <v>       0.42857143      -0.00000000       0.25000000 </v>
   <v>      -0.42857143      -0.00000000       0.25000000 </v>
   <v>      -0.28571429      -0.00000000       0.25000000 </v>
   <v>      -0.14285714      -0.00000000       0.25000000 </v>
   <v>       0.14285714       0.14285714       0.25000000 </v>
   <v>       0.28571429       0.14285714       0.25000000 </v>
   <v>       0.42857143       0.14285714       0.25000000 </v>
   <v>      -0.42857143       0.14285714       0.25000000 </v>
   <v>      -0.28571429       0.14285714       0.25000000 </v>
   <v>      -0.14285714       0.14285714       0.25000000 </v>
   <v>       0.28571429       0.28571429       0.25000000 </v>
   <v>       0.42857143       0.28571429       0.25000000 </v>
   <v>      -0.42857143       0.28571429       0.25000000 </v>
   <v>      -0.28571429       0.28571429       0.25000000 </v>
   <v>      -0.14285714       0.28571429       0.25000000 </v>
   <v>       0.42857143       0.42857143       0.25000000 </v>
   <v>      -0.42857143       0.42857143       0.25000000 </v>
   <v>      -0.28571429       0.42857143       0.25000000 </v>
   <v>      -0.14285714       0.42857143       0.25000000 </v>
   <v>      -0.42857143      -0.42857143       0.25000000 </v>
   <v>      -0.28571429      -0.42857143       0.25000000 </v>
   <v>      -0.14285714      -0.42857143       0.25000000 </v>
   <v>      -0.28571429      -0.28571429       0.25000000 </v>
   <v>      -0.14285714      -0.28571429       0.25000000 </v>
   <v>      -0.14285714      -0.14285714       0.25000000 </v>
   <v>       0.00000000       0.00000000       0.37500000 </v>
   <v>       0.14285714      -0.00000000       0.37500000 </v>
   <v>       0.28571429       0.00000000       0.37500000 </v>
   <v>       0.42857143      -0.00000000       0.37500000 </v>
   <v>      -0.42857143       0.00000000       0.37500000 </v>
   <v>      -0.28571429       0.00000000       0.37500000 </v>
   <v>      -0.14285714      -0.00000000       0.37500000 </v>
   <v>       0.14285714       0.14285714       0.37500000 </v>
   <v>       0.28571429       0.14285714       0.37500000 </v>
   <v>       0.42857143       0.14285714       0.37500000 </v>
   <v>      -0.42857143       0.14285714       0.37500000 </v>
   <v>      -0.28571429       0.14285714       0.37500000 </v>
   <v>      -0.14285714       0.14285714       0.37500000 </v>
   <v>       0.28571429       0.28571429       0.37500000 </v>
   <v>       0.42857143       0.28571429       0.37500000 </v>
   <v>      -0.42857143       0.28571429       0.37500000 </v>
   <v>      -0.28571429       0.28571429       0.37500000 </v>
   <v>      -0.14285714       0.28571429       0.37500000 </v>
   <v>       0.42857143       0.42857143       0.37500000 </v>
   <v>      -0.42857143       0.42857143       0.37500000 </v>
   <v>      -0.28571429       0.42857143       0.37500000 </v>
   <v>      -0.14285714       0.42857143       0.37500000 </v>
   <v>      -0.42857143      -0.42857143       0.37500000 </v>
   <v>      -0.28571429      -0.42857143       0.37500000 </v>
   <v>      -0.14285714      -0.42857143       0.37500000 </v>
   <v>      -0.28571429      -0.28571429       0.37500000 </v>
   <v>      -0.14285714      -0.28571429       0.37500000 </v>
   <v>      -0.14285714      -0.14285714       0.37500000 </v>
   <v>       0.00000000      -0.00000000       0.50000000 </v>
   <v>       0.14285714      -0.00000000       0.50000000 </v>
   <v>       0.28571429      -0.00000000       0.50000000 </v>
   <v>       0.42857143      -0.00000000       0.50000000 </v>
   <v>       0.14285714       0.14285714       0.50000000 </v>
   <v>       0.28571429       0.14285714       0.50000000 </v>
   <v>       0.42857143       0.14285714       0.50000000 </v>
   <v>      -0.42857143       0.14285714       0.50000000 </v>
   <v>      -0.28571429       0.14285714       0.50000000 </v>
   <v>      -0.14285714       0.14285714       0.50000000 </v>
   <v>       0.28571429       0.28571429       0.50000000 </v>
   <v>       0.42857143       0.28571429       0.50000000 </v>
   <v>      -0.42857143       0.28571429       0.50000000 </v>
   <v>      -0.28571429       0.28571429       0.50000000 </v>
   <v>       0.42857143       0.42857143       0.50000000 </v>
   <v>      -0.42857143       0.42857143       0.50000000 </v>
  </varray>
  <varray name="weights" >
   <v>       0.00255102 </v>
   <v>       0.01020408 </v>
   <v>       0.01020408 </v>
   <v>       0.01020408 </v>
   <v>       0.00510204 </v>
   <v>       0.01020408 </v>
   <v>       0.01020408 </v>
   <v>       0.01020408 </v>
   <v>       0.01020408 </v>
   <v>       0.00510204 </v>
   <v>       0.00510204 </v>
   <v>       0.01020408 </v>
   <v>       0.01020408 </v>
   <v>       0.00510204 </v>
   <v>       0.00510204 </v>
   <v>       0.00510204 </v>
   <v>       0.00510204 </v>
   <v>       0.01020408 </v>
   <v>       0.01020408 </v>
   <v>       0.01020408 </v>
   <v>       0.01020408 </v>
   <v>       0.01020408 </v>
   <v>       0.01020408 </v>
   <v>       0.00510204 </v>
   <v>       0.01020408 </v>
   <v>       0.01020408 </v>
   <v>       0.01020408 </v>
   <v>       0.01020408 </v>
   <v>       0.01020408 </v>
   <v>       0.00510204 </v>
   <v>       0.01020408 </v>
   <v>       0.01020408 </v>
   <v>       0.01020408 </v>
   <v>       0.01020408 </v>
   <v>       0.00510204 </v>
   <v>       0.01020408 </v>
   <v>       0.01020408 </v>
   <v>       0.01020408 </v>
   <v>       0.00510204 </v>
   <v>       0.01020408 </v>
   <v>       0.01020408 </v>
   <v>       0.00510204 </v>
   <v>       0.01020408 </v>
   <v>       0.00510204 </v>
   <v>       0.00510204 </v>
   <v>       0.01020408 </v>
   <v>       0.01020408 </v>
   <v>       0.01020408 </v>
   <v>       0.01020408 </v>
   <v>       0.01020408 </v>
   <v>       0.01020408 </v>
   <v>       0.00510204 </v>
   <v>       0.01020408 </v>
   <v>       0.01020408 </v>
   <v>       0.01020408 </v>
   <v>       0.01020408 </v>
   <v>       0.01020408 </v>
   <v>       0.00510204 </v>
   <v>       0.01020408 </v>
   <v>       0.01020408 </v>
   <v>       0.01020408 </v>
   <v>       0.01020408 </v>
   <v>       0.00510204 </v>
   <v>       0.01020408 </v>
   <v>       0.01020408 </v>
   <v>       0.01020408 </v>
   <v>       0.00510204 </v>
   <v>       0.01020408 </v>
   <v>       0.01020408 </v>
   <v>       0.00510204 </v>
   <v>       0.01020408 </v>
   <v>       0.00510204 </v>
   <v>       0.00510204 </v>
   <v>       0.01020408 </v>
   <v>       0.01020408 </v>
   <v>       0.01020408 </v>
   <v>       0.01020408 </v>
   <v>       0.01020408 </v>
   <v>       0.01020408 </v>
   <v>       0.00510204 </v>
   <v>       0.01020408 </v>
   <v>       0.01020408 </v>
   <v>       0.01020408 </v>
   <v>       0.01020408 </v>
   <v>       0.01020408 </v>
   <v>       0.00510204 </v>
   <v>       0.01020408 </v>
   <v>       0.01020408 </v>
   <v>       0.01020408 </v>
   <v>       0.01020408 </v>
   <v>       0.00510204 </v>
   <v>       0.01020408 </v>
   <v>       0.01020408 </v>
   <v>       0.01020408 </v>
   <v>       0.00510204 </v>
   <v>       0.01020408 </v>
   <v>       0.01020408 </v>
   <v>       0.00510204 </v>
   <v>       0.01020408 </v>
   <v>       0.00510204 </v>
   <v>       0.00255102 </v>
   <v>       0.01020408 </v>
   <v>       0.01020408 </v>
   <v>       0.01020408 </v>
   <v>       0.00510204 </v>
   <v>       0.01020408 </v>
   <v>       0.01020408 </v>
   <v>       0.01020408 </v>
   <v>       0.01020408 </v>
   <v>       0.00510204 </v>
   <v>       0.00510204 </v>
   <v>       0.01020408 </v>
   <v>       0.01020408 </v>
   <v>       0.00510204 </v>
   <v>       0.00510204 </v>
   <v>       0.00510204 </v>
  </varray>
 </kpoints>
 <parameters>
  <separator name="general" >
   <i type="string" name="SYSTEM">routine with relax: pwdword</i>
   <i type="logical" name="LCOMPAT"> F  </i>
  </separator>
  <separator name="electronic" >
   <i type="string" name="PREC">acc</i>
   <i name="ENMAX">    600.00000000</i>
   <i name="ENAUG">    535.51400000</i>
   <i name="EDIFF">      0.00000000</i>
   <i type="int" name="IALGO">    58</i>
   <i type="int" name="IWAVPR">    10</i>
   <i type="int" name="NBANDS">    66</i>
   <i type="int" name="NBANDSLOW">    -1</i>
   <i type="int" name="NBANDSHIGH">    -1</i>
   <i name="NELECT">    104.00000000</i>
   <i type="int" name="TURBO">     0</i>
   <i type="int" name="IRESTART">     0</i>
   <i type="int" name="NREBOOT">     0</i>
   <i type="int" name="NMIN">     0</i>
   <i name="EREF">      0.00000000</i>
   <separator name="electronic smearing" >
    <i type="int" name="ISMEAR">     0</i>
    <i name="SIGMA">      0.02000000</i>
    <i name="KSPACING">      0.50000000</i>
    <i type="logical" name="KGAMMA"> T  </i>
    <i type="logical" name="KBLOWUP"> F  </i>
   </separator>
   <separator name="electronic projectors" >
    <i type="logical" name="LREAL"> F  </i>
    <v name="ROPT">      0.00000000      0.00000000      0.00000000</v>
    <i type="int" name="LMAXPAW">  -100</i>
    <i type="int" name="LMAXMIX">     2</i>
    <i type="logical" name="NLSPLINE"> F  </i>
   </separator>
   <separator name="electronic startup" >
    <i type="int" name="ISTART">     0</i>
    <i type="int" name="ICHARG">     2</i>
    <i type="int" name="INIWAV">     1</i>
   </separator>
   <separator name="electronic spin" >
    <i type="int" name="ISPIN">     1</i>
    <i type="logical" name="LNONCOLLINEAR"> F  </i>
    <v name="MAGMOM">      1.00000000      1.00000000      1.00000000      1.00000000      1.00000000      1.00000000      1.00000000      1.00000000      1.00000000      1.00000000      1.00000000      1.00000000</v>
    <i name="NUPDOWN">     -1.00000000</i>
    <i type="logical" name="LSORBIT"> F  </i>
    <v name="SAXIS">      0.00000000      0.00000000      1.00000000</v>
    <i type="logical" name="LSPIRAL"> F  </i>
    <v name="QSPIRAL">      0.00000000      0.00000000      0.00000000</v>
    <i type="logical" name="LZEROZ"> F  </i>
   </separator>
   <separator name="electronic exchange-correlation" >
    <i type="logical" name="LASPH"> T  </i>
    <i type="logical" name="LMETAGGA"> F  </i>
   </separator>
   <separator name="electronic convergence" >
    <i type="int" name="NELM">   100</i>
    <i type="int" name="NELMDL">    -5</i>
    <i type="int" name="NELMIN">     6</i>
    <i name="ENINI">    600.00000000</i>
    <separator name="electronic convergence detail" >
     <i type="logical" name="LDIAG"> T  </i>
     <i type="logical" name="LSUBROT"> F  </i>
     <i name="WEIMIN">      0.00000000</i>
     <i name="EBREAK">      0.00000000</i>
     <i name="DEPER">      0.30000000</i>
     <i type="int" name="NRMM">     4</i>
     <i name="TIME">      0.40000000</i>
    </separator>
   </separator>
   <separator name="electronic mixer" >
    <i name="AMIX">      0.40000000</i>
    <i name="BMIX">      1.00000000</i>
    <i name="AMIN">      0.10000000</i>
    <i name="AMIX_MAG">      1.60000000</i>
    <i name="BMIX_MAG">      1.00000000</i>
    <separator name="electronic mixer details" >
     <i type="int" name="IMIX">     4</i>
     <i type="logical" name="MIXFIRST"> F  </i>
     <i type="int" name="MAXMIX">   -45</i>
     <i name="WC">    100.00000000</i>
     <i type="int" name="INIMIX">     1</i>
     <i type="int" name="MIXPRE">     1</i>
     <i type="int" name="MREMOVE">     5</i>
    </separator>
   </separator>
   <separator name="electronic dipolcorrection" >
    <i type="logical" name="LDIPOL"> F  </i>
    <i type="logical" name="LMONO"> F  </i>
    <i type="int" name="IDIPOL">     0</i>
    <i name="EPSILON">      1.00000000</i>
    <v name="DIPOL">   -100.00000000   -100.00000000   -100.00000000</v>
    <i name="EFIELD">      0.00000000</i>
   </separator>
  </separator>
  <separator name="grids" >
   <i type="int" name="NGX">    54</i>
   <i type="int" name="NGY">    54</i>
   <i type="int" name="NGZ">    54</i>
   <i type="int" name="NGXF">   108</i>
   <i type="int" name="NGYF">   108</i>
   <i type="int" name="NGZF">   108</i>
   <i type="logical" name="ADDGRID"> T  </i>
  </separator>
  <separator name="ionic" >
   <i type="int" name="NSW">     0</i>
   <i type="int" name="IBRION">    -1</i>
   <i type="int" name="MDALGO">     0</i>
   <i type="int" name="ISIF">    -1</i>
   <i name="PSTRESS">      0.00000000</i>
   <i name="EDIFFG">      0.00000001</i>
   <i type="int" name="NFREE">     0</i>
   <i name="POTIM">      0.50000000</i>
   <i name="SMASS">     -3.00000000</i>
   <i name="SCALEE">      1.00000000</i>
  </separator>
  <separator name="ionic md" >
   <i name="TEBEG">      0.00010000</i>
   <i name="TEEND">      0.00010000</i>
   <i type="int" name="NBLOCK">     1</i>
   <i type="int" name="KBLOCK">     1</i>
   <i type="int" name="NPACO">   256</i>
   <i name="APACO">     16.00000000</i>
  </separator>
  <separator name="symmetry" >
   <i type="int" name="ISYM">     2</i>
   <i name="SYMPREC">      0.00001000</i>
  </separator>
  <separator name="dos" >
   <i type="int" name="LORBIT">     0</i>
   <v name="RWIGS">     -1.00000000     -1.00000000     -1.00000000</v>
   <i type="int" name="NEDOS">   301</i>
   <i name="EMIN">     10.00000000</i>
   <i name="EMAX">    -10.00000000</i>
   <i name="EFERMI">      0.00000000</i>
  </separator>
  <separator name="writing" >
   <i type="int" name="NWRITE">     2</i>
   <i type="logical" name="LWAVE"> T  </i>
   <i type="logical" name="LDOWNSAMPLE"> F  </i>
   <i type="logical" name="LCHARG"> T  </i>
   <i type="logical" name="LPARD"> F  </i>
   <i type="logical" name="LVTOT"> F  </i>
   <i type="logical" name="LVHAR"> F  </i>
   <i type="logical" name="LELF"> F  </i>
   <i type="logical" name="LOPTICS"> F  </i>
   <v name="STM">      0.00000000      0.00000000      0.00000000      0.00000000      0.00000000      0.00000000      0.00000000</v>
  </separator>
  <separator name="performance" >
   <i type="int" name="NPAR">     6</i>
   <i type="int" name="NSIM">     4</i>
   <i type="int" name="NBLK">    -1</i>
   <i type="logical" name="LPLANE"> T  </i>
   <i type="logical" name="LSCALAPACK"> T  </i>
   <i type="logical" name="LSCAAWARE"> F  </i>
   <i type="logical" name="LSCALU"> F  </i>
   <i type="logical" name="LASYNC"> F  </i>
   <i type="logical" name="LORBITALREAL"> F  </i>
  </separator>
  <separator name="miscellaneous" >
   <i type="int" name="IDIOT">     3</i>
   <i type="int" name="PHON_NSTRUCT">    -1</i>
   <i type="logical" name="LMUSIC"> F  </i>
   <v name="POMASS">     10.81100000     95.94000000     28.08500000</v>
   <v name="DARWINR">      0.00000000      0.00000000      0.00000000</v>
   <v name="DARWINV">      1.00000000      1.00000000      1.00000000</v>
   <i type="logical" name="LCORR"> T  </i>
  </separator>
  <i type="logical" name="GGA_COMPAT"> T  </i>
  <i type="logical" name="LBERRY"> F  </i>
  <i type="int" name="ICORELEVEL">     0</i>
  <i type="logical" name="LDAU"> F  </i>
  <i type="int" name="I_CONSTRAINED_M">     0</i>
  <separator name="electronic exchange-correlation" >
   <i type="string" name="GGA">--</i>
   <i type="int" name="VOSKOWN">     0</i>
   <i type="logical" name="LHFCALC"> F  </i>
   <i type="string" name="PRECFOCK"></i>
   <i type="logical" name="LSYMGRAD"> F  </i>
   <i type="logical" name="LHFONE"> F  </i>
   <i type="logical" name="LRHFCALC"> F  </i>
   <i type="logical" name="LTHOMAS"> F  </i>
   <i type="logical" name="LMODELHF"> F  </i>
   <i type="logical" name="LFOCKACE"> F  </i>
   <i name="ENCUT4O">     -1.00000000</i>
   <i type="int" name="EXXOEP">     0</i>
   <i type="int" name="FOURORBIT">     0</i>
   <i name="AEXX">      0.00000000</i>
   <i name="HFALPHA">      0.00000000</i>
   <i name="MCALPHA">      0.00000000</i>
   <i name="ALDAX">      1.00000000</i>
   <i name="AGGAX">      1.00000000</i>
   <i name="ALDAC">      1.00000000</i>
   <i name="AGGAC">      1.00000000</i>
   <i type="int" name="NKREDX">     1</i>
   <i type="int" name="NKREDY">     1</i>
   <i type="int" name="NKREDZ">     1</i>
   <i type="logical" name="SHIFTRED"> F  </i>
   <i type="logical" name="ODDONLY"> F  </i>
   <i type="logical" name="EVENONLY"> F  </i>
   <i type="int" name="LMAXFOCK">     0</i>
   <i type="int" name="NMAXFOCKAE">     0</i>
   <i type="logical" name="LFOCKAEDFT"> F  </i>
   <i name="HFSCREEN">      0.00000000</i>
   <i name="HFSCREENC">      0.00000000</i>
   <i type="int" name="NBANDSGWLOW">     0</i>
  </separator>
  <separator name="vdW DFT" >
   <i type="logical" name="LUSE_VDW"> F  </i>
   <i name="Zab_VDW">     -0.84910000</i>
   <i name="PARAM1">      0.12340000</i>
   <i name="PARAM2">      1.00000000</i>
   <i name="PARAM3">      0.00000000</i>
  </separator>
  <separator name="model GW" >
   <i type="int" name="MODEL_GW">     0</i>
   <i name="MODEL_EPS0">      9.04304114</i>
   <i name="MODEL_ALPHA">      1.00000000</i>
  </separator>
  <separator name="linear response parameters" >
   <i type="logical" name="LEPSILON"> F  </i>
   <i type="logical" name="LRPA"> F  </i>
   <i type="logical" name="LNABLA"> F  </i>
   <i type="logical" name="LVEL"> F  </i>
   <i type="int" name="KINTER">     0</i>
   <i name="CSHIFT">      0.10000000</i>
   <i name="OMEGAMAX">     -1.00000000</i>
   <i name="DEG_THRESHOLD">      0.00200000</i>
   <i name="RTIME">     -0.10000000</i>
   <i name="WPLASMAI">      0.00000000</i>
   <v name="DFIELD">      0.00000000      0.00000000      0.00000000</v>
   <v name="WPLASMA">      0.00000000      0.00000000      0.00000000      0.00000000      0.00000000      0.00000000      0.00000000      0.00000000      0.00000000</v>
  </separator>
  <separator name="orbital magnetization" >
   <i type="logical" name="NUCIND"> F  </i>
   <v name="MAGPOS">      0.00000000      0.00000000      0.00000000</v>
   <i type="logical" name="LNICSALL"> T  </i>
   <i type="logical" name="ORBITALMAG"> F  </i>
   <i type="logical" name="LMAGBLOCH"> F  </i>
   <i type="logical" name="LCHIMAG"> F  </i>
   <i type="logical" name="LGAUGE"> T  </i>
   <i type="int" name="MAGATOM">     0</i>
   <v name="MAGDIPOL">      0.00000000      0.00000000      0.00000000</v>
   <v name="AVECCONST">      0.00000000      0.00000000      0.00000000</v>
  </separator>
  <separator name="response functions" >
   <i type="logical" name="LFINITE_TEMPERATURE"> F  </i>
   <i type="logical" name="LADDER"> F  </i>
   <i type="logical" name="LRPAFORCE"> F  </i>
   <i type="logical" name="LFXC"> F  </i>
   <i type="logical" name="LHARTREE"> T  </i>
   <i type="int" name="IBSE">     0</i>
   <v type="int" name="KPOINT">    -1     0     0     0</v>
   <i type="logical" name="LTCTC"> F  </i>
   <i type="logical" name="LTCTE"> F  </i>
   <i type="logical" name="LTETE"> F  </i>
   <i type="logical" name="LTRIPLET"> F  </i>
   <i type="logical" name="LFXCEPS"> F  </i>
   <i type="logical" name="LFXHEG"> F  </i>
   <i type="int" name="NATURALO">     2</i>
   <i type="logical" name="LHOLEGF"> F  </i>
   <i type="logical" name="L2ORDER"> F  </i>
   <i type="logical" name="LDMP1"> F  </i>
   <i type="logical" name="LMP2LT"> F  </i>
   <i type="logical" name="LSMP2LT"> F  </i>
   <i type="logical" name="LGWLF"> F  </i>
   <i name="ENCUTGW">     -2.00000000</i>
   <i name="ENCUTGWSOFT">     -2.00000000</i>
   <i name="ENCUTLF">     -1.00000000</i>
   <i type="logical" name="LESF_SPLINES"> F  </i>
   <i type="int" name="LMAXMP2">    -1</i>
   <i name="SCISSOR">      0.00000000</i>
   <i type="int" name="NOMEGA">     0</i>
   <i type="int" name="NOMEGAR">     0</i>
   <i type="int" name="NBANDSGW">    -1</i>
   <i type="int" name="NBANDSO">    -1</i>
   <i type="int" name="NBANDSV">    -1</i>
   <i type="int" name="NELM">   100</i>
   <i type="int" name="NELMHF">     1</i>
   <i type="int" name="DIM">     3</i>
   <i type="int" name="IESPILON">     4</i>
   <i type="int" name="ANTIRES">     0</i>
   <i name="OMEGAMAX">    -30.00000000</i>
   <i name="OMEGAMIN">    -30.00000000</i>
   <i name="OMEGATL">   -200.00000000</i>
   <i type="int" name="OMEGAGRID">     0</i>
   <i name="CSHIFT">     -0.10000000</i>
   <i type="logical" name="LSELFENERGY"> F  </i>
   <i type="logical" name="LSPECTRAL"> F  </i>
   <i type="logical" name="LSPECTRALGW"> F  </i>
   <i type="logical" name="LSINGLES"> F  </i>
   <i type="logical" name="LFERMIGW"> F  </i>
   <i type="logical" name="ODDONLYGW"> F  </i>
   <i type="logical" name="EVENONLYGW"> F  </i>
   <i type="int" name="NKREDLFX">     1</i>
   <i type="int" name="NKREDLFY">     1</i>
   <i type="int" name="NKREDLFZ">     1</i>
   <i type="int" name="MAXMEM">  2800</i>
   <i type="int" name="TELESCOPE">     0</i>
   <i type="int" name="NTAUPAR">    -1</i>
   <i type="int" name="NOMEGAPAR">    -1</i>
   <i name="DAMP_NEWTON">      0.80000001</i>
   <i name="LAMBDA">      1.00000000</i>
  </separator>
  <separator name="External order field" >
   <i name="OFIELD_KAPPA">      0.00000000</i>
   <v name="OFIELD_K">      0.00000000      0.00000000      0.00000000</v>
   <i name="OFIELD_Q6_NEAR">      0.00000000</i>
   <i name="OFIELD_Q6_FAR">      0.00000000</i>
   <i name="OFIELD_A">      0.00000000</i>
  </separator>
 </parameters>
 <atominfo>
  <atoms>      12 </atoms>
  <types>       3 </types>
  <array name="atoms" >
   <dimension dim="1">ion</dimension>
   <field type="string">element</field>
   <field type="int">atomtype</field>
   <set>
    <rc><c>B </c><c>   1</c></rc>
    <rc><c>B </c><c>   1</c></rc>
    <rc><c>B </c><c>   1</c></rc>
    <rc><c>B </c><c>   1</c></rc>
    <rc><c>Mo</c><c>   2</c></rc>
    <rc><c>Mo</c><c>   2</c></rc>
    <rc><c>Mo</c><c>   2</c></rc>
    <rc><c>Mo</c><c>   2</c></rc>
    <rc><c>Mo</c><c>   2</c></rc>
    <rc><c>Mo</c><c>   2</c></rc>
    <rc><c>Si</c><c>   3</c></rc>
    <rc><c>Si</c><c>   3</c></rc>
   </set>
  </array>
  <array name="atomtypes" >
   <dimension dim="1">type</dimension>
   <field type="int">atomspertype</field>
   <field type="string">element</field>
   <field>mass</field>
   <field>valence</field>
   <field type="string">pseudopotential</field>
   <set>
    <rc><c>   4</c><c>B </c><c>     10.81100000</c><c>      3.00000000</c><c>  PAW_PBE B 06Sep2000                   </c></rc>
    <rc><c>   6</c><c>Mo</c><c>     95.94000000</c><c>     14.00000000</c><c>  PAW_PBE Mo_sv 02Feb2006               </c></rc>
    <rc><c>   2</c><c>Si</c><c>     28.08500000</c><c>      4.00000000</c><c>  PAW_PBE Si 05Jan2001                  </c></rc>
   </set>
  </array>
 </atominfo>
 <structure name="initialpos" >
  <crystal>
   <varray name="basis" >
    <v>       5.51723770       0.00000000      -3.09385067 </v>
    <v>      -1.89286188       5.18237259      -3.09385067 </v>
    <v>       0.00000000       0.00000000       6.32549000 </v>
   </varray>
   <i name="volume">    180.86082277 </i>
   <varray name="rec_basis" >
    <v>       0.18125012       0.06620162       0.00000000 </v>
    <v>       0.00000000       0.19296181       0.00000000 </v>
    <v>       0.08865097       0.12675902       0.15809052 </v>
   </varray>
  </crystal>
  <varray name="positions" >
   <v>       0.00000000       0.00000000       0.50000000 </v>
   <v>       0.00000000       0.50000000       0.00000000 </v>
   <v>       0.50000000       0.50000000       0.50000000 </v>
   <v>       0.50000000       0.00000000       0.00000000 </v>
   <v>       0.25000000       0.25000000       0.00000000 </v>
   <v>       0.24746000       0.74746000       0.99492000 </v>
   <v>       0.75000000       0.75000000       0.00000000 </v>
   <v>       0.75254000       0.25254000       0.00508000 </v>
   <v>       0.74746000       0.75254000       0.50000000 </v>
   <v>       0.25254000       0.24746000       0.50000000 </v>
   <v>       0.00000000       0.50000000       0.50000000 </v>
   <v>       0.50000000       0.00000000       0.50000000 </v>
  </varray>
 </structure>
 <calculation>
  <scstep>
   <time name="total">   30.33   30.56</time>
   <energy>
    <i name="alphaZ">    516.58067057 </i>
    <i name="ewald">  -8878.27496214 </i>
    <i name="hartreedc">  -2735.79536400 </i>
    <i name="XCdc">    479.45867243 </i>
    <i name="pawpsdc">   9250.47132855 </i>
    <i name="pawaedc">  -9210.50234729 </i>
    <i name="eentropy">     -0.00048988 </i>
    <i name="bandstr">    -32.94207840 </i>
    <i name="atom">  11664.50664672 </i>
    <i name="e_fr_energy">   1053.50207657 </i>
    <i name="e_wo_entrp">   1053.50256645 </i>
    <i name="e_0_energy">   1053.50232151 </i>
   </energy>
  </scstep>
  <scstep>
   <time name="total">   30.65   30.88</time>
   <energy>
    <i name="e_fr_energy">   -188.00784878 </i>
    <i name="e_wo_entrp">   -188.00657210 </i>
    <i name="e_0_energy">   -188.00721044 </i>
   </energy>
  </scstep>
  <scstep>
   <time name="total">   34.46   34.73</time>
   <energy>
    <i name="e_fr_energy">   -237.62119529 </i>
    <i name="e_wo_entrp">   -237.61808143 </i>
    <i name="e_0_energy">   -237.61963836 </i>
   </energy>
  </scstep>
  <scstep>
   <time name="total">   31.62   31.87</time>
   <energy>
    <i name="e_fr_energy">   -238.64501027 </i>
    <i name="e_wo_entrp">   -238.64225200 </i>
    <i name="e_0_energy">   -238.64363114 </i>
   </energy>
  </scstep>
  <scstep>
   <time name="total">   33.93   34.21</time>
   <energy>
    <i name="e_fr_energy">   -238.66512396 </i>
    <i name="e_wo_entrp">   -238.66235812 </i>
    <i name="e_0_energy">   -238.66374104 </i>
   </energy>
  </scstep>
  <scstep>
   <time name="total">   34.52   34.79</time>
   <energy>
    <i name="e_fr_energy">   -166.62527646 </i>
    <i name="e_wo_entrp">   -166.62295747 </i>
    <i name="e_0_energy">   -166.62411696 </i>
   </energy>
  </scstep>
  <scstep>
   <time name="total">   34.42   34.69</time>
   <energy>
    <i name="e_fr_energy">   -187.75967588 </i>
    <i name="e_wo_entrp">   -187.75711025 </i>
    <i name="e_0_energy">   -187.75839306 </i>
   </energy>
  </scstep>
  <scstep>
   <time name="total">   34.49   34.76</time>
   <energy>
    <i name="e_fr_energy">   -191.36841779 </i>
    <i name="e_wo_entrp">   -191.36587336 </i>
    <i name="e_0_energy">   -191.36714558 </i>
   </energy>
  </scstep>
  <scstep>
   <time name="total">   34.71   34.98</time>
   <energy>
    <i name="e_fr_energy">   -192.33163888 </i>
    <i name="e_wo_entrp">   -192.32906796 </i>
    <i name="e_0_energy">   -192.33035342 </i>
   </energy>
  </scstep>
  <scstep>
   <time name="total">   34.37   34.64</time>
   <energy>
    <i name="e_fr_energy">   -192.61136034 </i>
    <i name="e_wo_entrp">   -192.60907034 </i>
    <i name="e_0_energy">   -192.61021534 </i>
   </energy>
  </scstep>
  <scstep>
   <time name="total">   34.68   34.94</time>
   <energy>
    <i name="e_fr_energy">   -192.72871768 </i>
    <i name="e_wo_entrp">   -192.72645720 </i>
    <i name="e_0_energy">   -192.72758744 </i>
   </energy>
  </scstep>
  <scstep>
   <time name="total">   34.58   34.85</time>
   <energy>
    <i name="e_fr_energy">   -192.77581952 </i>
    <i name="e_wo_entrp">   -192.77381481 </i>
    <i name="e_0_energy">   -192.77481716 </i>
   </energy>
  </scstep>
  <scstep>
   <time name="total">   34.48   34.76</time>
   <energy>
    <i name="e_fr_energy">   -192.79930448 </i>
    <i name="e_wo_entrp">   -192.79746481 </i>
    <i name="e_0_energy">   -192.79838464 </i>
   </energy>
  </scstep>
  <scstep>
   <time name="total">   34.68   34.97</time>
   <energy>
    <i name="e_fr_energy">   -192.81176569 </i>
    <i name="e_wo_entrp">   -192.81002385 </i>
    <i name="e_0_energy">   -192.81089477 </i>
   </energy>
  </scstep>
  <scstep>
   <time name="total">   34.51   34.78</time>
   <energy>
    <i name="e_fr_energy">   -192.81779335 </i>
    <i name="e_wo_entrp">   -192.81602072 </i>
    <i name="e_0_energy">   -192.81690704 </i>
   </energy>
  </scstep>
  <scstep>
   <time name="total">   34.59   34.87</time>
   <energy>
    <i name="e_fr_energy">   -192.82054769 </i>
    <i name="e_wo_entrp">   -192.81876338 </i>
    <i name="e_0_energy">   -192.81965554 </i>
   </energy>
  </scstep>
  <scstep>
   <time name="total">   34.67   34.95</time>
   <energy>
    <i name="e_fr_energy">   -192.82166278 </i>
    <i name="e_wo_entrp">   -192.81986182 </i>
    <i name="e_0_energy">   -192.82076230 </i>
   </energy>
  </scstep>
  <scstep>
   <time name="total">   34.71   34.98</time>
   <energy>
    <i name="e_fr_energy">   -192.82208495 </i>
    <i name="e_wo_entrp">   -192.82028172 </i>
    <i name="e_0_energy">   -192.82118333 </i>
   </energy>
  </scstep>
  <scstep>
   <time name="total">   34.82   35.09</time>
   <energy>
    <i name="e_fr_energy">   -192.82228373 </i>
    <i name="e_wo_entrp">   -192.82047400 </i>
    <i name="e_0_energy">   -192.82137886 </i>
   </energy>
  </scstep>
  <scstep>
   <time name="total">   34.61   34.88</time>
   <energy>
    <i name="e_fr_energy">   -192.82238971 </i>
    <i name="e_wo_entrp">   -192.82057977 </i>
    <i name="e_0_energy">   -192.82148474 </i>
   </energy>
  </scstep>
  <scstep>
   <time name="total">   34.73   35.01</time>
   <energy>
    <i name="e_fr_energy">   -192.82243625 </i>
    <i name="e_wo_entrp">   -192.82062432 </i>
    <i name="e_0_energy">   -192.82153028 </i>
   </energy>
  </scstep>
  <scstep>
   <time name="total">   34.74   35.02</time>
   <energy>
    <i name="e_fr_energy">   -192.82245759 </i>
    <i name="e_wo_entrp">   -192.82064636 </i>
    <i name="e_0_energy">   -192.82155197 </i>
   </energy>
  </scstep>
  <scstep>
   <time name="total">   34.60   34.88</time>
   <energy>
    <i name="e_fr_energy">   -192.82246725 </i>
    <i name="e_wo_entrp">   -192.82065616 </i>
    <i name="e_0_energy">   -192.82156171 </i>
   </energy>
  </scstep>
  <scstep>
   <time name="total">   34.64   34.91</time>
   <energy>
    <i name="e_fr_energy">   -192.82247145 </i>
    <i name="e_wo_entrp">   -192.82066161 </i>
    <i name="e_0_energy">   -192.82156653 </i>
   </energy>
  </scstep>
  <scstep>
   <time name="total">   35.04   35.31</time>
   <energy>
    <i name="e_fr_energy">   -192.82247341 </i>
    <i name="e_wo_entrp">   -192.82066407 </i>
    <i name="e_0_energy">   -192.82156874 </i>
   </energy>
  </scstep>
  <scstep>
   <time name="total">   34.56   34.84</time>
   <energy>
    <i name="e_fr_energy">   -192.82247447 </i>
    <i name="e_wo_entrp">   -192.82066544 </i>
    <i name="e_0_energy">   -192.82156996 </i>
   </energy>
  </scstep>
  <scstep>
   <time name="total">   34.72   35.00</time>
   <energy>
    <i name="e_fr_energy">   -192.82247478 </i>
    <i name="e_wo_entrp">   -192.82066587 </i>
    <i name="e_0_energy">   -192.82157033 </i>
   </energy>
  </scstep>
  <scstep>
   <time name="total">   34.80   35.07</time>
   <energy>
    <i name="e_fr_energy">   -192.82247491 </i>
    <i name="e_wo_entrp">   -192.82066601 </i>
    <i name="e_0_energy">   -192.82157046 </i>
   </energy>
  </scstep>
  <scstep>
   <time name="total">   34.68   34.95</time>
   <energy>
    <i name="e_fr_energy">   -192.82247508 </i>
    <i name="e_wo_entrp">   -192.82066628 </i>
    <i name="e_0_energy">   -192.82157068 </i>
   </energy>
  </scstep>
  <scstep>
   <time name="total">   34.75   35.02</time>
   <energy>
    <i name="e_fr_energy">   -192.82247512 </i>
    <i name="e_wo_entrp">   -192.82066635 </i>
    <i name="e_0_energy">   -192.82157073 </i>
   </energy>
  </scstep>
  <scstep>
   <time name="total">   35.16   35.43</time>
   <energy>
    <i name="e_fr_energy">   -192.82247512 </i>
    <i name="e_wo_entrp">   -192.82066633 </i>
    <i name="e_0_energy">   -192.82157073 </i>
   </energy>
  </scstep>
  <scstep>
   <time name="total">   35.02   35.30</time>
   <energy>
    <i name="e_fr_energy">   -192.82247513 </i>
    <i name="e_wo_entrp">   -192.82066634 </i>
    <i name="e_0_energy">   -192.82157073 </i>
   </energy>
  </scstep>
  <scstep>
   <time name="total">   34.58   34.85</time>
   <energy>
    <i name="e_fr_energy">   -192.82247513 </i>
    <i name="e_wo_entrp">   -192.82066637 </i>
    <i name="e_0_energy">   -192.82157075 </i>
   </energy>
  </scstep>
  <scstep>
   <time name="total">   35.77   36.03</time>
   <energy>
    <i name="e_fr_energy">   -192.82247514 </i>
    <i name="e_wo_entrp">   -192.82066639 </i>
    <i name="e_0_energy">   -192.82157076 </i>
   </energy>
  </scstep>
  <scstep>
   <time name="total">   35.19   35.45</time>
   <energy>
    <i name="e_fr_energy">   -192.82247514 </i>
    <i name="e_wo_entrp">   -192.82066639 </i>
    <i name="e_0_energy">   -192.82157077 </i>
   </energy>
  </scstep>
  <scstep>
   <time name="total">   40.66   40.97</time>
   <energy>
    <i name="alphaZ">    516.58067057 </i>
    <i name="ewald">  -8878.27496214 </i>
    <i name="hartreedc">  -2586.03504944 </i>
    <i name="XCdc">    487.62374311 </i>
    <i name="pawpsdc">  12157.61221317 </i>
    <i name="pawaedc"> -12139.37403382 </i>
    <i name="eentropy">     -0.00180875 </i>
    <i name="bandstr">  -1415.45989456 </i>
    <i name="atom">  11664.50664672 </i>
    <i name="e_fr_energy">   -192.82247514 </i>
    <i name="e_wo_entrp">   -192.82066640 </i>
    <i name="e_0_energy">   -192.82157077 </i>
   </energy>
  </scstep>
  <structure>
   <crystal>
    <varray name="basis" >
     <v>       5.51723770       0.00000000      -3.09385067 </v>
     <v>      -1.89286188       5.18237259      -3.09385067 </v>
     <v>       0.00000000       0.00000000       6.32549000 </v>
    </varray>
    <i name="volume">    180.86082277 </i>
    <varray name="rec_basis" >
     <v>       0.18125012       0.06620162       0.00000000 </v>
     <v>       0.00000000       0.19296181       0.00000000 </v>
     <v>       0.08865097       0.12675902       0.15809052 </v>
    </varray>
   </crystal>
   <varray name="positions" >
    <v>       0.00000000       0.00000000       0.50000000 </v>
    <v>       0.00000000       0.50000000       0.00000000 </v>
    <v>       0.50000000       0.50000000       0.50000000 </v>
    <v>       0.50000000       0.00000000       0.00000000 </v>
    <v>       0.25000000       0.25000000       0.00000000 </v>
    <v>       0.24746000       0.74746000       0.99492000 </v>
    <v>       0.75000000       0.75000000       0.00000000 </v>
    <v>       0.75254000       0.25254000       0.00508000 </v>
    <v>       0.74746000       0.75254000       0.50000000 </v>
    <v>       0.25254000       0.24746000       0.50000000 </v>
    <v>       0.00000000       0.50000000       0.50000000 </v>
    <v>       0.50000000       0.00000000       0.50000000 </v>
   </varray>
  </structure>
  <varray name="forces" >
   <v>       0.00000000       0.00000000       0.00000000 </v>
   <v>       0.00000000       0.00000000       0.00000000 </v>
   <v>       0.00000000       0.00000000       0.00000000 </v>
   <v>       0.00000000       0.00000000       0.00000000 </v>
   <v>       0.00000000       0.00000000       0.00000000 </v>
   <v>       0.00000000       0.00000000       0.00000000 </v>
   <v>       0.00000000       0.00000000       0.00000000 </v>
   <v>       0.00000000       0.00000000       0.00000000 </v>
   <v>       0.00000000       0.00000000       0.00000000 </v>
   <v>       0.00000000       0.00000000       0.00000000 </v>
   <v>       0.00000000       0.00000000       0.00000000 </v>
   <v>       0.00000000       0.00000000       0.00000000 </v>
  </varray>
  <varray name="stress" >
   <v>       0.00000000       0.00000000       0.00000000 </v>
   <v>       0.00000000       0.00000000       0.00000000 </v>
   <v>       0.00000000       0.00000000       0.00000000 </v>
  </varray>
  <energy>
   <i name="e_fr_energy">   -192.82247514 </i>
   <i name="e_wo_entrp">   -192.82066640 </i>
   <i name="e_0_energy">   -192.82157077 </i>
  </energy>
  <time name="totalsc"> 1247.25 1256.99</time>
  <eigenvalues>
   <array>
    <dimension dim="1">band</dimension>
    <dimension dim="2">kpoint</dimension>
    <dimension dim="3">spin</dimension>
    <field>eigene</field>
    <field>occ</field>
    <set>
     <set comment="spin 1">
      <set comment="kpoint 1">
       <r>  -55.0198    1.0000 </r>
       <r>  -55.0182    1.0000 </r>
       <r>  -54.4492    1.0000 </r>
       <r>  -54.4299    1.0000 </r>
       <r>  -54.4298    1.0000 </r>
       <r>  -54.4104    1.0000 </r>
       <r>  -28.4670    1.0000 </r>
       <r>  -28.4670    1.0000 </r>
       <r>  -28.4492    1.0000 </r>
       <r>  -28.4491    1.0000 </r>
       <r>  -28.2792    1.0000 </r>
       <r>  -28.2691    1.0000 </r>
       <r>  -28.2654    1.0000 </r>
       <r>  -28.1081    1.0000 </r>
       <r>  -28.1081    1.0000 </r>
       <r>  -27.9334    1.0000 </r>
       <r>  -27.8356    1.0000 </r>
       <r>  -27.8180    1.0000 </r>
       <r>  -27.8180    1.0000 </r>
       <r>  -27.8166    1.0000 </r>
       <r>  -27.7435    1.0000 </r>
       <r>  -27.6453    1.0000 </r>
       <r>  -27.6453    1.0000 </r>
       <r>  -27.5667    1.0000 </r>
       <r>   -2.5664    1.0000 </r>
       <r>    0.0550    1.0000 </r>
       <r>    0.5620    1.0000 </r>
       <r>    1.5264    1.0000 </r>
       <r>    2.0470    1.0000 </r>
       <r>    2.5121    1.0000 </r>
       <r>    2.5121    1.0000 </r>
       <r>    2.6509    1.0000 </r>
       <r>    2.6509    1.0000 </r>
       <r>    3.1255    1.0000 </r>
       <r>    4.0393    1.0000 </r>
       <r>    4.0393    1.0000 </r>
       <r>    4.1006    1.0000 </r>
       <r>    4.2836    1.0000 </r>
       <r>    4.9280    1.0000 </r>
       <r>    5.3718    1.0000 </r>
       <r>    5.3718    1.0000 </r>
       <r>    6.0315    1.0000 </r>
       <r>    6.0315    1.0000 </r>
       <r>    6.0703    1.0000 </r>
       <r>    6.9844    1.0000 </r>
       <r>    6.9844    1.0000 </r>
       <r>    7.2064    1.0000 </r>
       <r>    7.8695    0.4467 </r>
       <r>    7.8879    0.0757 </r>
       <r>    7.8880    0.0751 </r>
       <r>    8.0335    0.0000 </r>
       <r>    8.1807    0.0000 </r>
       <r>    8.2145    0.0000 </r>
       <r>    8.3288    0.0000 </r>
       <r>    9.3009    0.0000 </r>
       <r>    9.3147    0.0000 </r>
       <r>    9.8167    0.0000 </r>
       <r>    9.8167    0.0000 </r>
       <r>    9.8393    0.0000 </r>
       <r>    9.9718    0.0000 </r>
       <r>    9.9719    0.0000 </r>
       <r>   10.3154    0.0000 </r>
       <r>   10.8528    0.0000 </r>
       <r>   11.6336    0.0000 </r>
       <r>   11.6356    0.0000 </r>
       <r>   11.7335    0.0000 </r>
      </set>
      <set comment="kpoint 2">
       <r>  -55.0196    1.0000 </r>
       <r>  -55.0182    1.0000 </r>
       <r>  -54.4483    1.0000 </r>
       <r>  -54.4309    1.0000 </r>
       <r>  -54.4289    1.0000 </r>
       <r>  -54.4113    1.0000 </r>
       <r>  -28.4634    1.0000 </r>
       <r>  -28.4632    1.0000 </r>
       <r>  -28.4472    1.0000 </r>
       <r>  -28.4466    1.0000 </r>
       <r>  -28.2721    1.0000 </r>
       <r>  -28.2600    1.0000 </r>
       <r>  -28.2599    1.0000 </r>
       <r>  -28.1154    1.0000 </r>
       <r>  -28.0994    1.0000 </r>
       <r>  -27.9412    1.0000 </r>
       <r>  -27.8368    1.0000 </r>
       <r>  -27.8234    1.0000 </r>
       <r>  -27.8215    1.0000 </r>
       <r>  -27.8209    1.0000 </r>
       <r>  -27.7444    1.0000 </r>
       <r>  -27.6560    1.0000 </r>
       <r>  -27.6433    1.0000 </r>
       <r>  -27.5729    1.0000 </r>
       <r>   -2.4417    1.0000 </r>
       <r>    0.1105    1.0000 </r>
       <r>    0.6128    1.0000 </r>
       <r>    0.9950    1.0000 </r>
       <r>    1.8779    1.0000 </r>
       <r>    2.1523    1.0000 </r>
       <r>    2.3404    1.0000 </r>
       <r>    2.9837    1.0000 </r>
       <r>    3.1704    1.0000 </r>
       <r>    3.5792    1.0000 </r>
       <r>    4.1870    1.0000 </r>
       <r>    4.1907    1.0000 </r>
       <r>    4.2578    1.0000 </r>
       <r>    4.3656    1.0000 </r>
       <r>    4.8970    1.0000 </r>
       <r>    5.2019    1.0000 </r>
       <r>    5.3361    1.0000 </r>
       <r>    5.8722    1.0000 </r>
       <r>    5.9384    1.0000 </r>
       <r>    6.1244    1.0000 </r>
       <r>    6.9478    1.0000 </r>
       <r>    7.0674    1.0000 </r>
       <r>    7.2373    1.0000 </r>
       <r>    7.7375    1.0000 </r>
       <r>    7.7740    1.0000 </r>
       <r>    7.8015    1.0000 </r>
       <r>    7.9165    0.0003 </r>
       <r>    8.0323    0.0000 </r>
       <r>    8.1236    0.0000 </r>
       <r>    8.1731    0.0000 </r>
       <r>    8.6552    0.0000 </r>
       <r>    9.0444    0.0000 </r>
       <r>    9.7148    0.0000 </r>
       <r>    9.7954    0.0000 </r>
       <r>    9.7982    0.0000 </r>
       <r>    9.9301    0.0000 </r>
       <r>   10.2551    0.0000 </r>
       <r>   10.4720    0.0000 </r>
       <r>   10.7172    0.0000 </r>
       <r>   11.1243    0.0000 </r>
       <r>   11.6474    0.0000 </r>
       <r>   11.8364    0.0000 </r>
      </set>
      <set comment="kpoint 3">
       <r>  -55.0192    1.0000 </r>
       <r>  -55.0183    1.0000 </r>
       <r>  -54.4458    1.0000 </r>
       <r>  -54.4338    1.0000 </r>
       <r>  -54.4262    1.0000 </r>
       <r>  -54.4140    1.0000 </r>
       <r>  -28.4552    1.0000 </r>
       <r>  -28.4539    1.0000 </r>
       <r>  -28.4438    1.0000 </r>
       <r>  -28.4416    1.0000 </r>
       <r>  -28.2554    1.0000 </r>
       <r>  -28.2461    1.0000 </r>
       <r>  -28.2340    1.0000 </r>
       <r>  -28.1360    1.0000 </r>
       <r>  -28.0745    1.0000 </r>
       <r>  -27.9638    1.0000 </r>
       <r>  -27.8392    1.0000 </r>
       <r>  -27.8378    1.0000 </r>
       <r>  -27.8346    1.0000 </r>
       <r>  -27.8279    1.0000 </r>
       <r>  -27.7428    1.0000 </r>
       <r>  -27.6825    1.0000 </r>
       <r>  -27.6369    1.0000 </r>
       <r>  -27.5889    1.0000 </r>
       <r>   -2.0763    1.0000 </r>
       <r>    0.1192    1.0000 </r>
       <r>    0.2753    1.0000 </r>
       <r>    0.7629    1.0000 </r>
       <r>    1.3756    1.0000 </r>
       <r>    1.7219    1.0000 </r>
       <r>    2.6249    1.0000 </r>
       <r>    3.4350    1.0000 </r>
       <r>    3.8488    1.0000 </r>
       <r>    4.2243    1.0000 </r>
       <r>    4.3208    1.0000 </r>
       <r>    4.5547    1.0000 </r>
       <r>    4.6546    1.0000 </r>
       <r>    4.6556    1.0000 </r>
       <r>    4.8359    1.0000 </r>
       <r>    5.0577    1.0000 </r>
       <r>    5.1453    1.0000 </r>
       <r>    5.5504    1.0000 </r>
       <r>    5.6504    1.0000 </r>
       <r>    6.2169    1.0000 </r>
       <r>    6.7104    1.0000 </r>
       <r>    6.8804    1.0000 </r>
       <r>    7.2857    1.0000 </r>
       <r>    7.2900    1.0000 </r>
       <r>    7.4201    1.0000 </r>
       <r>    7.6072    1.0000 </r>
       <r>    7.6819    1.0000 </r>
       <r>    7.7343    1.0000 </r>
       <r>    8.0114    0.0000 </r>
       <r>    8.0213    0.0000 </r>
       <r>    8.4675    0.0000 </r>
       <r>    8.6999    0.0000 </r>
       <r>    9.4489    0.0000 </r>
       <r>    9.4669    0.0000 </r>
       <r>    9.5174    0.0000 </r>
       <r>    9.6959    0.0000 </r>
       <r>   10.2159    0.0000 </r>
       <r>   10.4840    0.0000 </r>
       <r>   10.7555    0.0000 </r>
       <r>   11.0263    0.0000 </r>
       <r>   11.6531    0.0000 </r>
       <r>   11.9565    0.0000 </r>
      </set>
      <set comment="kpoint 4">
       <r>  -55.0188    1.0000 </r>
       <r>  -55.0184    1.0000 </r>
       <r>  -54.4421    1.0000 </r>
       <r>  -54.4378    1.0000 </r>
       <r>  -54.4223    1.0000 </r>
       <r>  -54.4180    1.0000 </r>
       <r>  -28.4472    1.0000 </r>
       <r>  -28.4443    1.0000 </r>
       <r>  -28.4431    1.0000 </r>
       <r>  -28.4396    1.0000 </r>
       <r>  -28.2381    1.0000 </r>
       <r>  -28.2343    1.0000 </r>
       <r>  -28.2001    1.0000 </r>
       <r>  -28.1660    1.0000 </r>
       <r>  -28.0381    1.0000 </r>
       <r>  -27.9982    1.0000 </r>
       <r>  -27.8504    1.0000 </r>
       <r>  -27.8484    1.0000 </r>
       <r>  -27.8395    1.0000 </r>
       <r>  -27.8353    1.0000 </r>
       <r>  -27.7325    1.0000 </r>
       <r>  -27.7115    1.0000 </r>
       <r>  -27.6252    1.0000 </r>
       <r>  -27.6082    1.0000 </r>
       <r>   -1.4962    1.0000 </r>
       <r>   -0.7442    1.0000 </r>
       <r>    0.5453    1.0000 </r>
       <r>    0.9151    1.0000 </r>
       <r>    1.0053    1.0000 </r>
       <r>    1.3296    1.0000 </r>
       <r>    3.1198    1.0000 </r>
       <r>    3.7340    1.0000 </r>
       <r>    4.0073    1.0000 </r>
       <r>    4.4984    1.0000 </r>
       <r>    4.6258    1.0000 </r>
       <r>    4.7207    1.0000 </r>
       <r>    4.9258    1.0000 </r>
       <r>    5.0256    1.0000 </r>
       <r>    5.1604    1.0000 </r>
       <r>    5.1867    1.0000 </r>
       <r>    5.1951    1.0000 </r>
       <r>    5.2164    1.0000 </r>
       <r>    5.3166    1.0000 </r>
       <r>    5.9491    1.0000 </r>
       <r>    6.2159    1.0000 </r>
       <r>    6.2841    1.0000 </r>
       <r>    7.0294    1.0000 </r>
       <r>    7.0381    1.0000 </r>
       <r>    7.4642    1.0000 </r>
       <r>    7.5723    1.0000 </r>
       <r>    7.7742    1.0000 </r>
       <r>    7.8099    1.0000 </r>
       <r>    7.8847    0.1128 </r>
       <r>    8.0344    0.0000 </r>
       <r>    8.1890    0.0000 </r>
       <r>    8.3510    0.0000 </r>
       <r>    9.1578    0.0000 </r>
       <r>    9.1690    0.0000 </r>
       <r>    9.2825    0.0000 </r>
       <r>    9.3982    0.0000 </r>
       <r>   10.2826    0.0000 </r>
       <r>   10.3875    0.0000 </r>
       <r>   11.3789    0.0000 </r>
       <r>   11.5564    0.0000 </r>
       <r>   11.7607    0.0000 </r>
       <r>   12.0263    0.0000 </r>
      </set>
      <set comment="kpoint 5">
       <r>  -55.0193    1.0000 </r>
       <r>  -55.0182    1.0000 </r>
       <r>  -54.4476    1.0000 </r>
       <r>  -54.4300    1.0000 </r>
       <r>  -54.4298    1.0000 </r>
       <r>  -54.4123    1.0000 </r>
       <r>  -28.4599    1.0000 </r>
       <r>  -28.4543    1.0000 </r>
       <r>  -28.4439    1.0000 </r>
       <r>  -28.4435    1.0000 </r>
       <r>  -28.2594    1.0000 </r>
       <r>  -28.2515    1.0000 </r>
       <r>  -28.2506    1.0000 </r>
       <r>  -28.1086    1.0000 </r>
       <r>  -28.1056    1.0000 </r>
       <r>  -27.9488    1.0000 </r>
       <r>  -27.8382    1.0000 </r>
       <r>  -27.8331    1.0000 </r>
       <r>  -27.8309    1.0000 </r>
       <r>  -27.8258    1.0000 </r>
       <r>  -27.7498    1.0000 </r>
       <r>  -27.6555    1.0000 </r>
       <r>  -27.6535    1.0000 </r>
       <r>  -27.5791    1.0000 </r>
       <r>   -2.2528    1.0000 </r>
       <r>    0.1452    1.0000 </r>
       <r>    0.5972    1.0000 </r>
       <r>    0.7583    1.0000 </r>
       <r>    1.4029    1.0000 </r>
       <r>    1.9544    1.0000 </r>
       <r>    2.5344    1.0000 </r>
       <r>    3.0640    1.0000 </r>
       <r>    3.6064    1.0000 </r>
       <r>    3.8403    1.0000 </r>
       <r>    4.4155    1.0000 </r>
       <r>    4.4537    1.0000 </r>
       <r>    4.4919    1.0000 </r>
       <r>    4.6554    1.0000 </r>
       <r>    4.8794    1.0000 </r>
       <r>    4.9488    1.0000 </r>
       <r>    5.3279    1.0000 </r>
       <r>    5.4967    1.0000 </r>
       <r>    6.0289    1.0000 </r>
       <r>    6.1456    1.0000 </r>
       <r>    6.8442    1.0000 </r>
       <r>    7.1885    1.0000 </r>
       <r>    7.2431    1.0000 </r>
       <r>    7.2529    1.0000 </r>
       <r>    7.6307    1.0000 </r>
       <r>    7.6499    1.0000 </r>
       <r>    7.7149    1.0000 </r>
       <r>    7.7311    1.0000 </r>
       <r>    8.0535    0.0000 </r>
       <r>    8.2140    0.0000 </r>
       <r>    8.3895    0.0000 </r>
       <r>    8.9179    0.0000 </r>
       <r>    9.4631    0.0000 </r>
       <r>    9.6197    0.0000 </r>
       <r>    9.7617    0.0000 </r>
       <r>    9.8842    0.0000 </r>
       <r>   10.1406    0.0000 </r>
       <r>   10.3705    0.0000 </r>
       <r>   10.6824    0.0000 </r>
       <r>   11.3727    0.0000 </r>
       <r>   11.4642    0.0000 </r>
       <r>   11.5556    0.0000 </r>
      </set>
      <set comment="kpoint 6">
       <r>  -55.0189    1.0000 </r>
       <r>  -55.0184    1.0000 </r>
       <r>  -54.4452    1.0000 </r>
       <r>  -54.4327    1.0000 </r>
       <r>  -54.4272    1.0000 </r>
       <r>  -54.4150    1.0000 </r>
       <r>  -28.4516    1.0000 </r>
       <r>  -28.4451    1.0000 </r>
       <r>  -28.4425    1.0000 </r>
       <r>  -28.4388    1.0000 </r>
       <r>  -28.2423    1.0000 </r>
       <r>  -28.2377    1.0000 </r>
       <r>  -28.2261    1.0000 </r>
       <r>  -28.1277    1.0000 </r>
       <r>  -28.0820    1.0000 </r>
       <r>  -27.9711    1.0000 </r>
       <r>  -27.8455    1.0000 </r>
       <r>  -27.8454    1.0000 </r>
       <r>  -27.8379    1.0000 </r>
       <r>  -27.8345    1.0000 </r>
       <r>  -27.7489    1.0000 </r>
       <r>  -27.6790    1.0000 </r>
       <r>  -27.6476    1.0000 </r>
       <r>  -27.5948    1.0000 </r>
       <r>   -1.8377    1.0000 </r>
       <r>   -0.1160    1.0000 </r>
       <r>    0.2727    1.0000 </r>
       <r>    0.9146    1.0000 </r>
       <r>    0.9979    1.0000 </r>
       <r>    1.6555    1.0000 </r>
       <r>    2.9142    1.0000 </r>
       <r>    3.4017    1.0000 </r>
       <r>    3.9494    1.0000 </r>
       <r>    4.1655    1.0000 </r>
       <r>    4.4669    1.0000 </r>
       <r>    4.8366    1.0000 </r>
       <r>    4.8782    1.0000 </r>
       <r>    4.9411    1.0000 </r>
       <r>    4.9777    1.0000 </r>
       <r>    5.0365    1.0000 </r>
       <r>    5.1554    1.0000 </r>
       <r>    5.3938    1.0000 </r>
       <r>    5.6619    1.0000 </r>
       <r>    6.1737    1.0000 </r>
       <r>    6.3801    1.0000 </r>
       <r>    6.5083    1.0000 </r>
       <r>    7.1330    1.0000 </r>
       <r>    7.1794    1.0000 </r>
       <r>    7.3390    1.0000 </r>
       <r>    7.4437    1.0000 </r>
       <r>    7.5950    1.0000 </r>
       <r>    7.6413    1.0000 </r>
       <r>    8.0481    0.0000 </r>
       <r>    8.1882    0.0000 </r>
       <r>    8.2253    0.0000 </r>
       <r>    8.6332    0.0000 </r>
       <r>    9.1524    0.0000 </r>
       <r>    9.2893    0.0000 </r>
       <r>    9.7041    0.0000 </r>
       <r>    9.7436    0.0000 </r>
       <r>   10.1404    0.0000 </r>
       <r>   10.4240    0.0000 </r>
       <r>   10.9787    0.0000 </r>
       <r>   11.2670    0.0000 </r>
       <r>   11.4910    0.0000 </r>
       <r>   11.7581    0.0000 </r>
      </set>
      <set comment="kpoint 7">
       <r>  -55.0186    1.0000 </r>
       <r>  -55.0186    1.0000 </r>
       <r>  -54.4414    1.0000 </r>
       <r>  -54.4367    1.0000 </r>
       <r>  -54.4233    1.0000 </r>
       <r>  -54.4190    1.0000 </r>
       <r>  -28.4466    1.0000 </r>
       <r>  -28.4438    1.0000 </r>
       <r>  -28.4396    1.0000 </r>
       <r>  -28.4372    1.0000 </r>
       <r>  -28.2329    1.0000 </r>
       <r>  -28.2320    1.0000 </r>
       <r>  -28.1922    1.0000 </r>
       <r>  -28.1569    1.0000 </r>
       <r>  -28.0453    1.0000 </r>
       <r>  -28.0051    1.0000 </r>
       <r>  -27.8538    1.0000 </r>
       <r>  -27.8493    1.0000 </r>
       <r>  -27.8416    1.0000 </r>
       <r>  -27.8357    1.0000 </r>
       <r>  -27.7370    1.0000 </r>
       <r>  -27.7049    1.0000 </r>
       <r>  -27.6346    1.0000 </r>
       <r>  -27.6140    1.0000 </r>
       <r>   -1.2328    1.0000 </r>
       <r>   -0.8991    1.0000 </r>
       <r>    0.5034    1.0000 </r>
       <r>    0.5992    1.0000 </r>
       <r>    1.2873    1.0000 </r>
       <r>    1.3018    1.0000 </r>
       <r>    3.3964    1.0000 </r>
       <r>    3.6099    1.0000 </r>
       <r>    3.8855    1.0000 </r>
       <r>    4.3799    1.0000 </r>
       <r>    4.5848    1.0000 </r>
       <r>    4.7566    1.0000 </r>
       <r>    4.7849    1.0000 </r>
       <r>    4.8670    1.0000 </r>
       <r>    5.3313    1.0000 </r>
       <r>    5.3917    1.0000 </r>
       <r>    5.4256    1.0000 </r>
       <r>    5.4367    1.0000 </r>
       <r>    5.6028    1.0000 </r>
       <r>    5.6245    1.0000 </r>
       <r>    6.1522    1.0000 </r>
       <r>    6.1779    1.0000 </r>
       <r>    6.8016    1.0000 </r>
       <r>    6.9516    1.0000 </r>
       <r>    7.1582    1.0000 </r>
       <r>    7.4718    1.0000 </r>
       <r>    7.7558    1.0000 </r>
       <r>    7.8737    0.3342 </r>
       <r>    7.9121    0.0008 </r>
       <r>    8.0749    0.0000 </r>
       <r>    8.2220    0.0000 </r>
       <r>    8.3793    0.0000 </r>
       <r>    8.9358    0.0000 </r>
       <r>    9.0854    0.0000 </r>
       <r>    9.5951    0.0000 </r>
       <r>    9.6440    0.0000 </r>
       <r>   10.2807    0.0000 </r>
       <r>   10.4322    0.0000 </r>
       <r>   11.4093    0.0000 </r>
       <r>   11.5123    0.0000 </r>
       <r>   11.7512    0.0000 </r>
       <r>   11.7819    0.0000 </r>
      </set>
      <set comment="kpoint 8">
       <r>  -55.0190    1.0000 </r>
       <r>  -55.0183    1.0000 </r>
       <r>  -54.4409    1.0000 </r>
       <r>  -54.4370    1.0000 </r>
       <r>  -54.4233    1.0000 </r>
       <r>  -54.4189    1.0000 </r>
       <r>  -28.4550    1.0000 </r>
       <r>  -28.4417    1.0000 </r>
       <r>  -28.4416    1.0000 </r>
       <r>  -28.4387    1.0000 </r>
       <r>  -28.2426    1.0000 </r>
       <r>  -28.2366    1.0000 </r>
       <r>  -28.1914    1.0000 </r>
       <r>  -28.1568    1.0000 </r>
       <r>  -28.0443    1.0000 </r>
       <r>  -28.0053    1.0000 </r>
       <r>  -27.8499    1.0000 </r>
       <r>  -27.8462    1.0000 </r>
       <r>  -27.8377    1.0000 </r>
       <r>  -27.8289    1.0000 </r>
       <r>  -27.7239    1.0000 </r>
       <r>  -27.7124    1.0000 </r>
       <r>  -27.6313    1.0000 </r>
       <r>  -27.6161    1.0000 </r>
       <r>   -1.5844    1.0000 </r>
       <r>   -0.5002    1.0000 </r>
       <r>    0.3794    1.0000 </r>
       <r>    0.8439    1.0000 </r>
       <r>    0.9600    1.0000 </r>
       <r>    1.6242    1.0000 </r>
       <r>    3.1397    1.0000 </r>
       <r>    3.7852    1.0000 </r>
       <r>    3.9333    1.0000 </r>
       <r>    4.1180    1.0000 </r>
       <r>    4.4649    1.0000 </r>
       <r>    4.6523    1.0000 </r>
       <r>    4.8126    1.0000 </r>
       <r>    4.8727    1.0000 </r>
       <r>    4.9919    1.0000 </r>
       <r>    5.1427    1.0000 </r>
       <r>    5.3459    1.0000 </r>
       <r>    5.4146    1.0000 </r>
       <r>    5.5819    1.0000 </r>
       <r>    6.1526    1.0000 </r>
       <r>    6.3664    1.0000 </r>
       <r>    6.4146    1.0000 </r>
       <r>    6.8004    1.0000 </r>
       <r>    7.0849    1.0000 </r>
       <r>    7.1234    1.0000 </r>
       <r>    7.5886    1.0000 </r>
       <r>    7.5987    1.0000 </r>
       <r>    7.7969    1.0000 </r>
       <r>    7.8857    0.1008 </r>
       <r>    8.2242    0.0000 </r>
       <r>    8.2896    0.0000 </r>
       <r>    8.5011    0.0000 </r>
       <r>    9.0424    0.0000 </r>
       <r>    9.1573    0.0000 </r>
       <r>    9.7057    0.0000 </r>
       <r>    9.7510    0.0000 </r>
       <r>   10.3188    0.0000 </r>
       <r>   10.4195    0.0000 </r>
       <r>   10.8661    0.0000 </r>
       <r>   11.3646    0.0000 </r>
       <r>   11.4504    0.0000 </r>
       <r>   11.7831    0.0000 </r>
      </set>
      <set comment="kpoint 9">
       <r>  -55.0194    1.0000 </r>
       <r>  -55.0182    1.0000 </r>
       <r>  -54.4447    1.0000 </r>
       <r>  -54.4329    1.0000 </r>
       <r>  -54.4272    1.0000 </r>
       <r>  -54.4150    1.0000 </r>
       <r>  -28.4636    1.0000 </r>
       <r>  -28.4506    1.0000 </r>
       <r>  -28.4451    1.0000 </r>
       <r>  -28.4412    1.0000 </r>
       <r>  -28.2591    1.0000 </r>
       <r>  -28.2498    1.0000 </r>
       <r>  -28.2261    1.0000 </r>
       <r>  -28.1262    1.0000 </r>
       <r>  -28.0804    1.0000 </r>
       <r>  -27.9710    1.0000 </r>
       <r>  -27.8427    1.0000 </r>
       <r>  -27.8371    1.0000 </r>
       <r>  -27.8262    1.0000 </r>
       <r>  -27.8214    1.0000 </r>
       <r>  -27.7342    1.0000 </r>
       <r>  -27.6801    1.0000 </r>
       <r>  -27.6441    1.0000 </r>
       <r>  -27.5956    1.0000 </r>
       <r>   -2.0950    1.0000 </r>
       <r>    0.2339    1.0000 </r>
       <r>    0.2569    1.0000 </r>
       <r>    0.7161    1.0000 </r>
       <r>    1.3065    1.0000 </r>
       <r>    1.8491    1.0000 </r>
       <r>    2.9179    1.0000 </r>
       <r>    3.1542    1.0000 </r>
       <r>    3.7462    1.0000 </r>
       <r>    4.0903    1.0000 </r>
       <r>    4.3435    1.0000 </r>
       <r>    4.3757    1.0000 </r>
       <r>    4.4921    1.0000 </r>
       <r>    4.8001    1.0000 </r>
       <r>    4.8713    1.0000 </r>
       <r>    4.9517    1.0000 </r>
       <r>    5.0955    1.0000 </r>
       <r>    5.5312    1.0000 </r>
       <r>    5.9798    1.0000 </r>
       <r>    6.3127    1.0000 </r>
       <r>    6.7269    1.0000 </r>
       <r>    6.7763    1.0000 </r>
       <r>    7.1745    1.0000 </r>
       <r>    7.2949    1.0000 </r>
       <r>    7.3470    1.0000 </r>
       <r>    7.4992    1.0000 </r>
       <r>    7.5846    1.0000 </r>
       <r>    7.8242    0.9989 </r>
       <r>    8.0552    0.0000 </r>
       <r>    8.2765    0.0000 </r>
       <r>    8.5664    0.0000 </r>
       <r>    8.7714    0.0000 </r>
       <r>    9.3702    0.0000 </r>
       <r>    9.4299    0.0000 </r>
       <r>    9.8396    0.0000 </r>
       <r>    9.8996    0.0000 </r>
       <r>   10.2695    0.0000 </r>
       <r>   10.4894    0.0000 </r>
       <r>   10.6526    0.0000 </r>
       <r>   11.1225    0.0000 </r>
       <r>   11.2377    0.0000 </r>
       <r>   11.8978    0.0000 </r>
      </set>
      <set comment="kpoint 10">
       <r>  -55.0196    1.0000 </r>
       <r>  -55.0182    1.0000 </r>
       <r>  -54.4473    1.0000 </r>
       <r>  -54.4300    1.0000 </r>
       <r>  -54.4299    1.0000 </r>
       <r>  -54.4123    1.0000 </r>
       <r>  -28.4671    1.0000 </r>
       <r>  -28.4595    1.0000 </r>
       <r>  -28.4480    1.0000 </r>
       <r>  -28.4453    1.0000 </r>
       <r>  -28.2713    1.0000 </r>
       <r>  -28.2596    1.0000 </r>
       <r>  -28.2513    1.0000 </r>
       <r>  -28.1074    1.0000 </r>
       <r>  -28.1043    1.0000 </r>
       <r>  -27.9488    1.0000 </r>
       <r>  -27.8386    1.0000 </r>
       <r>  -27.8261    1.0000 </r>
       <r>  -27.8197    1.0000 </r>
       <r>  -27.8181    1.0000 </r>
       <r>  -27.7392    1.0000 </r>
       <r>  -27.6548    1.0000 </r>
       <r>  -27.6504    1.0000 </r>
       <r>  -27.5792    1.0000 </r>
       <r>   -2.3881    1.0000 </r>
       <r>    0.1467    1.0000 </r>
       <r>    0.5931    1.0000 </r>
       <r>    0.8590    1.0000 </r>
       <r>    1.8357    1.0000 </r>
       <r>    1.8910    1.0000 </r>
       <r>    2.7730    1.0000 </r>
       <r>    2.8917    1.0000 </r>
       <r>    3.3597    1.0000 </r>
       <r>    3.5786    1.0000 </r>
       <r>    4.1205    1.0000 </r>
       <r>    4.1646    1.0000 </r>
       <r>    4.3784    1.0000 </r>
       <r>    4.4276    1.0000 </r>
       <r>    4.8754    1.0000 </r>
       <r>    5.1578    1.0000 </r>
       <r>    5.4463    1.0000 </r>
       <r>    5.4866    1.0000 </r>
       <r>    6.0636    1.0000 </r>
       <r>    6.2672    1.0000 </r>
       <r>    6.8626    1.0000 </r>
       <r>    7.1008    1.0000 </r>
       <r>    7.3156    1.0000 </r>
       <r>    7.4537    1.0000 </r>
       <r>    7.5981    1.0000 </r>
       <r>    7.7636    1.0000 </r>
       <r>    7.8874    0.0811 </r>
       <r>    7.8907    0.0512 </r>
       <r>    8.1768    0.0000 </r>
       <r>    8.2394    0.0000 </r>
       <r>    8.6571    0.0000 </r>
       <r>    9.3092    0.0000 </r>
       <r>    9.6041    0.0000 </r>
       <r>    9.6958    0.0000 </r>
       <r>    9.7093    0.0000 </r>
       <r>    9.8893    0.0000 </r>
       <r>   10.2921    0.0000 </r>
       <r>   10.7559    0.0000 </r>
       <r>   10.7718    0.0000 </r>
       <r>   11.0126    0.0000 </r>
       <r>   11.2783    0.0000 </r>
       <r>   12.1591    0.0000 </r>
      </set>
      <set comment="kpoint 11">
       <r>  -55.0186    1.0000 </r>
       <r>  -55.0185    1.0000 </r>
       <r>  -54.4427    1.0000 </r>
       <r>  -54.4303    1.0000 </r>
       <r>  -54.4296    1.0000 </r>
       <r>  -54.4178    1.0000 </r>
       <r>  -28.4468    1.0000 </r>
       <r>  -28.4438    1.0000 </r>
       <r>  -28.4395    1.0000 </r>
       <r>  -28.4331    1.0000 </r>
       <r>  -28.2314    1.0000 </r>
       <r>  -28.2311    1.0000 </r>
       <r>  -28.2023    1.0000 </r>
       <r>  -28.1066    1.0000 </r>
       <r>  -28.0974    1.0000 </r>
       <r>  -27.9926    1.0000 </r>
       <r>  -27.8543    1.0000 </r>
       <r>  -27.8471    1.0000 </r>
       <r>  -27.8440    1.0000 </r>
       <r>  -27.8358    1.0000 </r>
       <r>  -27.7470    1.0000 </r>
       <r>  -27.6735    1.0000 </r>
       <r>  -27.6660    1.0000 </r>
       <r>  -27.6111    1.0000 </r>
       <r>   -1.4089    1.0000 </r>
       <r>   -0.4230    1.0000 </r>
       <r>    0.3113    1.0000 </r>
       <r>    0.3429    1.0000 </r>
       <r>    1.2801    1.0000 </r>
       <r>    1.6329    1.0000 </r>
       <r>    3.3892    1.0000 </r>
       <r>    3.4199    1.0000 </r>
       <r>    3.9226    1.0000 </r>
       <r>    4.0935    1.0000 </r>
       <r>    4.4408    1.0000 </r>
       <r>    4.7131    1.0000 </r>
       <r>    4.7236    1.0000 </r>
       <r>    5.0263    1.0000 </r>
       <r>    5.4852    1.0000 </r>
       <r>    5.4956    1.0000 </r>
       <r>    5.5140    1.0000 </r>
       <r>    5.5306    1.0000 </r>
       <r>    5.5688    1.0000 </r>
       <r>    5.7976    1.0000 </r>
       <r>    6.0822    1.0000 </r>
       <r>    6.1756    1.0000 </r>
       <r>    6.7634    1.0000 </r>
       <r>    6.8601    1.0000 </r>
       <r>    6.9373    1.0000 </r>
       <r>    7.3974    1.0000 </r>
       <r>    7.6725    1.0000 </r>
       <r>    7.7184    1.0000 </r>
       <r>    7.9699    0.0000 </r>
       <r>    8.2109    0.0000 </r>
       <r>    8.2523    0.0000 </r>
       <r>    8.4655    0.0000 </r>
       <r>    8.9733    0.0000 </r>
       <r>    9.0988    0.0000 </r>
       <r>    9.9845    0.0000 </r>
       <r>   10.0337    0.0000 </r>
       <r>   10.0421    0.0000 </r>
       <r>   10.7096    0.0000 </r>
       <r>   11.2479    0.0000 </r>
       <r>   11.3113    0.0000 </r>
       <r>   11.3844    0.0000 </r>
       <r>   11.8453    0.0000 </r>
      </set>
      <set comment="kpoint 12">
       <r>  -55.0188    1.0000 </r>
       <r>  -55.0183    1.0000 </r>
       <r>  -54.4388    1.0000 </r>
       <r>  -54.4339    1.0000 </r>
       <r>  -54.4259    1.0000 </r>
       <r>  -54.4217    1.0000 </r>
       <r>  -28.4553    1.0000 </r>
       <r>  -28.4394    1.0000 </r>
       <r>  -28.4364    1.0000 </r>
       <r>  -28.4304    1.0000 </r>
       <r>  -28.2327    1.0000 </r>
       <r>  -28.2298    1.0000 </r>
       <r>  -28.1677    1.0000 </r>
       <r>  -28.1321    1.0000 </r>
       <r>  -28.0647    1.0000 </r>
       <r>  -28.0254    1.0000 </r>
       <r>  -27.8585    1.0000 </r>
       <r>  -27.8523    1.0000 </r>
       <r>  -27.8388    1.0000 </r>
       <r>  -27.8291    1.0000 </r>
       <r>  -27.7324    1.0000 </r>
       <r>  -27.6952    1.0000 </r>
       <r>  -27.6529    1.0000 </r>
       <r>  -27.6321    1.0000 </r>
       <r>   -0.9394    1.0000 </r>
       <r>   -0.8567    1.0000 </r>
       <r>    0.0545    1.0000 </r>
       <r>    0.5301    1.0000 </r>
       <r>    1.4377    1.0000 </r>
       <r>    1.5231    1.0000 </r>
       <r>    3.5199    1.0000 </r>
       <r>    3.6433    1.0000 </r>
       <r>    3.9905    1.0000 </r>
       <r>    4.0344    1.0000 </r>
       <r>    4.3209    1.0000 </r>
       <r>    4.5422    1.0000 </r>
       <r>    4.6865    1.0000 </r>
       <r>    4.7629    1.0000 </r>
       <r>    5.0925    1.0000 </r>
       <r>    5.5090    1.0000 </r>
       <r>    5.5738    1.0000 </r>
       <r>    5.8278    1.0000 </r>
       <r>    5.8549    1.0000 </r>
       <r>    6.0873    1.0000 </r>
       <r>    6.1171    1.0000 </r>
       <r>    6.2705    1.0000 </r>
       <r>    6.3896    1.0000 </r>
       <r>    6.5416    1.0000 </r>
       <r>    6.8631    1.0000 </r>
       <r>    7.4506    1.0000 </r>
       <r>    7.7100    1.0000 </r>
       <r>    7.7520    1.0000 </r>
       <r>    7.9394    0.0000 </r>
       <r>    7.9413    0.0000 </r>
       <r>    8.3820    0.0000 </r>
       <r>    8.5727    0.0000 </r>
       <r>    8.8309    0.0000 </r>
       <r>    9.0957    0.0000 </r>
       <r>   10.0080    0.0000 </r>
       <r>   10.1698    0.0000 </r>
       <r>   10.2656    0.0000 </r>
       <r>   10.6822    0.0000 </r>
       <r>   10.7519    0.0000 </r>
       <r>   11.4247    0.0000 </r>
       <r>   11.6849    0.0000 </r>
       <r>   12.1383    0.0000 </r>
      </set>
      <set comment="kpoint 13">
       <r>  -55.0191    1.0000 </r>
       <r>  -55.0182    1.0000 </r>
       <r>  -54.4381    1.0000 </r>
       <r>  -54.4343    1.0000 </r>
       <r>  -54.4262    1.0000 </r>
       <r>  -54.4216    1.0000 </r>
       <r>  -28.4639    1.0000 </r>
       <r>  -28.4427    1.0000 </r>
       <r>  -28.4340    1.0000 </r>
       <r>  -28.4337    1.0000 </r>
       <r>  -28.2418    1.0000 </r>
       <r>  -28.2368    1.0000 </r>
       <r>  -28.1676    1.0000 </r>
       <r>  -28.1316    1.0000 </r>
       <r>  -28.0637    1.0000 </r>
       <r>  -28.0256    1.0000 </r>
       <r>  -27.8545    1.0000 </r>
       <r>  -27.8538    1.0000 </r>
       <r>  -27.8285    1.0000 </r>
       <r>  -27.8215    1.0000 </r>
       <r>  -27.7136    1.0000 </r>
       <r>  -27.7047    1.0000 </r>
       <r>  -27.6519    1.0000 </r>
       <r>  -27.6330    1.0000 </r>
       <r>   -1.4852    1.0000 </r>
       <r>   -0.3025    1.0000 </r>
       <r>    0.0342    1.0000 </r>
       <r>    0.8655    1.0000 </r>
       <r>    1.1616    1.0000 </r>
       <r>    1.6319    1.0000 </r>
       <r>    3.5037    1.0000 </r>
       <r>    3.5207    1.0000 </r>
       <r>    3.7993    1.0000 </r>
       <r>    3.8451    1.0000 </r>
       <r>    4.3371    1.0000 </r>
       <r>    4.5389    1.0000 </r>
       <r>    4.5965    1.0000 </r>
       <r>    4.7439    1.0000 </r>
       <r>    5.1420    1.0000 </r>
       <r>    5.3228    1.0000 </r>
       <r>    5.3529    1.0000 </r>
       <r>    5.6716    1.0000 </r>
       <r>    5.7714    1.0000 </r>
       <r>    6.2457    1.0000 </r>
       <r>    6.3775    1.0000 </r>
       <r>    6.4399    1.0000 </r>
       <r>    6.5921    1.0000 </r>
       <r>    6.6615    1.0000 </r>
       <r>    7.1167    1.0000 </r>
       <r>    7.5061    1.0000 </r>
       <r>    7.6275    1.0000 </r>
       <r>    7.7055    1.0000 </r>
       <r>    7.8254    0.9986 </r>
       <r>    8.3761    0.0000 </r>
       <r>    8.5055    0.0000 </r>
       <r>    8.5831    0.0000 </r>
       <r>    8.9064    0.0000 </r>
       <r>    9.2400    0.0000 </r>
       <r>    9.9347    0.0000 </r>
       <r>   10.1197    0.0000 </r>
       <r>   10.1367    0.0000 </r>
       <r>   10.5677    0.0000 </r>
       <r>   10.7731    0.0000 </r>
       <r>   11.1827    0.0000 </r>
       <r>   11.4969    0.0000 </r>
       <r>   12.1829    0.0000 </r>
      </set>
      <set comment="kpoint 14">
       <r>  -55.0193    1.0000 </r>
       <r>  -55.0182    1.0000 </r>
       <r>  -54.4419    1.0000 </r>
       <r>  -54.4304    1.0000 </r>
       <r>  -54.4299    1.0000 </r>
       <r>  -54.4177    1.0000 </r>
       <r>  -28.4674    1.0000 </r>
       <r>  -28.4455    1.0000 </r>
       <r>  -28.4420    1.0000 </r>
       <r>  -28.4367    1.0000 </r>
       <r>  -28.2529    1.0000 </r>
       <r>  -28.2458    1.0000 </r>
       <r>  -28.2022    1.0000 </r>
       <r>  -28.1052    1.0000 </r>
       <r>  -28.0955    1.0000 </r>
       <r>  -27.9924    1.0000 </r>
       <r>  -27.8490    1.0000 </r>
       <r>  -27.8449    1.0000 </r>
       <r>  -27.8236    1.0000 </r>
       <r>  -27.8182    1.0000 </r>
       <r>  -27.7254    1.0000 </r>
       <r>  -27.6768    1.0000 </r>
       <r>  -27.6625    1.0000 </r>
       <r>  -27.6121    1.0000 </r>
       <r>   -1.8907    1.0000 </r>
       <r>    0.1061    1.0000 </r>
       <r>    0.1175    1.0000 </r>
       <r>    0.8921    1.0000 </r>
       <r>    1.2591    1.0000 </r>
       <r>    1.6179    1.0000 </r>
       <r>    3.0990    1.0000 </r>
       <r>    3.6017    1.0000 </r>
       <r>    3.7208    1.0000 </r>
       <r>    3.7531    1.0000 </r>
       <r>    4.1659    1.0000 </r>
       <r>    4.3240    1.0000 </r>
       <r>    4.7582    1.0000 </r>
       <r>    4.8460    1.0000 </r>
       <r>    4.9087    1.0000 </r>
       <r>    5.0330    1.0000 </r>
       <r>    5.2953    1.0000 </r>
       <r>    5.6467    1.0000 </r>
       <r>    6.0385    1.0000 </r>
       <r>    6.1761    1.0000 </r>
       <r>    6.5537    1.0000 </r>
       <r>    6.5831    1.0000 </r>
       <r>    6.7931    1.0000 </r>
       <r>    7.0776    1.0000 </r>
       <r>    7.3461    1.0000 </r>
       <r>    7.4510    1.0000 </r>
       <r>    7.5397    1.0000 </r>
       <r>    7.7827    1.0000 </r>
       <r>    7.9805    0.0000 </r>
       <r>    8.3765    0.0000 </r>
       <r>    8.4840    0.0000 </r>
       <r>    9.1571    0.0000 </r>
       <r>    9.2810    0.0000 </r>
       <r>    9.3219    0.0000 </r>
       <r>    9.4724    0.0000 </r>
       <r>    9.9791    0.0000 </r>
       <r>   10.3099    0.0000 </r>
       <r>   10.3998    0.0000 </r>
       <r>   11.0074    0.0000 </r>
       <r>   11.0336    0.0000 </r>
       <r>   11.2995    0.0000 </r>
       <r>   11.6649    0.0000 </r>
      </set>
      <set comment="kpoint 15">
       <r>  -55.0190    1.0000 </r>
       <r>  -55.0182    1.0000 </r>
       <r>  -54.4348    1.0000 </r>
       <r>  -54.4305    1.0000 </r>
       <r>  -54.4292    1.0000 </r>
       <r>  -54.4258    1.0000 </r>
       <r>  -28.4640    1.0000 </r>
       <r>  -28.4416    1.0000 </r>
       <r>  -28.4307    1.0000 </r>
       <r>  -28.4257    1.0000 </r>
       <r>  -28.2340    1.0000 </r>
       <r>  -28.2309    1.0000 </r>
       <r>  -28.1329    1.0000 </r>
       <r>  -28.1037    1.0000 </r>
       <r>  -28.0878    1.0000 </r>
       <r>  -28.0568    1.0000 </r>
       <r>  -27.8623    1.0000 </r>
       <r>  -27.8594    1.0000 </r>
       <r>  -27.8291    1.0000 </r>
       <r>  -27.8215    1.0000 </r>
       <r>  -27.7153    1.0000 </r>
       <r>  -27.6912    1.0000 </r>
       <r>  -27.6633    1.0000 </r>
       <r>  -27.6562    1.0000 </r>
       <r>   -0.9807    1.0000 </r>
       <r>   -0.5008    1.0000 </r>
       <r>   -0.3195    1.0000 </r>
       <r>    0.7081    1.0000 </r>
       <r>    1.4869    1.0000 </r>
       <r>    1.5630    1.0000 </r>
       <r>    3.4702    1.0000 </r>
       <r>    3.6927    1.0000 </r>
       <r>    3.7333    1.0000 </r>
       <r>    3.8821    1.0000 </r>
       <r>    4.4449    1.0000 </r>
       <r>    4.6502    1.0000 </r>
       <r>    4.6634    1.0000 </r>
       <r>    4.7012    1.0000 </r>
       <r>    4.7333    1.0000 </r>
       <r>    5.4412    1.0000 </r>
       <r>    5.7143    1.0000 </r>
       <r>    5.7188    1.0000 </r>
       <r>    5.9127    1.0000 </r>
       <r>    6.0050    1.0000 </r>
       <r>    6.1776    1.0000 </r>
       <r>    6.3663    1.0000 </r>
       <r>    6.4121    1.0000 </r>
       <r>    6.7448    1.0000 </r>
       <r>    6.8999    1.0000 </r>
       <r>    7.4814    1.0000 </r>
       <r>    7.5220    1.0000 </r>
       <r>    7.6721    1.0000 </r>
       <r>    7.7204    1.0000 </r>
       <r>    8.2450    0.0000 </r>
       <r>    8.4182    0.0000 </r>
       <r>    8.7073    0.0000 </r>
       <r>    8.7406    0.0000 </r>
       <r>    9.2066    0.0000 </r>
       <r>    9.8638    0.0000 </r>
       <r>    9.9853    0.0000 </r>
       <r>   10.5246    0.0000 </r>
       <r>   10.8775    0.0000 </r>
       <r>   11.0637    0.0000 </r>
       <r>   11.3289    0.0000 </r>
       <r>   11.7554    0.0000 </r>
       <r>   12.2671    0.0000 </r>
      </set>
      <set comment="kpoint 16">
       <r>  -55.0191    1.0000 </r>
       <r>  -55.0182    1.0000 </r>
       <r>  -54.4342    1.0000 </r>
       <r>  -54.4306    1.0000 </r>
       <r>  -54.4300    1.0000 </r>
       <r>  -54.4254    1.0000 </r>
       <r>  -28.4676    1.0000 </r>
       <r>  -28.4435    1.0000 </r>
       <r>  -28.4297    1.0000 </r>
       <r>  -28.4270    1.0000 </r>
       <r>  -28.2376    1.0000 </r>
       <r>  -28.2340    1.0000 </r>
       <r>  -28.1335    1.0000 </r>
       <r>  -28.1025    1.0000 </r>
       <r>  -28.0880    1.0000 </r>
       <r>  -28.0569    1.0000 </r>
       <r>  -27.8608    1.0000 </r>
       <r>  -27.8600    1.0000 </r>
       <r>  -27.8249    1.0000 </r>
       <r>  -27.8183    1.0000 </r>
       <r>  -27.7019    1.0000 </r>
       <r>  -27.6953    1.0000 </r>
       <r>  -27.6725    1.0000 </r>
       <r>  -27.6516    1.0000 </r>
       <r>   -1.2326    1.0000 </r>
       <r>   -0.3009    1.0000 </r>
       <r>   -0.2601    1.0000 </r>
       <r>    0.9236    1.0000 </r>
[...]
       <r>    5.9840    1.0000 </r>
       <r>    6.3052    1.0000 </r>
       <r>    6.4148    1.0000 </r>
       <r>    6.5441    1.0000 </r>
       <r>    6.5753    1.0000 </r>
       <r>    6.6860    1.0000 </r>
       <r>    7.2228    1.0000 </r>
       <r>    7.3033    1.0000 </r>
       <r>    7.4889    1.0000 </r>
       <r>    7.4931    1.0000 </r>
       <r>    7.8721    0.3758 </r>
       <r>    7.9378    0.0000 </r>
       <r>    8.1619    0.0000 </r>
       <r>    8.6652    0.0000 </r>
       <r>    9.1907    0.0000 </r>
       <r>    9.2993    0.0000 </r>
       <r>    9.5453    0.0000 </r>
       <r>    9.7638    0.0000 </r>
       <r>   10.7676    0.0000 </r>
       <r>   10.7892    0.0000 </r>
       <r>   10.9563    0.0000 </r>
       <r>   11.3305    0.0000 </r>
       <r>   11.6228    0.0000 </r>
       <r>   12.0938    0.0000 </r>
      </set>
      <set comment="kpoint 116">
       <r>  -55.0184    1.0000 </r>
       <r>  -55.0181    1.0000 </r>
       <r>  -54.4505    1.0000 </r>
       <r>  -54.4298    1.0000 </r>
       <r>  -54.4297    1.0000 </r>
       <r>  -54.4109    1.0000 </r>
       <r>  -28.4276    1.0000 </r>
       <r>  -28.4269    1.0000 </r>
       <r>  -28.4261    1.0000 </r>
       <r>  -28.4252    1.0000 </r>
       <r>  -28.2656    1.0000 </r>
       <r>  -28.2048    1.0000 </r>
       <r>  -28.1993    1.0000 </r>
       <r>  -28.1157    1.0000 </r>
       <r>  -28.1155    1.0000 </r>
       <r>  -27.9378    1.0000 </r>
       <r>  -27.8879    1.0000 </r>
       <r>  -27.8615    1.0000 </r>
       <r>  -27.8595    1.0000 </r>
       <r>  -27.8366    1.0000 </r>
       <r>  -27.8223    1.0000 </r>
       <r>  -27.6626    1.0000 </r>
       <r>  -27.6612    1.0000 </r>
       <r>  -27.5702    1.0000 </r>
       <r>   -1.5939    1.0000 </r>
       <r>   -0.1377    1.0000 </r>
       <r>    0.3310    1.0000 </r>
       <r>    0.6069    1.0000 </r>
       <r>    1.0367    1.0000 </r>
       <r>    1.8681    1.0000 </r>
       <r>    3.2513    1.0000 </r>
       <r>    3.2974    1.0000 </r>
       <r>    3.8994    1.0000 </r>
       <r>    4.1147    1.0000 </r>
       <r>    4.4849    1.0000 </r>
       <r>    4.5529    1.0000 </r>
       <r>    4.6290    1.0000 </r>
       <r>    4.6856    1.0000 </r>
       <r>    4.9268    1.0000 </r>
       <r>    5.2776    1.0000 </r>
       <r>    5.5295    1.0000 </r>
       <r>    6.0769    1.0000 </r>
       <r>    6.0769    1.0000 </r>
       <r>    6.1152    1.0000 </r>
       <r>    6.3709    1.0000 </r>
       <r>    6.5752    1.0000 </r>
       <r>    6.5961    1.0000 </r>
       <r>    6.6168    1.0000 </r>
       <r>    7.1624    1.0000 </r>
       <r>    7.2521    1.0000 </r>
       <r>    7.4713    1.0000 </r>
       <r>    7.4776    1.0000 </r>
       <r>    7.8475    0.9223 </r>
       <r>    7.9251    0.0000 </r>
       <r>    8.0924    0.0000 </r>
       <r>    8.7239    0.0000 </r>
       <r>    9.1351    0.0000 </r>
       <r>    9.2946    0.0000 </r>
       <r>    9.5552    0.0000 </r>
       <r>    9.6829    0.0000 </r>
       <r>   10.9797    0.0000 </r>
       <r>   11.0812    0.0000 </r>
       <r>   11.3206    0.0000 </r>
       <r>   11.4703    0.0000 </r>
       <r>   11.7051    0.0000 </r>
       <r>   11.9729    0.0000 </r>
      </set>
     </set>
    </set>
   </array>
  </eigenvalues>
  <separator name="orbital magnetization" >
   <v name="MAGDIPOLOUT">      0.00000000      0.00000000      0.00000000</v>
  </separator>
  <dos>
   <i name="efermi">      7.86760073 </i>
   <total>
    <array>
     <dimension dim="1">gridpoints</dimension>
     <dimension dim="2">spin</dimension>
     <field>energy</field>
     <field>total</field>
     <field>integrated</field>
     <set>
      <set comment="spin 1">
       <r>   -58.3979     0.0000     0.0000 </r>
       <r>   -58.1501     0.0000     0.0000 </r>
       <r>   -57.9024     0.0000     0.0000 </r>
       <r>   -57.6547     0.0000     0.0000 </r>
       <r>   -57.4069     0.0000     0.0000 </r>
       <r>   -57.1592     0.0000     0.0000 </r>
       <r>   -56.9115     0.0000     0.0000 </r>
       <r>   -56.6638     0.0000     0.0000 </r>
       <r>   -56.4160     0.0000     0.0000 </r>
       <r>   -56.1683     0.0000     0.0000 </r>
       <r>   -55.9206     0.0000     0.0000 </r>
       <r>   -55.6729     0.0000     0.0000 </r>
       <r>   -55.4251     0.0000     0.0000 </r>
       <r>   -55.1774     0.0000     0.0000 </r>
       <r>   -54.9297    16.1468     4.0000 </r>
       <r>   -54.6820     0.0000     4.0000 </r>
       <r>   -54.4342    13.0845     7.2414 </r>
       <r>   -54.1865     0.0000    12.0000 </r>
       <r>   -53.9388     0.0000    12.0000 </r>
       <r>   -53.6910     0.0000    12.0000 </r>
       <r>   -53.4433     0.0000    12.0000 </r>
       <r>   -53.1956     0.0000    12.0000 </r>
       <r>   -52.9479     0.0000    12.0000 </r>
       <r>   -52.7001     0.0000    12.0000 </r>
       <r>   -52.4524     0.0000    12.0000 </r>
       <r>   -52.2047     0.0000    12.0000 </r>
       <r>   -51.9570     0.0000    12.0000 </r>
       <r>   -51.7092     0.0000    12.0000 </r>
       <r>   -51.4615     0.0000    12.0000 </r>
       <r>   -51.2138     0.0000    12.0000 </r>
       <r>   -50.9660     0.0000    12.0000 </r>
       <r>   -50.7183     0.0000    12.0000 </r>
       <r>   -50.4706     0.0000    12.0000 </r>
       <r>   -50.2229     0.0000    12.0000 </r>
       <r>   -49.9751     0.0000    12.0000 </r>
       <r>   -49.7274     0.0000    12.0000 </r>
       <r>   -49.4797     0.0000    12.0000 </r>
       <r>   -49.2320     0.0000    12.0000 </r>
       <r>   -48.9842     0.0000    12.0000 </r>
       <r>   -48.7365     0.0000    12.0000 </r>
       <r>   -48.4888     0.0000    12.0000 </r>
       <r>   -48.2411     0.0000    12.0000 </r>
       <r>   -47.9933     0.0000    12.0000 </r>
       <r>   -47.7456     0.0000    12.0000 </r>
       <r>   -47.4979     0.0000    12.0000 </r>
       <r>   -47.2501     0.0000    12.0000 </r>
       <r>   -47.0024     0.0000    12.0000 </r>
       <r>   -46.7547     0.0000    12.0000 </r>
       <r>   -46.5070     0.0000    12.0000 </r>
       <r>   -46.2592     0.0000    12.0000 </r>
       <r>   -46.0115     0.0000    12.0000 </r>
       <r>   -45.7638     0.0000    12.0000 </r>
       <r>   -45.5161     0.0000    12.0000 </r>
       <r>   -45.2683     0.0000    12.0000 </r>
       <r>   -45.0206     0.0000    12.0000 </r>
       <r>   -44.7729     0.0000    12.0000 </r>
       <r>   -44.5252     0.0000    12.0000 </r>
       <r>   -44.2774     0.0000    12.0000 </r>
       <r>   -44.0297     0.0000    12.0000 </r>
       <r>   -43.7820     0.0000    12.0000 </r>
       <r>   -43.5342     0.0000    12.0000 </r>
       <r>   -43.2865     0.0000    12.0000 </r>
       <r>   -43.0388     0.0000    12.0000 </r>
       <r>   -42.7911     0.0000    12.0000 </r>
       <r>   -42.5433     0.0000    12.0000 </r>
       <r>   -42.2956     0.0000    12.0000 </r>
       <r>   -42.0479     0.0000    12.0000 </r>
       <r>   -41.8002     0.0000    12.0000 </r>
       <r>   -41.5524     0.0000    12.0000 </r>
       <r>   -41.3047     0.0000    12.0000 </r>
       <r>   -41.0570     0.0000    12.0000 </r>
       <r>   -40.8092     0.0000    12.0000 </r>
       <r>   -40.5615     0.0000    12.0000 </r>
       <r>   -40.3138     0.0000    12.0000 </r>
       <r>   -40.0661     0.0000    12.0000 </r>
       <r>   -39.8183     0.0000    12.0000 </r>
       <r>   -39.5706     0.0000    12.0000 </r>
       <r>   -39.3229     0.0000    12.0000 </r>
       <r>   -39.0752     0.0000    12.0000 </r>
       <r>   -38.8274     0.0000    12.0000 </r>
       <r>   -38.5797     0.0000    12.0000 </r>
       <r>   -38.3320     0.0000    12.0000 </r>
       <r>   -38.0843     0.0000    12.0000 </r>
       <r>   -37.8365     0.0000    12.0000 </r>
       <r>   -37.5888     0.0000    12.0000 </r>
       <r>   -37.3411     0.0000    12.0000 </r>
       <r>   -37.0933     0.0000    12.0000 </r>
       <r>   -36.8456     0.0000    12.0000 </r>
       <r>   -36.5979     0.0000    12.0000 </r>
       <r>   -36.3502     0.0000    12.0000 </r>
       <r>   -36.1024     0.0000    12.0000 </r>
       <r>   -35.8547     0.0000    12.0000 </r>
       <r>   -35.6070     0.0000    12.0000 </r>
       <r>   -35.3593     0.0000    12.0000 </r>
       <r>   -35.1115     0.0000    12.0000 </r>
       <r>   -34.8638     0.0000    12.0000 </r>
       <r>   -34.6161     0.0000    12.0000 </r>
       <r>   -34.3683     0.0000    12.0000 </r>
       <r>   -34.1206     0.0000    12.0000 </r>
       <r>   -33.8729     0.0000    12.0000 </r>
       <r>   -33.6252     0.0000    12.0000 </r>
       <r>   -33.3774     0.0000    12.0000 </r>
       <r>   -33.1297     0.0000    12.0000 </r>
       <r>   -32.8820     0.0000    12.0000 </r>
       <r>   -32.6343     0.0000    12.0000 </r>
       <r>   -32.3865     0.0000    12.0000 </r>
       <r>   -32.1388     0.0000    12.0000 </r>
       <r>   -31.8911     0.0000    12.0000 </r>
       <r>   -31.6434     0.0000    12.0000 </r>
       <r>   -31.3956     0.0000    12.0000 </r>
       <r>   -31.1479     0.0000    12.0000 </r>
       <r>   -30.9002     0.0000    12.0000 </r>
       <r>   -30.6524     0.0000    12.0000 </r>
       <r>   -30.4047     0.0000    12.0000 </r>
       <r>   -30.1570     0.0000    12.0000 </r>
       <r>   -29.9093     0.0000    12.0000 </r>
       <r>   -29.6615     0.0000    12.0000 </r>
       <r>   -29.4138     0.0000    12.0000 </r>
       <r>   -29.1661     0.0000    12.0000 </r>
       <r>   -28.9184     0.0000    12.0000 </r>
       <r>   -28.6706     0.0000    12.0000 </r>
       <r>   -28.4229    28.1463    18.9726 </r>
       <r>   -28.1752    22.7206    25.6285 </r>
       <r>   -27.9274    13.2004    31.9487 </r>
       <r>   -27.6797    28.3185    43.3520 </r>
       <r>   -27.4320     2.3273    48.0000 </r>
       <r>   -27.1843     0.0000    48.0000 </r>
       <r>   -26.9365     0.0000    48.0000 </r>
       <r>   -26.6888     0.0000    48.0000 </r>
       <r>   -26.4411     0.0000    48.0000 </r>
       <r>   -26.1934     0.0000    48.0000 </r>
       <r>   -25.9456     0.0000    48.0000 </r>
       <r>   -25.6979     0.0000    48.0000 </r>
       <r>   -25.4502     0.0000    48.0000 </r>
       <r>   -25.2025     0.0000    48.0000 </r>
       <r>   -24.9547     0.0000    48.0000 </r>
       <r>   -24.7070     0.0000    48.0000 </r>
       <r>   -24.4593     0.0000    48.0000 </r>
       <r>   -24.2115     0.0000    48.0000 </r>
       <r>   -23.9638     0.0000    48.0000 </r>
       <r>   -23.7161     0.0000    48.0000 </r>
       <r>   -23.4684     0.0000    48.0000 </r>
       <r>   -23.2206     0.0000    48.0000 </r>
       <r>   -22.9729     0.0000    48.0000 </r>
       <r>   -22.7252     0.0000    48.0000 </r>
       <r>   -22.4775     0.0000    48.0000 </r>
       <r>   -22.2297     0.0000    48.0000 </r>
       <r>   -21.9820     0.0000    48.0000 </r>
       <r>   -21.7343     0.0000    48.0000 </r>
       <r>   -21.4865     0.0000    48.0000 </r>
       <r>   -21.2388     0.0000    48.0000 </r>
       <r>   -20.9911     0.0000    48.0000 </r>
       <r>   -20.7434     0.0000    48.0000 </r>
       <r>   -20.4956     0.0000    48.0000 </r>
       <r>   -20.2479     0.0000    48.0000 </r>
       <r>   -20.0002     0.0000    48.0000 </r>
       <r>   -19.7525     0.0000    48.0000 </r>
       <r>   -19.5047     0.0000    48.0000 </r>
       <r>   -19.2570     0.0000    48.0000 </r>
       <r>   -19.0093     0.0000    48.0000 </r>
       <r>   -18.7616     0.0000    48.0000 </r>
       <r>   -18.5138     0.0000    48.0000 </r>
       <r>   -18.2661     0.0000    48.0000 </r>
       <r>   -18.0184     0.0000    48.0000 </r>
       <r>   -17.7706     0.0000    48.0000 </r>
       <r>   -17.5229     0.0000    48.0000 </r>
       <r>   -17.2752     0.0000    48.0000 </r>
       <r>   -17.0275     0.0000    48.0000 </r>
       <r>   -16.7797     0.0000    48.0000 </r>
       <r>   -16.5320     0.0000    48.0000 </r>
       <r>   -16.2843     0.0000    48.0000 </r>
       <r>   -16.0366     0.0000    48.0000 </r>
       <r>   -15.7888     0.0000    48.0000 </r>
       <r>   -15.5411     0.0000    48.0000 </r>
       <r>   -15.2934     0.0000    48.0000 </r>
       <r>   -15.0456     0.0000    48.0000 </r>
       <r>   -14.7979     0.0000    48.0000 </r>
       <r>   -14.5502     0.0000    48.0000 </r>
       <r>   -14.3025     0.0000    48.0000 </r>
       <r>   -14.0547     0.0000    48.0000 </r>
       <r>   -13.8070     0.0000    48.0000 </r>
       <r>   -13.5593     0.0000    48.0000 </r>
       <r>   -13.3116     0.0000    48.0000 </r>
       <r>   -13.0638     0.0000    48.0000 </r>
       <r>   -12.8161     0.0000    48.0000 </r>
       <r>   -12.5684     0.0000    48.0000 </r>
       <r>   -12.3207     0.0000    48.0000 </r>
       <r>   -12.0729     0.0000    48.0000 </r>
       <r>   -11.8252     0.0000    48.0000 </r>
       <r>   -11.5775     0.0000    48.0000 </r>
       <r>   -11.3297     0.0000    48.0000 </r>
       <r>   -11.0820     0.0000    48.0000 </r>
       <r>   -10.8343     0.0000    48.0000 </r>
       <r>   -10.5866     0.0000    48.0000 </r>
       <r>   -10.3388     0.0000    48.0000 </r>
       <r>   -10.0911     0.0000    48.0000 </r>
       <r>    -9.8434     0.0000    48.0000 </r>
       <r>    -9.5957     0.0000    48.0000 </r>
       <r>    -9.3479     0.0000    48.0000 </r>
       <r>    -9.1002     0.0000    48.0000 </r>
       <r>    -8.8525     0.0000    48.0000 </r>
       <r>    -8.6047     0.0000    48.0000 </r>
       <r>    -8.3570     0.0000    48.0000 </r>
       <r>    -8.1093     0.0000    48.0000 </r>
       <r>    -7.8616     0.0000    48.0000 </r>
       <r>    -7.6138     0.0000    48.0000 </r>
       <r>    -7.3661     0.0000    48.0000 </r>
       <r>    -7.1184     0.0000    48.0000 </r>
       <r>    -6.8707     0.0000    48.0000 </r>
       <r>    -6.6229     0.0000    48.0000 </r>
       <r>    -6.3752     0.0000    48.0000 </r>
       <r>    -6.1275     0.0000    48.0000 </r>
       <r>    -5.8798     0.0000    48.0000 </r>
       <r>    -5.6320     0.0000    48.0000 </r>
       <r>    -5.3843     0.0000    48.0000 </r>
       <r>    -5.1366     0.0000    48.0000 </r>
       <r>    -4.8888     0.0000    48.0000 </r>
       <r>    -4.6411     0.0000    48.0000 </r>
       <r>    -4.3934     0.0000    48.0000 </r>
       <r>    -4.1457     0.0000    48.0000 </r>
       <r>    -3.8979     0.0000    48.0000 </r>
       <r>    -3.6502     0.0000    48.0000 </r>
       <r>    -3.4025     0.0000    48.0000 </r>
       <r>    -3.1548     0.0000    48.0000 </r>
       <r>    -2.9070     0.0000    48.0000 </r>
       <r>    -2.6593     0.0000    48.0000 </r>
       <r>    -2.4116     0.2589    48.0641 </r>
       <r>    -2.1639     0.4389    48.1955 </r>
       <r>    -1.9161     0.2503    48.3630 </r>
       <r>    -1.6684     0.9630    48.7335 </r>
       <r>    -1.4207     0.8586    49.0749 </r>
       <r>    -1.1729     1.4955    49.5899 </r>
       <r>    -0.9252     1.0845    49.9982 </r>
       <r>    -0.6775     1.9557    50.5967 </r>
       <r>    -0.4298     1.0948    50.9651 </r>
       <r>    -0.1820     1.2231    51.3744 </r>
       <r>     0.0657     1.6681    52.0663 </r>
       <r>     0.3134     3.4241    53.3023 </r>
       <r>     0.5611     2.5798    54.3483 </r>
       <r>     0.8089     2.3416    55.3862 </r>
       <r>     1.0566     3.0854    56.4225 </r>
       <r>     1.3043     2.7486    57.2676 </r>
       <r>     1.5521     3.3882    58.5077 </r>
       <r>     1.7998     1.9181    59.4343 </r>
       <r>     2.0475     0.9144    59.9306 </r>
       <r>     2.2952     0.2300    59.9907 </r>
       <r>     2.5430     0.2095    60.0876 </r>
       <r>     2.7907     0.4491    60.2694 </r>
       <r>     3.0384     1.2911    60.6209 </r>
       <r>     3.2861     1.9326    61.3461 </r>
       <r>     3.5339     4.4082    62.8880 </r>
       <r>     3.7816     4.5288    64.6525 </r>
       <r>     4.0293     4.7394    66.5210 </r>
       <r>     4.2770     4.7595    68.3576 </r>
       <r>     4.5248     6.2275    70.6652 </r>
       <r>     4.7725    10.6123    74.1034 </r>
       <r>     5.0202     7.3745    77.0871 </r>
       <r>     5.2680     5.0443    79.0659 </r>
       <r>     5.5157     8.1800    82.0162 </r>
       <r>     5.7634     5.8236    84.4120 </r>
       <r>     6.0111     5.2306    86.3213 </r>
       <r>     6.2589     8.8078    89.1258 </r>
       <r>     6.5066     5.7272    91.3933 </r>
       <r>     6.7543     4.0384    93.0412 </r>
       <r>     7.0020     5.2157    95.2564 </r>
       <r>     7.2498     5.4858    97.2569 </r>
       <r>     7.4975     5.1876    99.3565 </r>
       <r>     7.7452     9.5210   102.7362 </r>
       <r>     7.9930     7.6154   105.5498 </r>
       <r>     8.2407     6.0469   108.0133 </r>
       <r>     8.4884     6.4371   110.4875 </r>
       <r>     8.7361     2.6510   111.6873 </r>
       <r>     8.9839     3.7147   112.8896 </r>
       <r>     9.2316     4.6418   114.4458 </r>
       <r>     9.4793     2.7759   115.7744 </r>
       <r>     9.7270     2.9583   116.8298 </r>
       <r>     9.9748     4.7400   118.6436 </r>
       <r>    10.2225     4.0561   120.1630 </r>
       <r>    10.4702     5.6957   122.4569 </r>
       <r>    10.7179     3.6001   123.8510 </r>
       <r>    10.9657     3.9140   125.4951 </r>
       <r>    11.2134     3.0423   126.6108 </r>
       <r>    11.4611     5.3504   128.4581 </r>
       <r>    11.7089     4.1365   129.9992 </r>
       <r>    11.9566     3.6251   131.3980 </r>
       <r>    12.2043     1.2100   131.8967 </r>
       <r>    12.4520     0.1222   131.9946 </r>
       <r>    12.6998     0.0206   132.0000 </r>
       <r>    12.9475     0.0000   132.0000 </r>
       <r>    13.1952     0.0000   132.0000 </r>
       <r>    13.4429     0.0000   132.0000 </r>
       <r>    13.6907     0.0000   132.0000 </r>
       <r>    13.9384     0.0000   132.0000 </r>
       <r>    14.1861     0.0000   132.0000 </r>
       <r>    14.4339     0.0000   132.0000 </r>
       <r>    14.6816     0.0000   132.0000 </r>
       <r>    14.9293     0.0000   132.0000 </r>
       <r>    15.1770     0.0000   132.0000 </r>
       <r>    15.4248     0.0000   132.0000 </r>
       <r>    15.6725     0.0000   132.0000 </r>
       <r>    15.9202     0.0000   132.0000 </r>
      </set>
     </set>
    </array>
   </total>
  </dos>
 </calculation>
 <structure name="finalpos" >
  <crystal>
   <varray name="basis" >
    <v>       5.51723770       0.00000000      -3.09385067 </v>
    <v>      -1.89286188       5.18237259      -3.09385067 </v>
    <v>       0.00000000       0.00000000       6.32549000 </v>
   </varray>
   <i name="volume">    180.86082277 </i>
   <varray name="rec_basis" >
    <v>       0.18125012       0.06620162       0.00000000 </v>
    <v>       0.00000000       0.19296181       0.00000000 </v>
    <v>       0.08865097       0.12675902       0.15809052 </v>
   </varray>
  </crystal>
  <varray name="positions" >
   <v>       0.00000000       0.00000000       0.50000000 </v>
   <v>       0.00000000       0.50000000       0.00000000 </v>
   <v>       0.50000000       0.50000000       0.50000000 </v>
   <v>       0.50000000       0.00000000       0.00000000 </v>
   <v>       0.25000000       0.25000000       0.00000000 </v>
   <v>       0.24746000       0.74746000       0.99492000 </v>
   <v>       0.75000000       0.75000000       0.00000000 </v>
   <v>       0.75254000       0.25254000       0.00508000 </v>
   <v>       0.74746000       0.75254000       0.50000000 </v>
   <v>       0.25254000       0.24746000       0.50000000 </v>
   <v>       0.00000000       0.50000000       0.50000000 </v>
   <v>       0.50000000       0.00000000       0.50000000 </v>
  </varray>
 </structure>
</modeling>
