<?xml version="1.0" encoding="ISO-8859-1"?>
<modeling>
 <generator>
  <i name="program" type="string">vasp </i>
  <i name="version" type="string">6.2.0  </i>
  <i name="subversion" type="string">18Jan21 (build Jan 05 2022 15:41:44) complex                          parallel </i>
  <i name="platform" type="string">LinuxIFC </i>
  <i name="date" type="string">2025 05 07 </i>
  <i name="time" type="string">18:48:02 </i>
 </generator>
 <incar>
  <i type="string" name="SYSTEM">routine with relax: pwdword</i>
  <i type="string" name="PREC">Acc</i>
  <i type="int" name="IALGO">    38</i>
  <i type="string" name="ALGO">A</i>
  <i type="logical" name="ADDGRID"> T  </i>
  <i type="int" name="ICHARG">     2</i>
  <i type="int" name="NELM">   100</i>
  <i type="int" name="NELMIN">     6</i>
  <i name="EDIFF">      0.00000000</i>
  <i type="int" name="NSW">     0</i>
  <i type="int" name="ISIF">    -1</i>
  <i name="SYMPREC">      0.00010000</i>
  <i name="ENCUT">    600.00000000</i>
  <i type="logical" name="LREAL"> F  </i>
  <i type="int" name="ISMEAR">     0</i>
  <i name="SIGMA">      0.02000000</i>
  <i type="logical" name="LASPH"> T  </i>
  <i type="string" name="METAGGA">R2SCAN</i>
  <i type="logical" name="LMIXTAU"> F  </i>
 </incar>
 <primitive_cell>
  <structure name="primitive_cell" >
   <crystal>
    <varray name="basis" >
     <v>       5.73767690       0.00000000      -3.16919728 </v>
     <v>      -1.99758461       5.37871657      -3.16919728 </v>
     <v>       0.00000000       0.00000000       6.55475000 </v>
    </varray>
    <i name="volume">    202.28835386 </i>
    <varray name="rec_basis" >
     <v>       0.17428657       0.06472774       0.00000000 </v>
     <v>       0.00000000       0.18591796       0.00000000 </v>
     <v>       0.08426691       0.12118626       0.15256112 </v>
    </varray>
   </crystal>
   <varray name="positions" >
    <v>       0.25000000       0.25000000       0.00000000 </v>
    <v>       0.75000000       0.75000000       0.00000000 </v>
    <v>       0.00000000       0.00000000       0.00000000 </v>
    <v>       0.50000000       0.00000000       0.50000000 </v>
    <v>       0.00000000       0.50000000       0.50000000 </v>
    <v>       0.50000000       0.50000000       0.00000000 </v>
    <v>       0.74502000       0.24502000       0.99003000 </v>
    <v>       0.25498000       0.75498000       0.00997000 </v>
    <v>       0.24502000       0.25498000       0.50000000 </v>
    <v>       0.75498000       0.74502000       0.50000000 </v>
   </varray>
  </structure>
  <varray name="primitive_index" >
   <v type="int" >        1 </v>
   <v type="int" >        2 </v>
   <v type="int" >        3 </v>
   <v type="int" >        4 </v>
   <v type="int" >        5 </v>
   <v type="int" >        6 </v>
   <v type="int" >        7 </v>
   <v type="int" >        8 </v>
   <v type="int" >        9 </v>
   <v type="int" >       10 </v>
  </varray>
 </primitive_cell>
 <kpoints>
  <generation param="Gamma">
   <v type="int" name="divisions">       7        7        8 </v>
   <v name="usershift">      0.00000000       0.00000000       0.00000000 </v>
   <v name="genvec1">      0.14285714       0.00000000       0.00000000 </v>
   <v name="genvec2">      0.00000000       0.14285714       0.00000000 </v>
   <v name="genvec3">     -0.00000000       0.00000000       0.12500000 </v>
   <v name="shift">      0.00000000       0.00000000       0.00000000 </v>
  </generation>
  <varray name="kpointlist" >
   <v>       0.00000000       0.00000000       0.00000000 </v>
   <v>       0.14285714      -0.00000000       0.00000000 </v>
   <v>       0.28571429      -0.00000000       0.00000000 </v>
   <v>       0.42857143      -0.00000000       0.00000000 </v>
   <v>       0.14285714       0.14285714       0.00000000 </v>
   <v>       0.28571429       0.14285714       0.00000000 </v>
   <v>       0.42857143       0.14285714       0.00000000 </v>
   <v>      -0.42857143       0.14285714       0.00000000 </v>
   <v>      -0.28571429       0.14285714       0.00000000 </v>
   <v>      -0.14285714       0.14285714       0.00000000 </v>
   <v>       0.28571429       0.28571429       0.00000000 </v>
   <v>       0.42857143       0.28571429       0.00000000 </v>
   <v>      -0.42857143       0.28571429       0.00000000 </v>
   <v>      -0.28571429       0.28571429       0.00000000 </v>
   <v>       0.42857143       0.42857143       0.00000000 </v>
   <v>      -0.42857143       0.42857143       0.00000000 </v>
   <v>       0.00000000      -0.00000000       0.12500000 </v>
   <v>       0.14285714      -0.00000000       0.12500000 </v>
   <v>       0.28571429      -0.00000000       0.12500000 </v>
   <v>       0.42857143      -0.00000000       0.12500000 </v>
   <v>      -0.42857143       0.00000000       0.12500000 </v>
   <v>      -0.28571429       0.00000000       0.12500000 </v>
   <v>      -0.14285714      -0.00000000       0.12500000 </v>
   <v>       0.14285714       0.14285714       0.12500000 </v>
   <v>       0.28571429       0.14285714       0.12500000 </v>
   <v>       0.42857143       0.14285714       0.12500000 </v>
   <v>      -0.42857143       0.14285714       0.12500000 </v>
   <v>      -0.28571429       0.14285714       0.12500000 </v>
   <v>      -0.14285714       0.14285714       0.12500000 </v>
   <v>       0.28571429       0.28571429       0.12500000 </v>
   <v>       0.42857143       0.28571429       0.12500000 </v>
   <v>      -0.42857143       0.28571429       0.12500000 </v>
   <v>      -0.28571429       0.28571429       0.12500000 </v>
   <v>      -0.14285714       0.28571429       0.12500000 </v>
   <v>       0.42857143       0.42857143       0.12500000 </v>
   <v>      -0.42857143       0.42857143       0.12500000 </v>
   <v>      -0.28571429       0.42857143       0.12500000 </v>
   <v>      -0.14285714       0.42857143       0.12500000 </v>
   <v>      -0.42857143      -0.42857143       0.12500000 </v>
   <v>      -0.28571429      -0.42857143       0.12500000 </v>
   <v>      -0.14285714      -0.42857143       0.12500000 </v>
   <v>      -0.28571429      -0.28571429       0.12500000 </v>
   <v>      -0.14285714      -0.28571429       0.12500000 </v>
   <v>      -0.14285714      -0.14285714       0.12500000 </v>
   <v>       0.00000000      -0.00000000       0.25000000 </v>
   <v>       0.14285714      -0.00000000       0.25000000 </v>
   <v>       0.28571429      -0.00000000       0.25000000 </v>
   <v>       0.42857143      -0.00000000       0.25000000 </v>
   <v>      -0.42857143       0.00000000       0.25000000 </v>
   <v>      -0.28571429      -0.00000000       0.25000000 </v>
   <v>      -0.14285714      -0.00000000       0.25000000 </v>
   <v>       0.14285714       0.14285714       0.25000000 </v>
   <v>       0.28571429       0.14285714       0.25000000 </v>
   <v>       0.42857143       0.14285714       0.25000000 </v>
   <v>      -0.42857143       0.14285714       0.25000000 </v>
   <v>      -0.28571429       0.14285714       0.25000000 </v>
   <v>      -0.14285714       0.14285714       0.25000000 </v>
   <v>       0.28571429       0.28571429       0.25000000 </v>
   <v>       0.42857143       0.28571429       0.25000000 </v>
   <v>      -0.42857143       0.28571429       0.25000000 </v>
   <v>      -0.28571429       0.28571429       0.25000000 </v>
   <v>      -0.14285714       0.28571429       0.25000000 </v>
   <v>       0.42857143       0.42857143       0.25000000 </v>
   <v>      -0.42857143       0.42857143       0.25000000 </v>
   <v>      -0.28571429       0.42857143       0.25000000 </v>
   <v>      -0.14285714       0.42857143       0.25000000 </v>
   <v>      -0.42857143      -0.42857143       0.25000000 </v>
   <v>      -0.28571429      -0.42857143       0.25000000 </v>
   <v>      -0.14285714      -0.42857143       0.25000000 </v>
   <v>      -0.28571429      -0.28571429       0.25000000 </v>
   <v>      -0.14285714      -0.28571429       0.25000000 </v>
   <v>      -0.14285714      -0.14285714       0.25000000 </v>
   <v>       0.00000000      -0.00000000       0.37500000 </v>
   <v>       0.14285714      -0.00000000       0.37500000 </v>
   <v>       0.28571429      -0.00000000       0.37500000 </v>
   <v>       0.42857143      -0.00000000       0.37500000 </v>
   <v>      -0.42857143      -0.00000000       0.37500000 </v>
   <v>      -0.28571429      -0.00000000       0.37500000 </v>
   <v>      -0.14285714      -0.00000000       0.37500000 </v>
   <v>       0.14285714       0.14285714       0.37500000 </v>
   <v>       0.28571429       0.14285714       0.37500000 </v>
   <v>       0.42857143       0.14285714       0.37500000 </v>
   <v>      -0.42857143       0.14285714       0.37500000 </v>
   <v>      -0.28571429       0.14285714       0.37500000 </v>
   <v>      -0.14285714       0.14285714       0.37500000 </v>
   <v>       0.28571429       0.28571429       0.37500000 </v>
   <v>       0.42857143       0.28571429       0.37500000 </v>
   <v>      -0.42857143       0.28571429       0.37500000 </v>
   <v>      -0.28571429       0.28571429       0.37500000 </v>
   <v>      -0.14285714       0.28571429       0.37500000 </v>
   <v>       0.42857143       0.42857143       0.37500000 </v>
   <v>      -0.42857143       0.42857143       0.37500000 </v>
   <v>      -0.28571429       0.42857143       0.37500000 </v>
   <v>      -0.14285714       0.42857143       0.37500000 </v>
   <v>      -0.42857143      -0.42857143       0.37500000 </v>
   <v>      -0.28571429      -0.42857143       0.37500000 </v>
   <v>      -0.14285714      -0.42857143       0.37500000 </v>
   <v>      -0.28571429      -0.28571429       0.37500000 </v>
   <v>      -0.14285714      -0.28571429       0.37500000 </v>
   <v>      -0.14285714      -0.14285714       0.37500000 </v>
   <v>       0.00000000      -0.00000000       0.50000000 </v>
   <v>       0.14285714      -0.00000000       0.50000000 </v>
   <v>       0.28571429      -0.00000000       0.50000000 </v>
   <v>       0.42857143      -0.00000000       0.50000000 </v>
   <v>       0.14285714       0.14285714       0.50000000 </v>
   <v>       0.28571429       0.14285714       0.50000000 </v>
   <v>       0.42857143       0.14285714       0.50000000 </v>
   <v>      -0.42857143       0.14285714       0.50000000 </v>
   <v>      -0.28571429       0.14285714       0.50000000 </v>
   <v>      -0.14285714       0.14285714       0.50000000 </v>
   <v>       0.28571429       0.28571429       0.50000000 </v>
   <v>       0.42857143       0.28571429       0.50000000 </v>
   <v>      -0.42857143       0.28571429       0.50000000 </v>
   <v>      -0.28571429       0.28571429       0.50000000 </v>
   <v>       0.42857143       0.42857143       0.50000000 </v>
   <v>      -0.42857143       0.42857143       0.50000000 </v>
  </varray>
  <varray name="weights" >
   <v>       0.00255102 </v>
   <v>       0.01020408 </v>
   <v>       0.01020408 </v>
   <v>       0.01020408 </v>
   <v>       0.00510204 </v>
   <v>       0.01020408 </v>
   <v>       0.01020408 </v>
   <v>       0.01020408 </v>
   <v>       0.01020408 </v>
   <v>       0.00510204 </v>
   <v>       0.00510204 </v>
   <v>       0.01020408 </v>
   <v>       0.01020408 </v>
   <v>       0.00510204 </v>
   <v>       0.00510204 </v>
   <v>       0.00510204 </v>
   <v>       0.00510204 </v>
   <v>       0.01020408 </v>
   <v>       0.01020408 </v>
   <v>       0.01020408 </v>
   <v>       0.01020408 </v>
   <v>       0.01020408 </v>
   <v>       0.01020408 </v>
   <v>       0.00510204 </v>
   <v>       0.01020408 </v>
   <v>       0.01020408 </v>
   <v>       0.01020408 </v>
   <v>       0.01020408 </v>
   <v>       0.01020408 </v>
   <v>       0.00510204 </v>
   <v>       0.01020408 </v>
   <v>       0.01020408 </v>
   <v>       0.01020408 </v>
   <v>       0.01020408 </v>
   <v>       0.00510204 </v>
   <v>       0.01020408 </v>
   <v>       0.01020408 </v>
   <v>       0.01020408 </v>
   <v>       0.00510204 </v>
   <v>       0.01020408 </v>
   <v>       0.01020408 </v>
   <v>       0.00510204 </v>
   <v>       0.01020408 </v>
   <v>       0.00510204 </v>
   <v>       0.00510204 </v>
   <v>       0.01020408 </v>
   <v>       0.01020408 </v>
   <v>       0.01020408 </v>
   <v>       0.01020408 </v>
   <v>       0.01020408 </v>
   <v>       0.01020408 </v>
   <v>       0.00510204 </v>
   <v>       0.01020408 </v>
   <v>       0.01020408 </v>
   <v>       0.01020408 </v>
   <v>       0.01020408 </v>
   <v>       0.01020408 </v>
   <v>       0.00510204 </v>
   <v>       0.01020408 </v>
   <v>       0.01020408 </v>
   <v>       0.01020408 </v>
   <v>       0.01020408 </v>
   <v>       0.00510204 </v>
   <v>       0.01020408 </v>
   <v>       0.01020408 </v>
   <v>       0.01020408 </v>
   <v>       0.00510204 </v>
   <v>       0.01020408 </v>
   <v>       0.01020408 </v>
   <v>       0.00510204 </v>
   <v>       0.01020408 </v>
   <v>       0.00510204 </v>
   <v>       0.00510204 </v>
   <v>       0.01020408 </v>
   <v>       0.01020408 </v>
   <v>       0.01020408 </v>
   <v>       0.01020408 </v>
   <v>       0.01020408 </v>
   <v>       0.01020408 </v>
   <v>       0.00510204 </v>
   <v>       0.01020408 </v>
   <v>       0.01020408 </v>
   <v>       0.01020408 </v>
   <v>       0.01020408 </v>
   <v>       0.01020408 </v>
   <v>       0.00510204 </v>
   <v>       0.01020408 </v>
   <v>       0.01020408 </v>
   <v>       0.01020408 </v>
   <v>       0.01020408 </v>
   <v>       0.00510204 </v>
   <v>       0.01020408 </v>
   <v>       0.01020408 </v>
   <v>       0.01020408 </v>
   <v>       0.00510204 </v>
   <v>       0.01020408 </v>
   <v>       0.01020408 </v>
   <v>       0.00510204 </v>
   <v>       0.01020408 </v>
   <v>       0.00510204 </v>
   <v>       0.00255102 </v>
   <v>       0.01020408 </v>
   <v>       0.01020408 </v>
   <v>       0.01020408 </v>
   <v>       0.00510204 </v>
   <v>       0.01020408 </v>
   <v>       0.01020408 </v>
   <v>       0.01020408 </v>
   <v>       0.01020408 </v>
   <v>       0.00510204 </v>
   <v>       0.00510204 </v>
   <v>       0.01020408 </v>
   <v>       0.01020408 </v>
   <v>       0.00510204 </v>
   <v>       0.00510204 </v>
   <v>       0.00510204 </v>
  </varray>
 </kpoints>
 <parameters>
  <separator name="general" >
   <i type="string" name="SYSTEM">routine with relax: pwdword</i>
   <i type="logical" name="LCOMPAT"> F  </i>
  </separator>
  <separator name="electronic" >
   <i type="string" name="PREC">acc</i>
   <i name="ENMAX">    600.00000000</i>
   <i name="ENAUG">    535.51400000</i>
   <i name="EDIFF">      0.00000000</i>
   <i type="int" name="IALGO">    58</i>
   <i type="int" name="IWAVPR">    10</i>
   <i type="int" name="NBANDS">    48</i>
   <i type="int" name="NBANDSLOW">    -1</i>
   <i type="int" name="NBANDSHIGH">    -1</i>
   <i name="NELECT">     78.00000000</i>
   <i type="int" name="TURBO">     0</i>
   <i type="int" name="IRESTART">     0</i>
   <i type="int" name="NREBOOT">     0</i>
   <i type="int" name="NMIN">     0</i>
   <i name="EREF">      0.00000000</i>
   <separator name="electronic smearing" >
    <i type="int" name="ISMEAR">     0</i>
    <i name="SIGMA">      0.02000000</i>
    <i name="KSPACING">      0.50000000</i>
    <i type="logical" name="KGAMMA"> T  </i>
    <i type="logical" name="KBLOWUP"> F  </i>
   </separator>
   <separator name="electronic projectors" >
    <i type="logical" name="LREAL"> F  </i>
    <v name="ROPT">      0.00000000      0.00000000      0.00000000</v>
    <i type="int" name="LMAXPAW">  -100</i>
    <i type="int" name="LMAXMIX">     2</i>
    <i type="logical" name="NLSPLINE"> F  </i>
   </separator>
   <separator name="electronic startup" >
    <i type="int" name="ISTART">     0</i>
    <i type="int" name="ICHARG">     2</i>
    <i type="int" name="INIWAV">     1</i>
   </separator>
   <separator name="electronic spin" >
    <i type="int" name="ISPIN">     1</i>
    <i type="logical" name="LNONCOLLINEAR"> F  </i>
    <v name="MAGMOM">      1.00000000      1.00000000      1.00000000      1.00000000      1.00000000      1.00000000      1.00000000      1.00000000      1.00000000      1.00000000</v>
    <i name="NUPDOWN">     -1.00000000</i>
    <i type="logical" name="LSORBIT"> F  </i>
    <v name="SAXIS">      0.00000000      0.00000000      1.00000000</v>
    <i type="logical" name="LSPIRAL"> F  </i>
    <v name="QSPIRAL">      0.00000000      0.00000000      0.00000000</v>
    <i type="logical" name="LZEROZ"> F  </i>
   </separator>
   <separator name="electronic exchange-correlation" >
    <i type="logical" name="LASPH"> T  </i>
    <i type="logical" name="LMETAGGA"> F  </i>
   </separator>
   <separator name="electronic convergence" >
    <i type="int" name="NELM">   100</i>
    <i type="int" name="NELMDL">    -5</i>
    <i type="int" name="NELMIN">     6</i>
    <i name="ENINI">    600.00000000</i>
    <separator name="electronic convergence detail" >
     <i type="logical" name="LDIAG"> T  </i>
     <i type="logical" name="LSUBROT"> F  </i>
     <i name="WEIMIN">      0.00000000</i>
     <i name="EBREAK">      0.00000000</i>
     <i name="DEPER">      0.30000000</i>
     <i type="int" name="NRMM">     4</i>
     <i name="TIME">      0.40000000</i>
    </separator>
   </separator>
   <separator name="electronic mixer" >
    <i name="AMIX">      0.40000000</i>
    <i name="BMIX">      1.00000000</i>
    <i name="AMIN">      0.10000000</i>
    <i name="AMIX_MAG">      1.60000000</i>
    <i name="BMIX_MAG">      1.00000000</i>
    <separator name="electronic mixer details" >
     <i type="int" name="IMIX">     4</i>
     <i type="logical" name="MIXFIRST"> F  </i>
     <i type="int" name="MAXMIX">   -45</i>
     <i name="WC">    100.00000000</i>
     <i type="int" name="INIMIX">     1</i>
     <i type="int" name="MIXPRE">     1</i>
     <i type="int" name="MREMOVE">     5</i>
    </separator>
   </separator>
   <separator name="electronic dipolcorrection" >
    <i type="logical" name="LDIPOL"> F  </i>
    <i type="logical" name="LMONO"> F  </i>
    <i type="int" name="IDIPOL">     0</i>
    <i name="EPSILON">      1.00000000</i>
    <v name="DIPOL">   -100.00000000   -100.00000000   -100.00000000</v>
    <i name="EFIELD">      0.00000000</i>
   </separator>
  </separator>
  <separator name="grids" >
   <i type="int" name="NGX">    54</i>
   <i type="int" name="NGY">    54</i>
   <i type="int" name="NGZ">    54</i>
   <i type="int" name="NGXF">   108</i>
   <i type="int" name="NGYF">   108</i>
   <i type="int" name="NGZF">   108</i>
   <i type="logical" name="ADDGRID"> T  </i>
  </separator>
  <separator name="ionic" >
   <i type="int" name="NSW">     0</i>
   <i type="int" name="IBRION">    -1</i>
   <i type="int" name="MDALGO">     0</i>
   <i type="int" name="ISIF">    -1</i>
   <i name="PSTRESS">      0.00000000</i>
   <i name="EDIFFG">      0.00000001</i>
   <i type="int" name="NFREE">     0</i>
   <i name="POTIM">      0.50000000</i>
   <i name="SMASS">     -3.00000000</i>
   <i name="SCALEE">      1.00000000</i>
  </separator>
  <separator name="ionic md" >
   <i name="TEBEG">      0.00010000</i>
   <i name="TEEND">      0.00010000</i>
   <i type="int" name="NBLOCK">     1</i>
   <i type="int" name="KBLOCK">     1</i>
   <i type="int" name="NPACO">   256</i>
   <i name="APACO">     16.00000000</i>
  </separator>
  <separator name="symmetry" >
   <i type="int" name="ISYM">     2</i>
   <i name="SYMPREC">      0.00010000</i>
  </separator>
  <separator name="dos" >
   <i type="int" name="LORBIT">     0</i>
   <v name="RWIGS">     -1.00000000     -1.00000000     -1.00000000</v>
   <i type="int" name="NEDOS">   301</i>
   <i name="EMIN">     10.00000000</i>
   <i name="EMAX">    -10.00000000</i>
   <i name="EFERMI">      0.00000000</i>
  </separator>
  <separator name="writing" >
   <i type="int" name="NWRITE">     2</i>
   <i type="logical" name="LWAVE"> T  </i>
   <i type="logical" name="LDOWNSAMPLE"> F  </i>
   <i type="logical" name="LCHARG"> T  </i>
   <i type="logical" name="LPARD"> F  </i>
   <i type="logical" name="LVTOT"> F  </i>
   <i type="logical" name="LVHAR"> F  </i>
   <i type="logical" name="LELF"> F  </i>
   <i type="logical" name="LOPTICS"> F  </i>
   <v name="STM">      0.00000000      0.00000000      0.00000000      0.00000000      0.00000000      0.00000000      0.00000000</v>
  </separator>
  <separator name="performance" >
   <i type="int" name="NPAR">     6</i>
   <i type="int" name="NSIM">     4</i>
   <i type="int" name="NBLK">    -1</i>
   <i type="logical" name="LPLANE"> T  </i>
   <i type="logical" name="LSCALAPACK"> T  </i>
   <i type="logical" name="LSCAAWARE"> F  </i>
   <i type="logical" name="LSCALU"> F  </i>
   <i type="logical" name="LASYNC"> F  </i>
   <i type="logical" name="LORBITALREAL"> F  </i>
  </separator>
  <separator name="miscellaneous" >
   <i type="int" name="IDIOT">     3</i>
   <i type="int" name="PHON_NSTRUCT">    -1</i>
   <i type="logical" name="LMUSIC"> F  </i>
   <v name="POMASS">     10.81100000     95.94000000     28.08500000</v>
   <v name="DARWINR">      0.00000000      0.00000000      0.00000000</v>
   <v name="DARWINV">      1.00000000      1.00000000      1.00000000</v>
   <i type="logical" name="LCORR"> T  </i>
  </separator>
  <i type="logical" name="GGA_COMPAT"> T  </i>
  <i type="logical" name="LBERRY"> F  </i>
  <i type="int" name="ICORELEVEL">     0</i>
  <i type="logical" name="LDAU"> F  </i>
  <i type="int" name="I_CONSTRAINED_M">     0</i>
  <separator name="electronic exchange-correlation" >
   <i type="string" name="GGA">--</i>
   <i type="int" name="VOSKOWN">     0</i>
   <i type="logical" name="LHFCALC"> F  </i>
   <i type="string" name="PRECFOCK"></i>
   <i type="logical" name="LSYMGRAD"> F  </i>
   <i type="logical" name="LHFONE"> F  </i>
   <i type="logical" name="LRHFCALC"> F  </i>
   <i type="logical" name="LTHOMAS"> F  </i>
   <i type="logical" name="LMODELHF"> F  </i>
   <i type="logical" name="LFOCKACE"> F  </i>
   <i name="ENCUT4O">     -1.00000000</i>
   <i type="int" name="EXXOEP">     0</i>
   <i type="int" name="FOURORBIT">     0</i>
   <i name="AEXX">      0.00000000</i>
   <i name="HFALPHA">      0.00000000</i>
   <i name="MCALPHA">      0.00000000</i>
   <i name="ALDAX">      1.00000000</i>
   <i name="AGGAX">      1.00000000</i>
   <i name="ALDAC">      1.00000000</i>
   <i name="AGGAC">      1.00000000</i>
   <i type="int" name="NKREDX">     1</i>
   <i type="int" name="NKREDY">     1</i>
   <i type="int" name="NKREDZ">     1</i>
   <i type="logical" name="SHIFTRED"> F  </i>
   <i type="logical" name="ODDONLY"> F  </i>
   <i type="logical" name="EVENONLY"> F  </i>
   <i type="int" name="LMAXFOCK">     0</i>
   <i type="int" name="NMAXFOCKAE">     0</i>
   <i type="logical" name="LFOCKAEDFT"> F  </i>
   <i name="HFSCREEN">      0.00000000</i>
   <i name="HFSCREENC">      0.00000000</i>
   <i type="int" name="NBANDSGWLOW">     0</i>
  </separator>
  <separator name="vdW DFT" >
   <i type="logical" name="LUSE_VDW"> F  </i>
   <i name="Zab_VDW">     -0.84910000</i>
   <i name="PARAM1">      0.12340000</i>
   <i name="PARAM2">      1.00000000</i>
   <i name="PARAM3">      0.00000000</i>
  </separator>
  <separator name="model GW" >
   <i type="int" name="MODEL_GW">     0</i>
   <i name="MODEL_EPS0">     12.13730123</i>
   <i name="MODEL_ALPHA">      1.00000000</i>
  </separator>
  <separator name="linear response parameters" >
   <i type="logical" name="LEPSILON"> F  </i>
   <i type="logical" name="LRPA"> F  </i>
   <i type="logical" name="LNABLA"> F  </i>
   <i type="logical" name="LVEL"> F  </i>
   <i type="int" name="KINTER">     0</i>
   <i name="CSHIFT">      0.10000000</i>
   <i name="OMEGAMAX">     -1.00000000</i>
   <i name="DEG_THRESHOLD">      0.00200000</i>
   <i name="RTIME">     -0.10000000</i>
   <i name="WPLASMAI">      0.00000000</i>
   <v name="DFIELD">      0.00000000      0.00000000      0.00000000</v>
   <v name="WPLASMA">      0.00000000      0.00000000      0.00000000      0.00000000      0.00000000      0.00000000      0.00000000      0.00000000      0.00000000</v>
  </separator>
  <separator name="orbital magnetization" >
   <i type="logical" name="NUCIND"> F  </i>
   <v name="MAGPOS">      0.00000000      0.00000000      0.00000000</v>
   <i type="logical" name="LNICSALL"> T  </i>
   <i type="logical" name="ORBITALMAG"> F  </i>
   <i type="logical" name="LMAGBLOCH"> F  </i>
   <i type="logical" name="LCHIMAG"> F  </i>
   <i type="logical" name="LGAUGE"> T  </i>
   <i type="int" name="MAGATOM">     0</i>
   <v name="MAGDIPOL">      0.00000000      0.00000000      0.00000000</v>
   <v name="AVECCONST">      0.00000000      0.00000000      0.00000000</v>
  </separator>
  <separator name="response functions" >
   <i type="logical" name="LFINITE_TEMPERATURE"> F  </i>
   <i type="logical" name="LADDER"> F  </i>
   <i type="logical" name="LRPAFORCE"> F  </i>
   <i type="logical" name="LFXC"> F  </i>
   <i type="logical" name="LHARTREE"> T  </i>
   <i type="int" name="IBSE">     0</i>
   <v type="int" name="KPOINT">    -1     0     0     0</v>
   <i type="logical" name="LTCTC"> F  </i>
   <i type="logical" name="LTCTE"> F  </i>
   <i type="logical" name="LTETE"> F  </i>
   <i type="logical" name="LTRIPLET"> F  </i>
   <i type="logical" name="LFXCEPS"> F  </i>
   <i type="logical" name="LFXHEG"> F  </i>
   <i type="int" name="NATURALO">     2</i>
   <i type="logical" name="LHOLEGF"> F  </i>
   <i type="logical" name="L2ORDER"> F  </i>
   <i type="logical" name="LDMP1"> F  </i>
   <i type="logical" name="LMP2LT"> F  </i>
   <i type="logical" name="LSMP2LT"> F  </i>
   <i type="logical" name="LGWLF"> F  </i>
   <i name="ENCUTGW">     -2.00000000</i>
   <i name="ENCUTGWSOFT">     -2.00000000</i>
   <i name="ENCUTLF">     -1.00000000</i>
   <i type="logical" name="LESF_SPLINES"> F  </i>
   <i type="int" name="LMAXMP2">    -1</i>
   <i name="SCISSOR">      0.00000000</i>
   <i type="int" name="NOMEGA">     0</i>
   <i type="int" name="NOMEGAR">     0</i>
   <i type="int" name="NBANDSGW">    -1</i>
   <i type="int" name="NBANDSO">    -1</i>
   <i type="int" name="NBANDSV">    -1</i>
   <i type="int" name="NELM">   100</i>
   <i type="int" name="NELMHF">     1</i>
   <i type="int" name="DIM">     3</i>
   <i type="int" name="IESPILON">     4</i>
   <i type="int" name="ANTIRES">     0</i>
   <i name="OMEGAMAX">    -30.00000000</i>
   <i name="OMEGAMIN">    -30.00000000</i>
   <i name="OMEGATL">   -200.00000000</i>
   <i type="int" name="OMEGAGRID">     0</i>
   <i name="CSHIFT">     -0.10000000</i>
   <i type="logical" name="LSELFENERGY"> F  </i>
   <i type="logical" name="LSPECTRAL"> F  </i>
   <i type="logical" name="LSPECTRALGW"> F  </i>
   <i type="logical" name="LSINGLES"> F  </i>
   <i type="logical" name="LFERMIGW"> F  </i>
   <i type="logical" name="ODDONLYGW"> F  </i>
   <i type="logical" name="EVENONLYGW"> F  </i>
   <i type="int" name="NKREDLFX">     1</i>
   <i type="int" name="NKREDLFY">     1</i>
   <i type="int" name="NKREDLFZ">     1</i>
   <i type="int" name="MAXMEM">  2800</i>
   <i type="int" name="TELESCOPE">     0</i>
   <i type="int" name="NTAUPAR">    -1</i>
   <i type="int" name="NOMEGAPAR">    -1</i>
   <i name="DAMP_NEWTON">      0.80000001</i>
   <i name="LAMBDA">      1.00000000</i>
  </separator>
  <separator name="External order field" >
   <i name="OFIELD_KAPPA">      0.00000000</i>
   <v name="OFIELD_K">      0.00000000      0.00000000      0.00000000</v>
   <i name="OFIELD_Q6_NEAR">      0.00000000</i>
   <i name="OFIELD_Q6_FAR">      0.00000000</i>
   <i name="OFIELD_A">      0.00000000</i>
  </separator>
 </parameters>
 <atominfo>
  <atoms>      10 </atoms>
  <types>       3 </types>
  <array name="atoms" >
   <dimension dim="1">ion</dimension>
   <field type="string">element</field>
   <field type="int">atomtype</field>
   <set>
    <rc><c>B </c><c>   1</c></rc>
    <rc><c>B </c><c>   1</c></rc>
    <rc><c>Mo</c><c>   2</c></rc>
    <rc><c>Mo</c><c>   2</c></rc>
    <rc><c>Mo</c><c>   2</c></rc>
    <rc><c>Mo</c><c>   2</c></rc>
    <rc><c>Si</c><c>   3</c></rc>
    <rc><c>Si</c><c>   3</c></rc>
    <rc><c>Si</c><c>   3</c></rc>
    <rc><c>Si</c><c>   3</c></rc>
   </set>
  </array>
  <array name="atomtypes" >
   <dimension dim="1">type</dimension>
   <field type="int">atomspertype</field>
   <field type="string">element</field>
   <field>mass</field>
   <field>valence</field>
   <field type="string">pseudopotential</field>
   <set>
    <rc><c>   2</c><c>B </c><c>     10.81100000</c><c>      3.00000000</c><c>  PAW_PBE B 06Sep2000                   </c></rc>
    <rc><c>   4</c><c>Mo</c><c>     95.94000000</c><c>     14.00000000</c><c>  PAW_PBE Mo_sv 02Feb2006               </c></rc>
    <rc><c>   4</c><c>Si</c><c>     28.08500000</c><c>      4.00000000</c><c>  PAW_PBE Si 05Jan2001                  </c></rc>
   </set>
  </array>
 </atominfo>
 <structure name="initialpos" >
  <crystal>
   <varray name="basis" >
    <v>       5.73767690       0.00000000      -3.16919728 </v>
    <v>      -1.99758461       5.37871657      -3.16919728 </v>
    <v>       0.00000000       0.00000000       6.55475000 </v>
   </varray>
   <i name="volume">    202.28835386 </i>
   <varray name="rec_basis" >
    <v>       0.17428657       0.06472774       0.00000000 </v>
    <v>       0.00000000       0.18591796       0.00000000 </v>
    <v>       0.08426691       0.12118626       0.15256112 </v>
   </varray>
  </crystal>
  <varray name="positions" >
   <v>       0.25000000       0.25000000       0.00000000 </v>
   <v>       0.75000000       0.75000000       0.00000000 </v>
   <v>       0.00000000       0.00000000       0.00000000 </v>
   <v>       0.50000000       0.00000000       0.50000000 </v>
   <v>       0.00000000       0.50000000       0.50000000 </v>
   <v>       0.50000000       0.50000000       0.00000000 </v>
   <v>       0.74502000       0.24502000       0.99003000 </v>
   <v>       0.25498000       0.75498000       0.00997000 </v>
   <v>       0.24502000       0.25498000       0.50000000 </v>
   <v>       0.75498000       0.74502000       0.50000000 </v>
  </varray>
 </structure>
 <calculation>
  <scstep>
   <time name="total">   24.84   25.06</time>
   <energy>
    <i name="alphaZ">    233.68936523 </i>
    <i name="ewald">  -5075.98326204 </i>
    <i name="hartreedc">  -2584.61102385 </i>
    <i name="XCdc">    299.15595744 </i>
    <i name="pawpsdc">   6361.18088108 </i>
    <i name="pawaedc">  -6305.13563559 </i>
    <i name="eentropy">     -0.00090674 </i>
    <i name="bandstr">   -322.25394344 </i>
    <i name="atom">   8003.73552278 </i>
    <i name="e_fr_energy">    609.77695488 </i>
    <i name="e_wo_entrp">    609.77786162 </i>
    <i name="e_0_energy">    609.77740825 </i>
   </energy>
  </scstep>
  <scstep>
   <time name="total">   23.66   24.17</time>
   <energy>
    <i name="e_fr_energy">   -138.51050539 </i>
    <i name="e_wo_entrp">   -138.50894003 </i>
    <i name="e_0_energy">   -138.50972271 </i>
   </energy>
  </scstep>
  <scstep>
   <time name="total">   26.64   27.28</time>
   <energy>
    <i name="e_fr_energy">   -171.64439343 </i>
    <i name="e_wo_entrp">   -171.64248590 </i>
    <i name="e_0_energy">   -171.64343966 </i>
   </energy>
  </scstep>
  <scstep>
   <time name="total">   25.81   26.41</time>
   <energy>
    <i name="e_fr_energy">   -172.39259693 </i>
    <i name="e_wo_entrp">   -172.39072053 </i>
    <i name="e_0_energy">   -172.39165873 </i>
   </energy>
  </scstep>
  <scstep>
   <time name="total">   28.62   29.21</time>
   <energy>
    <i name="e_fr_energy">   -172.41557452 </i>
    <i name="e_wo_entrp">   -172.41368836 </i>
    <i name="e_0_energy">   -172.41463144 </i>
   </energy>
  </scstep>
  <scstep>
   <time name="total">   29.86   30.23</time>
   <energy>
    <i name="e_fr_energy">   -135.72646181 </i>
    <i name="e_wo_entrp">   -135.72511893 </i>
    <i name="e_0_energy">   -135.72579037 </i>
   </energy>
  </scstep>
  <scstep>
   <time name="total">   32.29   32.69</time>
   <energy>
    <i name="e_fr_energy">   -141.57553586 </i>
    <i name="e_wo_entrp">   -141.57436385 </i>
    <i name="e_0_energy">   -141.57494986 </i>
   </energy>
  </scstep>
  <scstep>
   <time name="total">   33.57   33.81</time>
   <energy>
    <i name="e_fr_energy">   -142.51807785 </i>
    <i name="e_wo_entrp">   -142.51688953 </i>
    <i name="e_0_energy">   -142.51748369 </i>
   </energy>
  </scstep>
  <scstep>
   <time name="total">   32.64   32.98</time>
   <energy>
    <i name="e_fr_energy">   -142.83582001 </i>
    <i name="e_wo_entrp">   -142.83464966 </i>
    <i name="e_0_energy">   -142.83523483 </i>
   </energy>
  </scstep>
  <scstep>
   <time name="total">   32.81   33.21</time>
   <energy>
    <i name="e_fr_energy">   -142.94639996 </i>
    <i name="e_wo_entrp">   -142.94521995 </i>
    <i name="e_0_energy">   -142.94580995 </i>
   </energy>
  </scstep>
  <scstep>
   <time name="total">   32.52   32.77</time>
   <energy>
    <i name="e_fr_energy">   -142.98520199 </i>
    <i name="e_wo_entrp">   -142.98395605 </i>
    <i name="e_0_energy">   -142.98457902 </i>
   </energy>
  </scstep>
  <scstep>
   <time name="total">   31.14   31.39</time>
   <energy>
    <i name="e_fr_energy">   -143.00413425 </i>
    <i name="e_wo_entrp">   -143.00284350 </i>
    <i name="e_0_energy">   -143.00348887 </i>
   </energy>
  </scstep>
  <scstep>
   <time name="total">   32.07   32.53</time>
   <energy>
    <i name="e_fr_energy">   -143.01239212 </i>
    <i name="e_wo_entrp">   -143.01107685 </i>
    <i name="e_0_energy">   -143.01173449 </i>
   </energy>
  </scstep>
  <scstep>
   <time name="total">   32.14   32.45</time>
   <energy>
    <i name="e_fr_energy">   -143.01668098 </i>
    <i name="e_wo_entrp">   -143.01535573 </i>
    <i name="e_0_energy">   -143.01601836 </i>
   </energy>
  </scstep>
  <scstep>
   <time name="total">   34.34   34.65</time>
   <energy>
    <i name="e_fr_energy">   -143.01850712 </i>
    <i name="e_wo_entrp">   -143.01717689 </i>
    <i name="e_0_energy">   -143.01784201 </i>
   </energy>
  </scstep>
  <scstep>
   <time name="total">   32.85   33.34</time>
   <energy>
    <i name="e_fr_energy">   -143.01932477 </i>
    <i name="e_wo_entrp">   -143.01799453 </i>
    <i name="e_0_energy">   -143.01865965 </i>
   </energy>
  </scstep>
  <scstep>
   <time name="total">   31.65   31.94</time>
   <energy>
    <i name="e_fr_energy">   -143.01971985 </i>
    <i name="e_wo_entrp">   -143.01838843 </i>
    <i name="e_0_energy">   -143.01905414 </i>
   </energy>
  </scstep>
  <scstep>
   <time name="total">   31.67   31.90</time>
   <energy>
    <i name="e_fr_energy">   -143.01989184 </i>
    <i name="e_wo_entrp">   -143.01856149 </i>
    <i name="e_0_energy">   -143.01922666 </i>
   </energy>
  </scstep>
  <scstep>
   <time name="total">   29.38   29.95</time>
   <energy>
    <i name="e_fr_energy">   -143.01997241 </i>
    <i name="e_wo_entrp">   -143.01864202 </i>
    <i name="e_0_energy">   -143.01930722 </i>
   </energy>
  </scstep>
  <scstep>
   <time name="total">   31.17   31.58</time>
   <energy>
    <i name="e_fr_energy">   -143.02000878 </i>
    <i name="e_wo_entrp">   -143.01867901 </i>
    <i name="e_0_energy">   -143.01934390 </i>
   </energy>
  </scstep>
  <scstep>
   <time name="total">   31.72   32.01</time>
   <energy>
    <i name="e_fr_energy">   -143.02002506 </i>
    <i name="e_wo_entrp">   -143.01869538 </i>
    <i name="e_0_energy">   -143.01936022 </i>
   </energy>
  </scstep>
  <scstep>
   <time name="total">   31.00   31.47</time>
   <energy>
    <i name="e_fr_energy">   -143.02003235 </i>
    <i name="e_wo_entrp">   -143.01870301 </i>
    <i name="e_0_energy">   -143.01936768 </i>
   </energy>
  </scstep>
  <scstep>
   <time name="total">   31.74   31.99</time>
   <energy>
    <i name="e_fr_energy">   -143.02003561 </i>
    <i name="e_wo_entrp">   -143.01870628 </i>
    <i name="e_0_energy">   -143.01937094 </i>
   </energy>
  </scstep>
  <scstep>
   <time name="total">   31.78   32.04</time>
   <energy>
    <i name="e_fr_energy">   -143.02003715 </i>
    <i name="e_wo_entrp">   -143.01870799 </i>
    <i name="e_0_energy">   -143.01937257 </i>
   </energy>
  </scstep>
  <scstep>
   <time name="total">   32.60   32.98</time>
   <energy>
    <i name="e_fr_energy">   -143.02003785 </i>
    <i name="e_wo_entrp">   -143.01870864 </i>
    <i name="e_0_energy">   -143.01937325 </i>
   </energy>
  </scstep>
  <scstep>
   <time name="total">   33.03   33.49</time>
   <energy>
    <i name="e_fr_energy">   -143.02003829 </i>
    <i name="e_wo_entrp">   -143.01870911 </i>
    <i name="e_0_energy">   -143.01937370 </i>
   </energy>
  </scstep>
  <scstep>
   <time name="total">   31.81   32.11</time>
   <energy>
    <i name="e_fr_energy">   -143.02003845 </i>
    <i name="e_wo_entrp">   -143.01870922 </i>
    <i name="e_0_energy">   -143.01937383 </i>
   </energy>
  </scstep>
  <scstep>
   <time name="total">   31.29   31.84</time>
   <energy>
    <i name="e_fr_energy">   -143.02003856 </i>
    <i name="e_wo_entrp">   -143.01870934 </i>
    <i name="e_0_energy">   -143.01937395 </i>
   </energy>
  </scstep>
  <scstep>
   <time name="total">   32.29   32.98</time>
   <energy>
    <i name="e_fr_energy">   -143.02003860 </i>
    <i name="e_wo_entrp">   -143.01870936 </i>
    <i name="e_0_energy">   -143.01937398 </i>
   </energy>
  </scstep>
  <scstep>
   <time name="total">   31.48   31.73</time>
   <energy>
    <i name="e_fr_energy">   -143.02003863 </i>
    <i name="e_wo_entrp">   -143.01870938 </i>
    <i name="e_0_energy">   -143.01937400 </i>
   </energy>
  </scstep>
  <scstep>
   <time name="total">   30.60   30.93</time>
   <energy>
    <i name="e_fr_energy">   -143.02003864 </i>
    <i name="e_wo_entrp">   -143.01870939 </i>
    <i name="e_0_energy">   -143.01937401 </i>
   </energy>
  </scstep>
  <scstep>
   <time name="total">   30.21   30.45</time>
   <energy>
    <i name="e_fr_energy">   -143.02003865 </i>
    <i name="e_wo_entrp">   -143.01870940 </i>
    <i name="e_0_energy">   -143.01937402 </i>
   </energy>
  </scstep>
  <scstep>
   <time name="total">   33.89   34.28</time>
   <energy>
    <i name="e_fr_energy">   -143.02003865 </i>
    <i name="e_wo_entrp">   -143.01870940 </i>
    <i name="e_0_energy">   -143.01937403 </i>
   </energy>
  </scstep>
  <scstep>
   <time name="total">   38.48   38.96</time>
   <energy>
    <i name="alphaZ">    233.68936523 </i>
    <i name="ewald">  -5075.98326204 </i>
    <i name="hartreedc">  -2542.40964017 </i>
    <i name="XCdc">    307.37557910 </i>
    <i name="pawpsdc">   9827.25736153 </i>
    <i name="pawaedc">  -9782.12711075 </i>
    <i name="eentropy">     -0.00132925 </i>
    <i name="bandstr">  -1114.55652508 </i>
    <i name="atom">   8003.73552278 </i>
    <i name="e_fr_energy">   -143.02003865 </i>
    <i name="e_wo_entrp">   -143.01870940 </i>
    <i name="e_0_energy">   -143.01937402 </i>
   </energy>
  </scstep>
  <structure>
   <crystal>
    <varray name="basis" >
     <v>       5.73767690       0.00000000      -3.16919728 </v>
     <v>      -1.99758461       5.37871657      -3.16919728 </v>
     <v>       0.00000000       0.00000000       6.55475000 </v>
    </varray>
    <i name="volume">    202.28835386 </i>
    <varray name="rec_basis" >
     <v>       0.17428657       0.06472774       0.00000000 </v>
     <v>       0.00000000       0.18591796       0.00000000 </v>
     <v>       0.08426691       0.12118626       0.15256112 </v>
    </varray>
   </crystal>
   <varray name="positions" >
    <v>       0.25000000       0.25000000       0.00000000 </v>
    <v>       0.75000000       0.75000000       0.00000000 </v>
    <v>       0.00000000       0.00000000       0.00000000 </v>
    <v>       0.50000000       0.00000000       0.50000000 </v>
    <v>       0.00000000       0.50000000       0.50000000 </v>
    <v>       0.50000000       0.50000000       0.00000000 </v>
    <v>       0.74502000       0.24502000       0.99003000 </v>
    <v>       0.25498000       0.75498000       0.00997000 </v>
    <v>       0.24502000       0.25498000       0.50000000 </v>
    <v>       0.75498000       0.74502000       0.50000000 </v>
   </varray>
  </structure>
  <varray name="forces" >
   <v>       0.00000000       0.00000000       0.00000000 </v>
   <v>       0.00000000       0.00000000       0.00000000 </v>
   <v>       0.00000000       0.00000000       0.00000000 </v>
   <v>       0.00000000       0.00000000       0.00000000 </v>
   <v>       0.00000000       0.00000000       0.00000000 </v>
   <v>       0.00000000       0.00000000       0.00000000 </v>
   <v>       0.00000000       0.00000000       0.00000000 </v>
   <v>       0.00000000       0.00000000       0.00000000 </v>
   <v>       0.00000000       0.00000000       0.00000000 </v>
   <v>       0.00000000       0.00000000       0.00000000 </v>
  </varray>
  <varray name="stress" >
   <v>       0.00000000       0.00000000       0.00000000 </v>
   <v>       0.00000000       0.00000000       0.00000000 </v>
   <v>       0.00000000       0.00000000       0.00000000 </v>
  </varray>
  <energy>
   <i name="e_fr_energy">   -143.02003865 </i>
   <i name="e_wo_entrp">   -143.01870940 </i>
   <i name="e_0_energy">   -143.01937402 </i>
  </energy>
  <time name="totalsc"> 1066.34 1079.61</time>
  <eigenvalues>
   <array>
    <dimension dim="1">band</dimension>
    <dimension dim="2">kpoint</dimension>
    <dimension dim="3">spin</dimension>
    <field>eigene</field>
    <field>occ</field>
    <set>
     <set comment="spin 1">
      <set comment="kpoint 1">
       <r>  -57.0386    1.0000 </r>
       <r>  -57.0273    1.0000 </r>
       <r>  -57.0218    1.0000 </r>
       <r>  -57.0119    1.0000 </r>
       <r>  -30.7138    1.0000 </r>
       <r>  -30.7135    1.0000 </r>
       <r>  -30.6761    1.0000 </r>
       <r>  -30.6758    1.0000 </r>
       <r>  -30.5051    1.0000 </r>
       <r>  -30.5050    1.0000 </r>
       <r>  -30.4852    1.0000 </r>
       <r>  -30.4848    1.0000 </r>
       <r>  -30.3697    1.0000 </r>
       <r>  -30.3649    1.0000 </r>
       <r>  -30.3262    1.0000 </r>
       <r>  -30.3188    1.0000 </r>
       <r>   -4.9628    1.0000 </r>
       <r>   -2.9643    1.0000 </r>
       <r>   -1.3541    1.0000 </r>
       <r>   -1.3541    1.0000 </r>
       <r>   -0.8999    1.0000 </r>
       <r>   -0.2395    1.0000 </r>
       <r>   -0.1381    1.0000 </r>
       <r>    0.1895    1.0000 </r>
       <r>    1.2992    1.0000 </r>
       <r>    1.2993    1.0000 </r>
       <r>    1.9053    1.0000 </r>
       <r>    1.9356    1.0000 </r>
       <r>    2.1882    1.0000 </r>
       <r>    2.3967    1.0000 </r>
       <r>    3.2367    1.0000 </r>
       <r>    3.2368    1.0000 </r>
       <r>    3.6244    1.0000 </r>
       <r>    4.1012    1.0000 </r>
       <r>    4.1013    1.0000 </r>
       <r>    4.5757    1.0000 </r>
       <r>    5.0641    1.0000 </r>
       <r>    5.7654    0.0000 </r>
       <r>    5.7661    0.0000 </r>
       <r>    5.8907    0.0000 </r>
       <r>    5.8917    0.0000 </r>
       <r>    6.3523    0.0000 </r>
       <r>    7.2738    0.0000 </r>
       <r>    7.3553    0.0000 </r>
       <r>    7.3554    0.0000 </r>
       <r>    7.5845    0.0000 </r>
       <r>    7.5929    0.0000 </r>
       <r>    7.6484    0.0000 </r>
      </set>
      <set comment="kpoint 2">
       <r>  -57.0379    1.0000 </r>
       <r>  -57.0274    1.0000 </r>
       <r>  -57.0218    1.0000 </r>
       <r>  -57.0125    1.0000 </r>
       <r>  -30.7117    1.0000 </r>
       <r>  -30.7038    1.0000 </r>
       <r>  -30.6775    1.0000 </r>
       <r>  -30.6668    1.0000 </r>
       <r>  -30.5153    1.0000 </r>
       <r>  -30.5049    1.0000 </r>
       <r>  -30.4938    1.0000 </r>
       <r>  -30.4862    1.0000 </r>
       <r>  -30.3692    1.0000 </r>
       <r>  -30.3648    1.0000 </r>
       <r>  -30.3262    1.0000 </r>
       <r>  -30.3194    1.0000 </r>
       <r>   -4.8584    1.0000 </r>
       <r>   -2.9087    1.0000 </r>
       <r>   -1.8401    1.0000 </r>
       <r>   -1.4795    1.0000 </r>
       <r>   -0.8860    1.0000 </r>
       <r>   -0.2480    1.0000 </r>
       <r>    0.1402    1.0000 </r>
       <r>    0.3429    1.0000 </r>
       <r>    1.4045    1.0000 </r>
       <r>    1.4843    1.0000 </r>
       <r>    1.9810    1.0000 </r>
       <r>    2.0378    1.0000 </r>
       <r>    2.2111    1.0000 </r>
       <r>    2.5701    1.0000 </r>
       <r>    2.9634    1.0000 </r>
       <r>    3.1530    1.0000 </r>
       <r>    3.4722    1.0000 </r>
       <r>    3.9514    1.0000 </r>
       <r>    4.1251    1.0000 </r>
       <r>    4.3088    1.0000 </r>
       <r>    5.0785    1.0000 </r>
       <r>    5.5976    0.0000 </r>
       <r>    5.7500    0.0000 </r>
       <r>    5.8450    0.0000 </r>
       <r>    5.8709    0.0000 </r>
       <r>    6.2207    0.0000 </r>
       <r>    7.2166    0.0000 </r>
       <r>    7.4077    0.0000 </r>
       <r>    7.5306    0.0000 </r>
       <r>    7.5939    0.0000 </r>
       <r>    7.6517    0.0000 </r>
       <r>    7.7815    0.0000 </r>
      </set>
      <set comment="kpoint 3">
       <r>  -57.0361    1.0000 </r>
       <r>  -57.0284    1.0000 </r>
       <r>  -57.0210    1.0000 </r>
       <r>  -57.0142    1.0000 </r>
       <r>  -30.7065    1.0000 </r>
       <r>  -30.6858    1.0000 </r>
       <r>  -30.6721    1.0000 </r>
       <r>  -30.6410    1.0000 </r>
       <r>  -30.5442    1.0000 </r>
       <r>  -30.5228    1.0000 </r>
       <r>  -30.5001    1.0000 </r>
       <r>  -30.4890    1.0000 </r>
       <r>  -30.3681    1.0000 </r>
       <r>  -30.3648    1.0000 </r>
       <r>  -30.3258    1.0000 </r>
       <r>  -30.3210    1.0000 </r>
       <r>   -4.5511    1.0000 </r>
       <r>   -2.7664    1.0000 </r>
       <r>   -2.6118    1.0000 </r>
       <r>   -1.7826    1.0000 </r>
       <r>   -0.8414    1.0000 </r>
       <r>   -0.4259    1.0000 </r>
       <r>    0.4398    1.0000 </r>
       <r>    0.9865    1.0000 </r>
       <r>    1.6764    1.0000 </r>
       <r>    1.8517    1.0000 </r>
       <r>    2.0777    1.0000 </r>
       <r>    2.2567    1.0000 </r>
       <r>    2.3324    1.0000 </r>
       <r>    2.4275    1.0000 </r>
       <r>    2.8962    1.0000 </r>
       <r>    3.0569    1.0000 </r>
       <r>    3.1157    1.0000 </r>
       <r>    3.6048    1.0000 </r>
       <r>    3.7451    1.0000 </r>
       <r>    4.0946    1.0000 </r>
       <r>    5.1747    1.0000 </r>
       <r>    5.2307    1.0000 </r>
       <r>    5.5835    0.0000 </r>
       <r>    5.7920    0.0000 </r>
       <r>    5.7978    0.0000 </r>
       <r>    5.9770    0.0000 </r>
       <r>    7.1134    0.0000 </r>
       <r>    7.1411    0.0000 </r>
       <r>    7.5831    0.0000 </r>
       <r>    7.6531    0.0000 </r>
       <r>    7.8770    0.0000 </r>
       <r>    7.9118    0.0000 </r>
      </set>
      <set comment="kpoint 4">
       <r>  -57.0335    1.0000 </r>
       <r>  -57.0305    1.0000 </r>
       <r>  -57.0191    1.0000 </r>
       <r>  -57.0166    1.0000 </r>
       <r>  -30.6992    1.0000 </r>
       <r>  -30.6913    1.0000 </r>
       <r>  -30.6327    1.0000 </r>
       <r>  -30.6043    1.0000 </r>
       <r>  -30.5851    1.0000 </r>
       <r>  -30.5605    1.0000 </r>
       <r>  -30.4968    1.0000 </r>
       <r>  -30.4927    1.0000 </r>
       <r>  -30.3668    1.0000 </r>
       <r>  -30.3650    1.0000 </r>
       <r>  -30.3248    1.0000 </r>
       <r>  -30.3230    1.0000 </r>
       <r>   -4.0577    1.0000 </r>
       <r>   -3.4078    1.0000 </r>
       <r>   -2.4733    1.0000 </r>
       <r>   -2.1415    1.0000 </r>
       <r>   -0.7559    1.0000 </r>
       <r>   -0.6172    1.0000 </r>
       <r>    0.9454    1.0000 </r>
       <r>    1.5738    1.0000 </r>
       <r>    1.5939    1.0000 </r>
       <r>    1.9678    1.0000 </r>
       <r>    2.0708    1.0000 </r>
       <r>    2.2498    1.0000 </r>
       <r>    2.5008    1.0000 </r>
       <r>    2.6315    1.0000 </r>
       <r>    2.6909    1.0000 </r>
       <r>    2.7853    1.0000 </r>
       <r>    3.1534    1.0000 </r>
       <r>    3.2024    1.0000 </r>
       <r>    3.6570    1.0000 </r>
       <r>    4.0023    1.0000 </r>
       <r>    4.9941    1.0000 </r>
       <r>    5.1695    1.0000 </r>
       <r>    5.3930    1.0000 </r>
       <r>    5.6795    0.0000 </r>
       <r>    5.7607    0.0000 </r>
       <r>    5.7662    0.0000 </r>
       <r>    6.9156    0.0000 </r>
       <r>    6.9454    0.0000 </r>
       <r>    7.5841    0.0000 </r>
       <r>    7.5852    0.0000 </r>
       <r>    8.1315    0.0000 </r>
       <r>    8.2724    0.0000 </r>
      </set>
      <set comment="kpoint 5">
       <r>  -57.0373    1.0000 </r>
       <r>  -57.0274    1.0000 </r>
       <r>  -57.0219    1.0000 </r>
       <r>  -57.0131    1.0000 </r>
       <r>  -30.7021    1.0000 </r>
       <r>  -30.7017    1.0000 </r>
       <r>  -30.6691    1.0000 </r>
       <r>  -30.6677    1.0000 </r>
       <r>  -30.5156    1.0000 </r>
       <r>  -30.5136    1.0000 </r>
       <r>  -30.4957    1.0000 </r>
       <r>  -30.4953    1.0000 </r>
       <r>  -30.3690    1.0000 </r>
       <r>  -30.3645    1.0000 </r>
       <r>  -30.3261    1.0000 </r>
       <r>  -30.3201    1.0000 </r>
       <r>   -4.7243    1.0000 </r>
       <r>   -2.8521    1.0000 </r>
       <r>   -1.9706    1.0000 </r>
       <r>   -1.8947    1.0000 </r>
       <r>   -0.8472    1.0000 </r>
       <r>   -0.3878    1.0000 </r>
       <r>    0.3387    1.0000 </r>
       <r>    0.4808    1.0000 </r>
       <r>    1.5548    1.0000 </r>
       <r>    1.7122    1.0000 </r>
       <r>    2.0620    1.0000 </r>
       <r>    2.1267    1.0000 </r>
       <r>    2.2511    1.0000 </r>
       <r>    2.6925    1.0000 </r>
       <r>    3.0389    1.0000 </r>
       <r>    3.1357    1.0000 </r>
       <r>    3.2290    1.0000 </r>
       <r>    3.7317    1.0000 </r>
       <r>    4.0414    1.0000 </r>
       <r>    4.0592    1.0000 </r>
       <r>    5.2091    1.0000 </r>
       <r>    5.5308    0.0038 </r>
       <r>    5.5778    0.0000 </r>
       <r>    5.7209    0.0000 </r>
       <r>    5.7813    0.0000 </r>
       <r>    6.0401    0.0000 </r>
       <r>    7.4111    0.0000 </r>
       <r>    7.4452    0.0000 </r>
       <r>    7.4590    0.0000 </r>
       <r>    7.5314    0.0000 </r>
       <r>    7.5806    0.0000 </r>
       <r>    7.7774    0.0000 </r>
      </set>
      <set comment="kpoint 6">
       <r>  -57.0355    1.0000 </r>
       <r>  -57.0280    1.0000 </r>
       <r>  -57.0214    1.0000 </r>
       <r>  -57.0148    1.0000 </r>
       <r>  -30.6967    1.0000 </r>
       <r>  -30.6785    1.0000 </r>
       <r>  -30.6685    1.0000 </r>
       <r>  -30.6425    1.0000 </r>
       <r>  -30.5433    1.0000 </r>
       <r>  -30.5243    1.0000 </r>
       <r>  -30.5097    1.0000 </r>
       <r>  -30.4986    1.0000 </r>
       <r>  -30.3680    1.0000 </r>
       <r>  -30.3642    1.0000 </r>
       <r>  -30.3257    1.0000 </r>
       <r>  -30.3217    1.0000 </r>
       <r>   -4.3962    1.0000 </r>
       <r>   -2.7527    1.0000 </r>
       <r>   -2.6534    1.0000 </r>
       <r>   -2.0916    1.0000 </r>
       <r>   -0.7707    1.0000 </r>
       <r>   -0.5708    1.0000 </r>
       <r>    0.6241    1.0000 </r>
       <r>    0.9662    1.0000 </r>
       <r>    1.8529    1.0000 </r>
       <r>    2.0327    1.0000 </r>
       <r>    2.1180    1.0000 </r>
       <r>    2.1967    1.0000 </r>
       <r>    2.3589    1.0000 </r>
       <r>    2.4587    1.0000 </r>
       <r>    2.8700    1.0000 </r>
       <r>    2.9035    1.0000 </r>
       <r>    3.3613    1.0000 </r>
       <r>    3.4875    1.0000 </r>
       <r>    3.6736    1.0000 </r>
       <r>    3.9277    1.0000 </r>
       <r>    5.2179    1.0000 </r>
       <r>    5.2635    1.0000 </r>
       <r>    5.3894    1.0000 </r>
       <r>    5.5865    0.0000 </r>
       <r>    5.6449    0.0000 </r>
       <r>    5.8438    0.0000 </r>
       <r>    7.1734    0.0000 </r>
       <r>    7.4746    0.0000 </r>
       <r>    7.5333    0.0000 </r>
       <r>    7.5742    0.0000 </r>
       <r>    7.8087    0.0000 </r>
       <r>    7.9543    0.0000 </r>
      </set>
      <set comment="kpoint 7">
       <r>  -57.0329    1.0000 </r>
       <r>  -57.0300    1.0000 </r>
       <r>  -57.0197    1.0000 </r>
       <r>  -57.0172    1.0000 </r>
       <r>  -30.6896    1.0000 </r>
       <r>  -30.6817    1.0000 </r>
       <r>  -30.6314    1.0000 </r>
       <r>  -30.6055    1.0000 </r>
       <r>  -30.5840    1.0000 </r>
       <r>  -30.5618    1.0000 </r>
       <r>  -30.5068    1.0000 </r>
       <r>  -30.5026    1.0000 </r>
       <r>  -30.3668    1.0000 </r>
       <r>  -30.3644    1.0000 </r>
       <r>  -30.3248    1.0000 </r>
       <r>  -30.3237    1.0000 </r>
       <r>   -3.8966    1.0000 </r>
       <r>   -3.4440    1.0000 </r>
       <r>   -2.4736    1.0000 </r>
       <r>   -2.3104    1.0000 </r>
       <r>   -0.7322    1.0000 </r>
       <r>   -0.6424    1.0000 </r>
       <r>    1.0104    1.0000 </r>
       <r>    1.5420    1.0000 </r>
       <r>    1.5545    1.0000 </r>
       <r>    2.0296    1.0000 </r>
       <r>    2.2539    1.0000 </r>
       <r>    2.3467    1.0000 </r>
       <r>    2.4443    1.0000 </r>
       <r>    2.5423    1.0000 </r>
       <r>    2.6153    1.0000 </r>
       <r>    2.8169    1.0000 </r>
       <r>    2.9590    1.0000 </r>
       <r>    3.0938    1.0000 </r>
       <r>    3.6816    1.0000 </r>
       <r>    4.1898    1.0000 </r>
       <r>    4.8434    1.0000 </r>
       <r>    5.1140    1.0000 </r>
       <r>    5.4305    1.0000 </r>
       <r>    5.5077    0.1489 </r>
       <r>    5.6806    0.0000 </r>
       <r>    5.7389    0.0000 </r>
       <r>    6.9957    0.0000 </r>
       <r>    7.2778    0.0000 </r>
       <r>    7.5832    0.0000 </r>
       <r>    7.6278    0.0000 </r>
       <r>    8.0961    0.0000 </r>
       <r>    8.2866    0.0000 </r>
      </set>
      <set comment="kpoint 8">
       <r>  -57.0329    1.0000 </r>
       <r>  -57.0300    1.0000 </r>
       <r>  -57.0197    1.0000 </r>
       <r>  -57.0171    1.0000 </r>
       <r>  -30.6894    1.0000 </r>
       <r>  -30.6819    1.0000 </r>
       <r>  -30.6312    1.0000 </r>
       <r>  -30.6056    1.0000 </r>
       <r>  -30.5841    1.0000 </r>
       <r>  -30.5617    1.0000 </r>
       <r>  -30.5069    1.0000 </r>
       <r>  -30.5025    1.0000 </r>
       <r>  -30.3663    1.0000 </r>
       <r>  -30.3649    1.0000 </r>
       <r>  -30.3253    1.0000 </r>
       <r>  -30.3232    1.0000 </r>
       <r>   -4.0610    1.0000 </r>
       <r>   -3.2634    1.0000 </r>
       <r>   -2.5390    1.0000 </r>
       <r>   -2.2144    1.0000 </r>
       <r>   -0.8319    1.0000 </r>
       <r>   -0.4500    1.0000 </r>
       <r>    0.9778    1.0000 </r>
       <r>    1.5382    1.0000 </r>
       <r>    1.6017    1.0000 </r>
       <r>    1.8751    1.0000 </r>
       <r>    1.9985    1.0000 </r>
       <r>    2.2162    1.0000 </r>
       <r>    2.6017    1.0000 </r>
       <r>    2.6550    1.0000 </r>
       <r>    2.7644    1.0000 </r>
       <r>    2.8972    1.0000 </r>
       <r>    2.9511    1.0000 </r>
       <r>    3.1739    1.0000 </r>
       <r>    3.1985    1.0000 </r>
       <r>    4.3025    1.0000 </r>
       <r>    4.8364    1.0000 </r>
       <r>    5.1217    1.0000 </r>
       <r>    5.4139    1.0000 </r>
       <r>    5.5229    0.0172 </r>
       <r>    5.8655    0.0000 </r>
       <r>    5.9222    0.0000 </r>
       <r>    7.0125    0.0000 </r>
       <r>    7.1526    0.0000 </r>
       <r>    7.5950    0.0000 </r>
       <r>    7.6247    0.0000 </r>
       <r>    8.0735    0.0000 </r>
       <r>    8.2364    0.0000 </r>
      </set>
      <set comment="kpoint 9">
       <r>  -57.0355    1.0000 </r>
       <r>  -57.0280    1.0000 </r>
       <r>  -57.0215    1.0000 </r>
       <r>  -57.0148    1.0000 </r>
       <r>  -30.6966    1.0000 </r>
       <r>  -30.6785    1.0000 </r>
       <r>  -30.6685    1.0000 </r>
       <r>  -30.6426    1.0000 </r>
       <r>  -30.5434    1.0000 </r>
       <r>  -30.5243    1.0000 </r>
       <r>  -30.5098    1.0000 </r>
       <r>  -30.4985    1.0000 </r>
       <r>  -30.3673    1.0000 </r>
       <r>  -30.3649    1.0000 </r>
       <r>  -30.3261    1.0000 </r>
       <r>  -30.3213    1.0000 </r>
       <r>   -4.5183    1.0000 </r>
       <r>   -2.7534    1.0000 </r>
       <r>   -2.5308    1.0000 </r>
       <r>   -1.9808    1.0000 </r>
       <r>   -0.8812    1.0000 </r>
       <r>   -0.1999    1.0000 </r>
       <r>    0.5491    1.0000 </r>
       <r>    1.0017    1.0000 </r>
       <r>    1.5215    1.0000 </r>
       <r>    1.9287    1.0000 </r>
       <r>    2.0925    1.0000 </r>
       <r>    2.1742    1.0000 </r>
       <r>    2.3564    1.0000 </r>
       <r>    2.4365    1.0000 </r>
       <r>    2.6133    1.0000 </r>
       <r>    2.9740    1.0000 </r>
       <r>    3.2765    1.0000 </r>
       <r>    3.4735    1.0000 </r>
       <r>    3.6001    1.0000 </r>
       <r>    4.2694    1.0000 </r>
       <r>    4.9540    1.0000 </r>
       <r>    5.1636    1.0000 </r>
       <r>    5.5065    0.1698 </r>
       <r>    5.6570    0.0000 </r>
       <r>    6.0726    0.0000 </r>
       <r>    6.1593    0.0000 </r>
       <r>    7.0638    0.0000 </r>
       <r>    7.2728    0.0000 </r>
       <r>    7.5348    0.0000 </r>
       <r>    7.6076    0.0000 </r>
       <r>    8.0273    0.0000 </r>
       <r>    8.1156    0.0000 </r>
      </set>
      <set comment="kpoint 10">
       <r>  -57.0373    1.0000 </r>
       <r>  -57.0274    1.0000 </r>
       <r>  -57.0219    1.0000 </r>
       <r>  -57.0131    1.0000 </r>
       <r>  -30.7019    1.0000 </r>
       <r>  -30.7017    1.0000 </r>
       <r>  -30.6695    1.0000 </r>
       <r>  -30.6673    1.0000 </r>
       <r>  -30.5155    1.0000 </r>
       <r>  -30.5138    1.0000 </r>
       <r>  -30.4956    1.0000 </r>
       <r>  -30.4952    1.0000 </r>
       <r>  -30.3686    1.0000 </r>
       <r>  -30.3649    1.0000 </r>
       <r>  -30.3263    1.0000 </r>
       <r>  -30.3199    1.0000 </r>
       <r>   -4.7889    1.0000 </r>
       <r>   -2.8702    1.0000 </r>
       <r>   -1.8586    1.0000 </r>
       <r>   -1.8349    1.0000 </r>
       <r>   -0.8968    1.0000 </r>
       <r>    0.0291    1.0000 </r>
       <r>    0.2931    1.0000 </r>
       <r>    0.3667    1.0000 </r>
       <r>    1.3547    1.0000 </r>
       <r>    1.6194    1.0000 </r>
       <r>    2.0527    1.0000 </r>
       <r>    2.1244    1.0000 </r>
       <r>    2.2459    1.0000 </r>
       <r>    2.3941    1.0000 </r>
       <r>    2.7076    1.0000 </r>
       <r>    3.1418    1.0000 </r>
       <r>    3.4983    1.0000 </r>
       <r>    3.9072    1.0000 </r>
       <r>    4.0342    1.0000 </r>
       <r>    4.1736    1.0000 </r>
       <r>    4.9719    1.0000 </r>
       <r>    5.5421    0.0003 </r>
       <r>    5.5902    0.0000 </r>
       <r>    5.7707    0.0000 </r>
       <r>    6.0348    0.0000 </r>
       <r>    6.2987    0.0000 </r>
       <r>    7.1462    0.0000 </r>
       <r>    7.4069    0.0000 </r>
       <r>    7.4400    0.0000 </r>
       <r>    7.6006    0.0000 </r>
       <r>    7.8788    0.0000 </r>
       <r>    7.9737    0.0000 </r>
      </set>
      <set comment="kpoint 11">
       <r>  -57.0337    1.0000 </r>
       <r>  -57.0275    1.0000 </r>
       <r>  -57.0220    1.0000 </r>
       <r>  -57.0165    1.0000 </r>
       <r>  -30.6699    1.0000 </r>
       <r>  -30.6690    1.0000 </r>
       <r>  -30.6491    1.0000 </r>
       <r>  -30.6439    1.0000 </r>
       <r>  -30.5439    1.0000 </r>
       <r>  -30.5380    1.0000 </r>
       <r>  -30.5252    1.0000 </r>
       <r>  -30.5246    1.0000 </r>
       <r>  -30.3673    1.0000 </r>
       <r>  -30.3636    1.0000 </r>
       <r>  -30.3257    1.0000 </r>
       <r>  -30.3232    1.0000 </r>
       <r>   -4.0690    1.0000 </r>
       <r>   -2.8139    1.0000 </r>
       <r>   -2.6704    1.0000 </r>
       <r>   -2.5619    1.0000 </r>
       <r>   -0.6639    1.0000 </r>
       <r>   -0.6539    1.0000 </r>
       <r>    0.9765    1.0000 </r>
       <r>    1.0501    1.0000 </r>
       <r>    1.7998    1.0000 </r>
       <r>    2.1556    1.0000 </r>
       <r>    2.2150    1.0000 </r>
       <r>    2.3209    1.0000 </r>
       <r>    2.5129    1.0000 </r>
       <r>    2.5853    1.0000 </r>
       <r>    2.5989    1.0000 </r>
       <r>    2.8147    1.0000 </r>
       <r>    2.9349    1.0000 </r>
       <r>    3.0108    1.0000 </r>
       <r>    3.7792    1.0000 </r>
       <r>    4.2840    1.0000 </r>
       <r>    4.8542    1.0000 </r>
       <r>    5.1081    1.0000 </r>
       <r>    5.1534    1.0000 </r>
       <r>    5.6069    0.0000 </r>
       <r>    5.6264    0.0000 </r>
       <r>    5.6652    0.0000 </r>
       <r>    7.2044    0.0000 </r>
       <r>    7.5059    0.0000 </r>
       <r>    7.7202    0.0000 </r>
       <r>    8.0244    0.0000 </r>
       <r>    8.0886    0.0000 </r>
       <r>    8.3067    0.0000 </r>
      </set>
      <set comment="kpoint 12">
       <r>  -57.0313    1.0000 </r>
       <r>  -57.0286    1.0000 </r>
       <r>  -57.0211    1.0000 </r>
       <r>  -57.0188    1.0000 </r>
       <r>  -30.6624    1.0000 </r>
       <r>  -30.6552    1.0000 </r>
       <r>  -30.6273    1.0000 </r>
       <r>  -30.6090    1.0000 </r>
       <r>  -30.5811    1.0000 </r>
       <r>  -30.5655    1.0000 </r>
       <r>  -30.5343    1.0000 </r>
       <r>  -30.5300    1.0000 </r>
       <r>  -30.3663    1.0000 </r>
       <r>  -30.3634    1.0000 </r>
       <r>  -30.3252    1.0000 </r>
       <r>  -30.3249    1.0000 </r>
       <r>   -3.6016    1.0000 </r>
       <r>   -3.3709    1.0000 </r>
       <r>   -2.6862    1.0000 </r>
       <r>   -2.5203    1.0000 </r>
       <r>   -0.7596    1.0000 </r>
       <r>   -0.5169    1.0000 </r>
       <r>    1.1735    1.0000 </r>
       <r>    1.4413    1.0000 </r>
       <r>    1.5315    1.0000 </r>
       <r>    2.0461    1.0000 </r>
       <r>    2.1439    1.0000 </r>
       <r>    2.4288    1.0000 </r>
       <r>    2.4892    1.0000 </r>
       <r>    2.5229    1.0000 </r>
       <r>    2.5600    1.0000 </r>
       <r>    2.7783    1.0000 </r>
       <r>    2.8909    1.0000 </r>
       <r>    2.9393    1.0000 </r>
       <r>    3.5104    1.0000 </r>
       <r>    4.4640    1.0000 </r>
       <r>    4.5668    1.0000 </r>
       <r>    4.9716    1.0000 </r>
       <r>    5.0241    1.0000 </r>
       <r>    5.3540    1.0000 </r>
       <r>    5.9041    0.0000 </r>
       <r>    5.9119    0.0000 </r>
       <r>    7.0968    0.0000 </r>
       <r>    7.6083    0.0000 </r>
       <r>    7.8233    0.0000 </r>
       <r>    7.9815    0.0000 </r>
       <r>    8.0995    0.0000 </r>
       <r>    8.3667    0.0000 </r>
      </set>
      <set comment="kpoint 13">
       <r>  -57.0313    1.0000 </r>
       <r>  -57.0285    1.0000 </r>
       <r>  -57.0211    1.0000 </r>
       <r>  -57.0188    1.0000 </r>
       <r>  -30.6621    1.0000 </r>
       <r>  -30.6555    1.0000 </r>
       <r>  -30.6270    1.0000 </r>
       <r>  -30.6092    1.0000 </r>
       <r>  -30.5813    1.0000 </r>
       <r>  -30.5654    1.0000 </r>
       <r>  -30.5345    1.0000 </r>
       <r>  -30.5297    1.0000 </r>
       <r>  -30.3657    1.0000 </r>
       <r>  -30.3640    1.0000 </r>
       <r>  -30.3260    1.0000 </r>
       <r>  -30.3240    1.0000 </r>
       <r>   -3.9044    1.0000 </r>
       <r>   -3.0466    1.0000 </r>
       <r>   -2.6882    1.0000 </r>
       <r>   -2.4596    1.0000 </r>
       <r>   -0.8469    1.0000 </r>
       <r>   -0.3446    1.0000 </r>
       <r>    1.1401    1.0000 </r>
       <r>    1.4511    1.0000 </r>
       <r>    1.5671    1.0000 </r>
       <r>    1.6743    1.0000 </r>
       <r>    2.0712    1.0000 </r>
       <r>    2.3600    1.0000 </r>
       <r>    2.4978    1.0000 </r>
       <r>    2.5680    1.0000 </r>
       <r>    2.7351    1.0000 </r>
       <r>    2.7533    1.0000 </r>
       <r>    2.9544    1.0000 </r>
       <r>    3.0909    1.0000 </r>
       <r>    3.2514    1.0000 </r>
       <r>    4.4989    1.0000 </r>
       <r>    4.6270    1.0000 </r>
       <r>    4.8077    1.0000 </r>
       <r>    5.0097    1.0000 </r>
       <r>    5.3335    1.0000 </r>
       <r>    6.1181    0.0000 </r>
       <r>    6.2960    0.0000 </r>
       <r>    7.0125    0.0000 </r>
       <r>    7.5481    0.0000 </r>
       <r>    7.6501    0.0000 </r>
       <r>    7.8100    0.0000 </r>
       <r>    8.1522    0.0000 </r>
       <r>    8.2338    0.0000 </r>
      </set>
      <set comment="kpoint 14">
       <r>  -57.0337    1.0000 </r>
       <r>  -57.0275    1.0000 </r>
       <r>  -57.0221    1.0000 </r>
       <r>  -57.0165    1.0000 </r>
       <r>  -30.6693    1.0000 </r>
       <r>  -30.6691    1.0000 </r>
       <r>  -30.6498    1.0000 </r>
       <r>  -30.6436    1.0000 </r>
       <r>  -30.5439    1.0000 </r>
       <r>  -30.5385    1.0000 </r>
       <r>  -30.5250    1.0000 </r>
       <r>  -30.5244    1.0000 </r>
       <r>  -30.3662    1.0000 </r>
       <r>  -30.3647    1.0000 </r>
       <r>  -30.3264    1.0000 </r>
       <r>  -30.3225    1.0000 </r>
       <r>   -4.2979    1.0000 </r>
       <r>   -2.7236    1.0000 </r>
       <r>   -2.4809    1.0000 </r>
       <r>   -2.4453    1.0000 </r>
       <r>   -0.8867    1.0000 </r>
       <r>   -0.2031    1.0000 </r>
       <r>    0.9754    1.0000 </r>
       <r>    1.0307    1.0000 </r>
       <r>    1.4904    1.0000 </r>
       <r>    1.8033    1.0000 </r>
       <r>    2.2104    1.0000 </r>
       <r>    2.3200    1.0000 </r>
       <r>    2.3771    1.0000 </r>
       <r>    2.5373    1.0000 </r>
       <r>    2.5455    1.0000 </r>
       <r>    2.9063    1.0000 </r>
       <r>    2.9097    1.0000 </r>
       <r>    3.2737    1.0000 </r>
       <r>    3.5570    1.0000 </r>
       <r>    4.3792    1.0000 </r>
       <r>    4.7640    1.0000 </r>
       <r>    5.0366    1.0000 </r>
       <r>    5.0898    1.0000 </r>
       <r>    5.4850    0.7129 </r>
       <r>    6.2113    0.0000 </r>
       <r>    6.3645    0.0000 </r>
       <r>    6.9944    0.0000 </r>
       <r>    7.4430    0.0000 </r>
       <r>    7.4824    0.0000 </r>
       <r>    7.7675    0.0000 </r>
       <r>    7.8860    0.0000 </r>
       <r>    8.3259    0.0000 </r>
      </set>
      <set comment="kpoint 15">
       <r>  -57.0293    1.0000 </r>
       <r>  -57.0274    1.0000 </r>
       <r>  -57.0221    1.0000 </r>
       <r>  -57.0209    1.0000 </r>
       <r>  -30.6259    1.0000 </r>
       <r>  -30.6230    1.0000 </r>
       <r>  -30.6177    1.0000 </r>
       <r>  -30.6097    1.0000 </r>
       <r>  -30.5825    1.0000 </r>
       <r>  -30.5749    1.0000 </r>
       <r>  -30.5663    1.0000 </r>
       <r>  -30.5659    1.0000 </r>
       <r>  -30.3657    1.0000 </r>
       <r>  -30.3628    1.0000 </r>
       <r>  -30.3260    1.0000 </r>
       <r>  -30.3253    1.0000 </r>
       <r>   -3.3007    1.0000 </r>
       <r>   -3.2197    1.0000 </r>
       <r>   -3.0279    1.0000 </r>
       <r>   -2.6332    1.0000 </r>
       <r>   -0.7733    1.0000 </r>
       <r>   -0.4037    1.0000 </r>
       <r>    1.3921    1.0000 </r>
       <r>    1.4157    1.0000 </r>
       <r>    1.5227    1.0000 </r>
       <r>    1.7555    1.0000 </r>
       <r>    1.8702    1.0000 </r>
       <r>    2.4020    1.0000 </r>
       <r>    2.4283    1.0000 </r>
       <r>    2.5222    1.0000 </r>
       <r>    2.5882    1.0000 </r>
       <r>    2.8383    1.0000 </r>
       <r>    3.0375    1.0000 </r>
       <r>    3.0943    1.0000 </r>
       <r>    3.5156    1.0000 </r>
       <r>    4.0221    1.0000 </r>
       <r>    4.7091    1.0000 </r>
       <r>    4.7572    1.0000 </r>
       <r>    4.7986    1.0000 </r>
       <r>    5.0877    1.0000 </r>
       <r>    6.1272    0.0000 </r>
       <r>    6.3750    0.0000 </r>
       <r>    6.9996    0.0000 </r>
       <r>    7.5658    0.0000 </r>
       <r>    7.8561    0.0000 </r>
       <r>    8.3773    0.0000 </r>
       <r>    8.4302    0.0000 </r>
       <r>    8.8673    0.0000 </r>
      </set>
      <set comment="kpoint 16">
       <r>  -57.0293    1.0000 </r>
       <r>  -57.0273    1.0000 </r>
       <r>  -57.0222    1.0000 </r>
       <r>  -57.0209    1.0000 </r>
       <r>  -30.6250    1.0000 </r>
       <r>  -30.6233    1.0000 </r>
       <r>  -30.6184    1.0000 </r>
       <r>  -30.6095    1.0000 </r>
       <r>  -30.5822    1.0000 </r>
       <r>  -30.5757    1.0000 </r>
       <r>  -30.5667    1.0000 </r>
       <r>  -30.5651    1.0000 </r>
       <r>  -30.3654    1.0000 </r>
       <r>  -30.3630    1.0000 </r>
       <r>  -30.3264    1.0000 </r>
       <r>  -30.3249    1.0000 </r>
       <r>   -3.6101    1.0000 </r>
       <r>   -2.9022    1.0000 </r>
       <r>   -2.8276    1.0000 </r>
       <r>   -2.8005    1.0000 </r>
       <r>   -0.8118    1.0000 </r>
       <r>   -0.3359    1.0000 </r>
       <r>    1.4164    1.0000 </r>
       <r>    1.4259    1.0000 </r>
       <r>    1.4759    1.0000 </r>
       <r>    1.6136    1.0000 </r>
       <r>    1.8742    1.0000 </r>
       <r>    2.3447    1.0000 </r>
       <r>    2.3884    1.0000 </r>
       <r>    2.6439    1.0000 </r>
       <r>    2.6820    1.0000 </r>
       <r>    2.6994    1.0000 </r>
       <r>    3.1337    1.0000 </r>
       <r>    3.1767    1.0000 </r>
       <r>    3.3226    1.0000 </r>
       <r>    4.2009    1.0000 </r>
       <r>    4.5885    1.0000 </r>
       <r>    4.6973    1.0000 </r>
       <r>    4.7779    1.0000 </r>
       <r>    5.1265    1.0000 </r>
       <r>    6.2114    0.0000 </r>
       <r>    6.5753    0.0000 </r>
       <r>    6.9481    0.0000 </r>
       <r>    7.5135    0.0000 </r>
       <r>    7.8377    0.0000 </r>
       <r>    8.2759    0.0000 </r>
       <r>    8.3729    0.0000 </r>
       <r>    8.6525    0.0000 </r>
      </set>
      <set comment="kpoint 17">
       <r>  -57.0376    1.0000 </r>
       <r>  -57.0273    1.0000 </r>
       <r>  -57.0219    1.0000 </r>
       <r>  -57.0129    1.0000 </r>
       <r>  -30.7047    1.0000 </r>
       <r>  -30.7043    1.0000 </r>
       <r>  -30.6707    1.0000 </r>
       <r>  -30.6697    1.0000 </r>
       <r>  -30.5132    1.0000 </r>
       <r>  -30.5116    1.0000 </r>
       <r>  -30.4933    1.0000 </r>
       <r>  -30.4928    1.0000 </r>
       <r>  -30.3688    1.0000 </r>
       <r>  -30.3649    1.0000 </r>
       <r>  -30.3263    1.0000 </r>
       <r>  -30.3197    1.0000 </r>
       <r>   -4.8292    1.0000 </r>
       <r>   -2.8905    1.0000 </r>
       <r>   -1.7714    1.0000 </r>
       <r>   -1.7502    1.0000 </r>
       <r>   -0.8973    1.0000 </r>
       <r>    0.0597    1.0000 </r>
       <r>    0.2003    1.0000 </r>
       <r>    0.2772    1.0000 </r>
       <r>    1.3421    1.0000 </r>
       <r>    1.5516    1.0000 </r>
       <r>    2.0242    1.0000 </r>
       <r>    2.0829    1.0000 </r>
       <r>    2.2287    1.0000 </r>
       <r>    2.3944    1.0000 </r>
       <r>    2.8150    1.0000 </r>
       <r>    3.1632    1.0000 </r>
       <r>    3.5246    1.0000 </r>
       <r>    3.9476    1.0000 </r>
       <r>    4.1508    1.0000 </r>
       <r>    4.1567    1.0000 </r>
       <r>    4.9919    1.0000 </r>
       <r>    5.5935    0.0000 </r>
       <r>    5.6333    0.0000 </r>
       <r>    5.7961    0.0000 </r>
       <r>    5.9986    0.0000 </r>
       <r>    6.3156    0.0000 </r>
       <r>    7.1704    0.0000 </r>
       <r>    7.3966    0.0000 </r>
       <r>    7.4659    0.0000 </r>
       <r>    7.4932    0.0000 </r>
       <r>    7.8179    0.0000 </r>
       <r>    7.9269    0.0000 </r>
      </set>
      <set comment="kpoint 18">
       <r>  -57.0359    1.0000 </r>
       <r>  -57.0279    1.0000 </r>
       <r>  -57.0215    1.0000 </r>
       <r>  -57.0144    1.0000 </r>
       <r>  -30.6997    1.0000 </r>
       <r>  -30.6816    1.0000 </r>
       <r>  -30.6715    1.0000 </r>
       <r>  -30.6463    1.0000 </r>
       <r>  -30.5391    1.0000 </r>
       <r>  -30.5201    1.0000 </r>
       <r>  -30.5076    1.0000 </r>
       <r>  -30.4959    1.0000 </r>
       <r>  -30.3676    1.0000 </r>
       <r>  -30.3649    1.0000 </r>
       <r>  -30.3261    1.0000 </r>
       <r>  -30.3210    1.0000 </r>
       <r>   -4.5780    1.0000 </r>
       <r>   -2.7727    1.0000 </r>
       <r>   -2.4540    1.0000 </r>
       <r>   -1.9073    1.0000 </r>
       <r>   -0.8819    1.0000 </r>
       <r>   -0.1836    1.0000 </r>
       <r>    0.4697    1.0000 </r>
       <r>    0.9195    1.0000 </r>
       <r>    1.5037    1.0000 </r>
       <r>    1.8600    1.0000 </r>
       <r>    2.1072    1.0000 </r>
       <r>    2.2353    1.0000 </r>
       <r>    2.3277    1.0000 </r>
       <r>    2.4027    1.0000 </r>
       <r>    2.6001    1.0000 </r>
       <r>    3.0016    1.0000 </r>
       <r>    3.3050    1.0000 </r>
       <r>    3.6028    1.0000 </r>
       <r>    3.6513    1.0000 </r>
       <r>    4.2457    1.0000 </r>
       <r>    4.9723    1.0000 </r>
       <r>    5.2245    1.0000 </r>
       <r>    5.5592    0.0000 </r>
       <r>    5.6917    0.0000 </r>
       <r>    6.0392    0.0000 </r>
       <r>    6.1694    0.0000 </r>
       <r>    7.0744    0.0000 </r>
       <r>    7.2792    0.0000 </r>
       <r>    7.5411    0.0000 </r>
       <r>    7.5911    0.0000 </r>
       <r>    7.9999    0.0000 </r>
       <r>    8.0619    0.0000 </r>
      </set>
      <set comment="kpoint 19">
       <r>  -57.0334    1.0000 </r>
       <r>  -57.0298    1.0000 </r>
       <r>  -57.0198    1.0000 </r>
       <r>  -57.0167    1.0000 </r>
       <r>  -30.6926    1.0000 </r>
       <r>  -30.6831    1.0000 </r>
       <r>  -30.6370    1.0000 </r>
       <r>  -30.6101    1.0000 </r>
       <r>  -30.5791    1.0000 </r>
       <r>  -30.5563    1.0000 </r>
       <r>  -30.5051    1.0000 </r>
       <r>  -30.4997    1.0000 </r>
       <r>  -30.3664    1.0000 </r>
       <r>  -30.3650    1.0000 </r>
       <r>  -30.3254    1.0000 </r>
       <r>  -30.3229    1.0000 </r>
       <r>   -4.1369    1.0000 </r>
       <r>   -3.1997    1.0000 </r>
       <r>   -2.5552    1.0000 </r>
       <r>   -2.1593    1.0000 </r>
       <r>   -0.8344    1.0000 </r>
       <r>   -0.4410    1.0000 </r>
       <r>    0.9014    1.0000 </r>
       <r>    1.5320    1.0000 </r>
       <r>    1.6248    1.0000 </r>
       <r>    1.8492    1.0000 </r>
       <r>    2.0258    1.0000 </r>
       <r>    2.1675    1.0000 </r>
       <r>    2.5717    1.0000 </r>
       <r>    2.6839    1.0000 </r>
       <r>    2.7230    1.0000 </r>
       <r>    2.9227    1.0000 </r>
       <r>    3.0536    1.0000 </r>
       <r>    3.1480    1.0000 </r>
       <r>    3.2484    1.0000 </r>
       <r>    4.2722    1.0000 </r>
       <r>    4.8847    1.0000 </r>
       <r>    5.1312    1.0000 </r>
       <r>    5.4493    0.9990 </r>
       <r>    5.5640    0.0000 </r>
       <r>    5.8581    0.0000 </r>
       <r>    5.9267    0.0000 </r>
       <r>    7.0063    0.0000 </r>
       <r>    7.1117    0.0000 </r>
       <r>    7.6014    0.0000 </r>
       <r>    7.6113    0.0000 </r>
       <r>    8.0851    0.0000 </r>
       <r>    8.1445    0.0000 </r>
      </set>
      <set comment="kpoint 20">
       <r>  -57.0327    1.0000 </r>
       <r>  -57.0304    1.0000 </r>
       <r>  -57.0192    1.0000 </r>
       <r>  -57.0173    1.0000 </r>
       <r>  -30.6909    1.0000 </r>
       <r>  -30.6848    1.0000 </r>
       <r>  -30.6261    1.0000 </r>
       <r>  -30.6011    1.0000 </r>
       <r>  -30.5888    1.0000 </r>
       <r>  -30.5667    1.0000 </r>
       <r>  -30.5040    1.0000 </r>
       <r>  -30.5008    1.0000 </r>
       <r>  -30.3667    1.0000 </r>
       <r>  -30.3646    1.0000 </r>
       <r>  -30.3246    1.0000 </r>
       <r>  -30.3238    1.0000 </r>
       <r>   -3.8515    1.0000 </r>
       <r>   -3.5312    1.0000 </r>
       <r>   -2.4375    1.0000 </r>
       <r>   -2.3081    1.0000 </r>
       <r>   -0.7395    1.0000 </r>
       <r>   -0.6379    1.0000 </r>
       <r>    1.0596    1.0000 </r>
       <r>    1.4780    1.0000 </r>
       <r>    1.6215    1.0000 </r>
       <r>    1.9817    1.0000 </r>
       <r>    2.2757    1.0000 </r>
       <r>    2.3103    1.0000 </r>
       <r>    2.4713    1.0000 </r>
       <r>    2.5107    1.0000 </r>
       <r>    2.6561    1.0000 </r>
       <r>    2.8592    1.0000 </r>
       <r>    2.9452    1.0000 </r>
       <r>    3.0751    1.0000 </r>
       <r>    3.6707    1.0000 </r>
       <r>    4.1683    1.0000 </r>
       <r>    4.8529    1.0000 </r>
       <r>    5.1203    1.0000 </r>
       <r>    5.4518    0.9982 </r>
       <r>    5.5148    0.0613 </r>
       <r>    5.6860    0.0000 </r>
       <r>    5.7509    0.0000 </r>
       <r>    6.9659    0.0000 </r>
       <r>    7.1855    0.0000 </r>
       <r>    7.5899    0.0000 </r>
       <r>    7.6112    0.0000 </r>
       <r>    8.0960    0.0000 </r>
       <r>    8.2765    0.0000 </r>
      </set>
      <set comment="kpoint 21">
       <r>  -57.0353    1.0000 </r>
       <r>  -57.0283    1.0000 </r>
       <r>  -57.0212    1.0000 </r>
       <r>  -57.0149    1.0000 </r>
       <r>  -30.6982    1.0000 </r>
       <r>  -30.6794    1.0000 </r>
       <r>  -30.6663    1.0000 </r>
       <r>  -30.6379    1.0000 </r>
       <r>  -30.5481    1.0000 </r>
       <r>  -30.5280    1.0000 </r>
       <r>  -30.5073    1.0000 </r>
       <r>  -30.4968    1.0000 </r>
       <r>  -30.3679    1.0000 </r>
       <r>  -30.3643    1.0000 </r>
       <r>  -30.3257    1.0000 </r>
       <r>  -30.3218    1.0000 </r>
       <r>   -4.3718    1.0000 </r>
       <r>   -2.8167    1.0000 </r>
       <r>   -2.6617    1.0000 </r>
       <r>   -2.0585    1.0000 </r>
       <r>   -0.7690    1.0000 </r>
       <r>   -0.5838    1.0000 </r>
       <r>    0.6312    1.0000 </r>
       <r>    1.0415    1.0000 </r>
       <r>    1.8693    1.0000 </r>
       <r>    2.0437    1.0000 </r>
       <r>    2.0896    1.0000 </r>
       <r>    2.1838    1.0000 </r>
       <r>    2.3693    1.0000 </r>
       <r>    2.4880    1.0000 </r>
       <r>    2.8319    1.0000 </r>
       <r>    2.8655    1.0000 </r>
       <r>    3.3768    1.0000 </r>
       <r>    3.4699    1.0000 </r>
       <r>    3.6721    1.0000 </r>
       <r>    3.9223    1.0000 </r>
       <r>    5.1968    1.0000 </r>
       <r>    5.2428    1.0000 </r>
       <r>    5.3888    1.0000 </r>
       <r>    5.6118    0.0000 </r>
       <r>    5.6624    0.0000 </r>
       <r>    5.8356    0.0000 </r>
       <r>    7.1286    0.0000 </r>
       <r>    7.4012    0.0000 </r>
       <r>    7.5518    0.0000 </r>
       <r>    7.5677    0.0000 </r>
       <r>    7.8490    0.0000 </r>
       <r>    7.9348    0.0000 </r>
      </set>
      <set comment="kpoint 22">
       <r>  -57.0373    1.0000 </r>
       <r>  -57.0274    1.0000 </r>
       <r>  -57.0219    1.0000 </r>
       <r>  -57.0132    1.0000 </r>
       <r>  -30.7037    1.0000 </r>
       <r>  -30.6998    1.0000 </r>
       <r>  -30.6711    1.0000 </r>
       <r>  -30.6654    1.0000 </r>
       <r>  -30.5175    1.0000 </r>
       <r>  -30.5121    1.0000 </r>
       <r>  -30.4975    1.0000 </r>
       <r>  -30.4937    1.0000 </r>
       <r>  -30.3690    1.0000 </r>
       <r>  -30.3645    1.0000 </r>
       <r>  -30.3261    1.0000 </r>
       <r>  -30.3201    1.0000 </r>
       <r>   -4.7216    1.0000 </r>
       <r>   -2.8504    1.0000 </r>
       <r>   -2.0179    1.0000 </r>
       <r>   -1.8560    1.0000 </r>
       <r>   -0.8471    1.0000 </r>
       <r>   -0.3912    1.0000 </r>
       <r>    0.3365    1.0000 </r>
       <r>    0.4953    1.0000 </r>
       <r>    1.5574    1.0000 </r>
       <r>    1.7143    1.0000 </r>
       <r>    2.0623    1.0000 </r>
       <r>    2.1300    1.0000 </r>
       <r>    2.2523    1.0000 </r>
       <r>    2.6880    1.0000 </r>
       <r>    3.0391    1.0000 </r>
       <r>    3.1285    1.0000 </r>
       <r>    3.2273    1.0000 </r>
[...]
       <r>  -57.0123    1.0000 </r>
       <r>  -30.7112    1.0000 </r>
       <r>  -30.7109    1.0000 </r>
       <r>  -30.6738    1.0000 </r>
       <r>  -30.6737    1.0000 </r>
       <r>  -30.5076    1.0000 </r>
       <r>  -30.5069    1.0000 </r>
       <r>  -30.4881    1.0000 </r>
       <r>  -30.4877    1.0000 </r>
       <r>  -30.3716    1.0000 </r>
       <r>  -30.3628    1.0000 </r>
       <r>  -30.3252    1.0000 </r>
       <r>  -30.3201    1.0000 </r>
       <r>   -4.5719    1.0000 </r>
       <r>   -2.8528    1.0000 </r>
       <r>   -2.0280    1.0000 </r>
       <r>   -1.8073    1.0000 </r>
       <r>   -1.3310    1.0000 </r>
       <r>   -0.6726    1.0000 </r>
       <r>   -0.0935    1.0000 </r>
       <r>    0.4689    1.0000 </r>
       <r>    1.9216    1.0000 </r>
       <r>    1.9555    1.0000 </r>
       <r>    2.2234    1.0000 </r>
       <r>    2.3597    1.0000 </r>
       <r>    2.4778    1.0000 </r>
       <r>    2.4781    1.0000 </r>
       <r>    2.9311    1.0000 </r>
       <r>    3.0381    1.0000 </r>
       <r>    3.6723    1.0000 </r>
       <r>    3.8270    1.0000 </r>
       <r>    4.4396    1.0000 </r>
       <r>    5.0919    1.0000 </r>
       <r>    5.1928    1.0000 </r>
       <r>    5.4192    1.0000 </r>
       <r>    5.5557    0.0000 </r>
       <r>    5.8431    0.0000 </r>
       <r>    6.1427    0.0000 </r>
       <r>    6.1664    0.0000 </r>
       <r>    6.2108    0.0000 </r>
       <r>    6.3731    0.0000 </r>
       <r>    7.0780    0.0000 </r>
       <r>    7.1162    0.0000 </r>
       <r>    7.4220    0.0000 </r>
       <r>    7.6939    0.0000 </r>
      </set>
      <set comment="kpoint 116">
       <r>  -57.0383    1.0000 </r>
       <r>  -57.0274    1.0000 </r>
       <r>  -57.0218    1.0000 </r>
       <r>  -57.0123    1.0000 </r>
       <r>  -30.7112    1.0000 </r>
       <r>  -30.7110    1.0000 </r>
       <r>  -30.6741    1.0000 </r>
       <r>  -30.6733    1.0000 </r>
       <r>  -30.5074    1.0000 </r>
       <r>  -30.5071    1.0000 </r>
       <r>  -30.4881    1.0000 </r>
       <r>  -30.4877    1.0000 </r>
       <r>  -30.3717    1.0000 </r>
       <r>  -30.3627    1.0000 </r>
       <r>  -30.3251    1.0000 </r>
       <r>  -30.3202    1.0000 </r>
       <r>   -4.5518    1.0000 </r>
       <r>   -2.8482    1.0000 </r>
       <r>   -2.0549    1.0000 </r>
       <r>   -1.8200    1.0000 </r>
       <r>   -1.3603    1.0000 </r>
       <r>   -0.6609    1.0000 </r>
       <r>   -0.0994    1.0000 </r>
       <r>    0.4708    1.0000 </r>
       <r>    1.9215    1.0000 </r>
       <r>    1.9552    1.0000 </r>
       <r>    2.2254    1.0000 </r>
       <r>    2.3112    1.0000 </r>
       <r>    2.5458    1.0000 </r>
       <r>    2.5489    1.0000 </r>
       <r>    2.9174    1.0000 </r>
       <r>    3.0277    1.0000 </r>
       <r>    3.6606    1.0000 </r>
       <r>    3.8175    1.0000 </r>
       <r>    4.4401    1.0000 </r>
       <r>    5.0461    1.0000 </r>
       <r>    5.1579    1.0000 </r>
       <r>    5.4079    1.0000 </r>
       <r>    5.7655    0.0000 </r>
       <r>    5.8585    0.0000 </r>
       <r>    6.1322    0.0000 </r>
       <r>    6.2054    0.0000 </r>
       <r>    6.2976    0.0000 </r>
       <r>    6.3300    0.0000 </r>
       <r>    6.9234    0.0000 </r>
       <r>    6.9577    0.0000 </r>
       <r>    7.3551    0.0000 </r>
       <r>    7.5940    0.0000 </r>
      </set>
     </set>
    </set>
   </array>
  </eigenvalues>
  <separator name="orbital magnetization" >
   <v name="MAGDIPOLOUT">      0.00000000      0.00000000      0.00000000</v>
  </separator>
  <dos>
   <i name="efermi">      5.49298275 </i>
   <total>
    <array>
     <dimension dim="1">gridpoints</dimension>
     <dimension dim="2">spin</dimension>
     <field>energy</field>
     <field>total</field>
     <field>integrated</field>
     <set>
      <set comment="spin 1">
       <r>   -60.3425     0.0000     0.0000 </r>
       <r>   -60.1002     0.0000     0.0000 </r>
       <r>   -59.8579     0.0000     0.0000 </r>
       <r>   -59.6156     0.0000     0.0000 </r>
       <r>   -59.3733     0.0000     0.0000 </r>
       <r>   -59.1311     0.0000     0.0000 </r>
       <r>   -58.8888     0.0000     0.0000 </r>
       <r>   -58.6465     0.0000     0.0000 </r>
       <r>   -58.4042     0.0000     0.0000 </r>
       <r>   -58.1619     0.0000     0.0000 </r>
       <r>   -57.9196     0.0000     0.0000 </r>
       <r>   -57.6773     0.0000     0.0000 </r>
       <r>   -57.4351     0.0000     0.0000 </r>
       <r>   -57.1928     0.0000     0.0000 </r>
       <r>   -56.9505    33.0191     8.0000 </r>
       <r>   -56.7082     0.0000     8.0000 </r>
       <r>   -56.4659     0.0000     8.0000 </r>
       <r>   -56.2236     0.0000     8.0000 </r>
       <r>   -55.9814     0.0000     8.0000 </r>
       <r>   -55.7391     0.0000     8.0000 </r>
       <r>   -55.4968     0.0000     8.0000 </r>
       <r>   -55.2545     0.0000     8.0000 </r>
       <r>   -55.0122     0.0000     8.0000 </r>
       <r>   -54.7699     0.0000     8.0000 </r>
       <r>   -54.5277     0.0000     8.0000 </r>
       <r>   -54.2854     0.0000     8.0000 </r>
       <r>   -54.0431     0.0000     8.0000 </r>
       <r>   -53.8008     0.0000     8.0000 </r>
       <r>   -53.5585     0.0000     8.0000 </r>
       <r>   -53.3162     0.0000     8.0000 </r>
       <r>   -53.0740     0.0000     8.0000 </r>
       <r>   -52.8317     0.0000     8.0000 </r>
       <r>   -52.5894     0.0000     8.0000 </r>
       <r>   -52.3471     0.0000     8.0000 </r>
       <r>   -52.1048     0.0000     8.0000 </r>
       <r>   -51.8625     0.0000     8.0000 </r>
       <r>   -51.6203     0.0000     8.0000 </r>
       <r>   -51.3780     0.0000     8.0000 </r>
       <r>   -51.1357     0.0000     8.0000 </r>
       <r>   -50.8934     0.0000     8.0000 </r>
       <r>   -50.6511     0.0000     8.0000 </r>
       <r>   -50.4088     0.0000     8.0000 </r>
       <r>   -50.1666     0.0000     8.0000 </r>
       <r>   -49.9243     0.0000     8.0000 </r>
       <r>   -49.6820     0.0000     8.0000 </r>
       <r>   -49.4397     0.0000     8.0000 </r>
       <r>   -49.1974     0.0000     8.0000 </r>
       <r>   -48.9551     0.0000     8.0000 </r>
       <r>   -48.7129     0.0000     8.0000 </r>
       <r>   -48.4706     0.0000     8.0000 </r>
       <r>   -48.2283     0.0000     8.0000 </r>
       <r>   -47.9860     0.0000     8.0000 </r>
       <r>   -47.7437     0.0000     8.0000 </r>
       <r>   -47.5014     0.0000     8.0000 </r>
       <r>   -47.2591     0.0000     8.0000 </r>
       <r>   -47.0169     0.0000     8.0000 </r>
       <r>   -46.7746     0.0000     8.0000 </r>
       <r>   -46.5323     0.0000     8.0000 </r>
       <r>   -46.2900     0.0000     8.0000 </r>
       <r>   -46.0477     0.0000     8.0000 </r>
       <r>   -45.8054     0.0000     8.0000 </r>
       <r>   -45.5632     0.0000     8.0000 </r>
       <r>   -45.3209     0.0000     8.0000 </r>
       <r>   -45.0786     0.0000     8.0000 </r>
       <r>   -44.8363     0.0000     8.0000 </r>
       <r>   -44.5940     0.0000     8.0000 </r>
       <r>   -44.3517     0.0000     8.0000 </r>
       <r>   -44.1095     0.0000     8.0000 </r>
       <r>   -43.8672     0.0000     8.0000 </r>
       <r>   -43.6249     0.0000     8.0000 </r>
       <r>   -43.3826     0.0000     8.0000 </r>
       <r>   -43.1403     0.0000     8.0000 </r>
       <r>   -42.8980     0.0000     8.0000 </r>
       <r>   -42.6558     0.0000     8.0000 </r>
       <r>   -42.4135     0.0000     8.0000 </r>
       <r>   -42.1712     0.0000     8.0000 </r>
       <r>   -41.9289     0.0000     8.0000 </r>
       <r>   -41.6866     0.0000     8.0000 </r>
       <r>   -41.4443     0.0000     8.0000 </r>
       <r>   -41.2021     0.0000     8.0000 </r>
       <r>   -40.9598     0.0000     8.0000 </r>
       <r>   -40.7175     0.0000     8.0000 </r>
       <r>   -40.4752     0.0000     8.0000 </r>
       <r>   -40.2329     0.0000     8.0000 </r>
       <r>   -39.9906     0.0000     8.0000 </r>
       <r>   -39.7484     0.0000     8.0000 </r>
       <r>   -39.5061     0.0000     8.0000 </r>
       <r>   -39.2638     0.0000     8.0000 </r>
       <r>   -39.0215     0.0000     8.0000 </r>
       <r>   -38.7792     0.0000     8.0000 </r>
       <r>   -38.5369     0.0000     8.0000 </r>
       <r>   -38.2947     0.0000     8.0000 </r>
       <r>   -38.0524     0.0000     8.0000 </r>
       <r>   -37.8101     0.0000     8.0000 </r>
       <r>   -37.5678     0.0000     8.0000 </r>
       <r>   -37.3255     0.0000     8.0000 </r>
       <r>   -37.0832     0.0000     8.0000 </r>
       <r>   -36.8410     0.0000     8.0000 </r>
       <r>   -36.5987     0.0000     8.0000 </r>
       <r>   -36.3564     0.0000     8.0000 </r>
       <r>   -36.1141     0.0000     8.0000 </r>
       <r>   -35.8718     0.0000     8.0000 </r>
       <r>   -35.6295     0.0000     8.0000 </r>
       <r>   -35.3872     0.0000     8.0000 </r>
       <r>   -35.1450     0.0000     8.0000 </r>
       <r>   -34.9027     0.0000     8.0000 </r>
       <r>   -34.6604     0.0000     8.0000 </r>
       <r>   -34.4181     0.0000     8.0000 </r>
       <r>   -34.1758     0.0000     8.0000 </r>
       <r>   -33.9335     0.0000     8.0000 </r>
       <r>   -33.6913     0.0000     8.0000 </r>
       <r>   -33.4490     0.0000     8.0000 </r>
       <r>   -33.2067     0.0000     8.0000 </r>
       <r>   -32.9644     0.0000     8.0000 </r>
       <r>   -32.7221     0.0000     8.0000 </r>
       <r>   -32.4798     0.0000     8.0000 </r>
       <r>   -32.2376     0.0000     8.0000 </r>
       <r>   -31.9953     0.0000     8.0000 </r>
       <r>   -31.7530     0.0000     8.0000 </r>
       <r>   -31.5107     0.0000     8.0000 </r>
       <r>   -31.2684     0.0000     8.0000 </r>
       <r>   -31.0261     0.0000     8.0000 </r>
       <r>   -30.7839     0.0000     8.0000 </r>
       <r>   -30.5416    42.1712    18.9419 </r>
       <r>   -30.2993    32.3394    31.8353 </r>
       <r>   -30.0570     0.0000    32.0000 </r>
       <r>   -29.8147     0.0000    32.0000 </r>
       <r>   -29.5724     0.0000    32.0000 </r>
       <r>   -29.3302     0.0000    32.0000 </r>
       <r>   -29.0879     0.0000    32.0000 </r>
       <r>   -28.8456     0.0000    32.0000 </r>
       <r>   -28.6033     0.0000    32.0000 </r>
       <r>   -28.3610     0.0000    32.0000 </r>
       <r>   -28.1187     0.0000    32.0000 </r>
       <r>   -27.8765     0.0000    32.0000 </r>
       <r>   -27.6342     0.0000    32.0000 </r>
       <r>   -27.3919     0.0000    32.0000 </r>
       <r>   -27.1496     0.0000    32.0000 </r>
       <r>   -26.9073     0.0000    32.0000 </r>
       <r>   -26.6650     0.0000    32.0000 </r>
       <r>   -26.4228     0.0000    32.0000 </r>
       <r>   -26.1805     0.0000    32.0000 </r>
       <r>   -25.9382     0.0000    32.0000 </r>
       <r>   -25.6959     0.0000    32.0000 </r>
       <r>   -25.4536     0.0000    32.0000 </r>
       <r>   -25.2113     0.0000    32.0000 </r>
       <r>   -24.9690     0.0000    32.0000 </r>
       <r>   -24.7268     0.0000    32.0000 </r>
       <r>   -24.4845     0.0000    32.0000 </r>
       <r>   -24.2422     0.0000    32.0000 </r>
       <r>   -23.9999     0.0000    32.0000 </r>
       <r>   -23.7576     0.0000    32.0000 </r>
       <r>   -23.5153     0.0000    32.0000 </r>
       <r>   -23.2731     0.0000    32.0000 </r>
       <r>   -23.0308     0.0000    32.0000 </r>
       <r>   -22.7885     0.0000    32.0000 </r>
       <r>   -22.5462     0.0000    32.0000 </r>
       <r>   -22.3039     0.0000    32.0000 </r>
       <r>   -22.0616     0.0000    32.0000 </r>
       <r>   -21.8194     0.0000    32.0000 </r>
       <r>   -21.5771     0.0000    32.0000 </r>
       <r>   -21.3348     0.0000    32.0000 </r>
       <r>   -21.0925     0.0000    32.0000 </r>
       <r>   -20.8502     0.0000    32.0000 </r>
       <r>   -20.6079     0.0000    32.0000 </r>
       <r>   -20.3657     0.0000    32.0000 </r>
       <r>   -20.1234     0.0000    32.0000 </r>
       <r>   -19.8811     0.0000    32.0000 </r>
       <r>   -19.6388     0.0000    32.0000 </r>
       <r>   -19.3965     0.0000    32.0000 </r>
       <r>   -19.1542     0.0000    32.0000 </r>
       <r>   -18.9120     0.0000    32.0000 </r>
       <r>   -18.6697     0.0000    32.0000 </r>
       <r>   -18.4274     0.0000    32.0000 </r>
       <r>   -18.1851     0.0000    32.0000 </r>
       <r>   -17.9428     0.0000    32.0000 </r>
       <r>   -17.7005     0.0000    32.0000 </r>
       <r>   -17.4583     0.0000    32.0000 </r>
       <r>   -17.2160     0.0000    32.0000 </r>
       <r>   -16.9737     0.0000    32.0000 </r>
       <r>   -16.7314     0.0000    32.0000 </r>
       <r>   -16.4891     0.0000    32.0000 </r>
       <r>   -16.2468     0.0000    32.0000 </r>
       <r>   -16.0046     0.0000    32.0000 </r>
       <r>   -15.7623     0.0000    32.0000 </r>
       <r>   -15.5200     0.0000    32.0000 </r>
       <r>   -15.2777     0.0000    32.0000 </r>
       <r>   -15.0354     0.0000    32.0000 </r>
       <r>   -14.7931     0.0000    32.0000 </r>
       <r>   -14.5508     0.0000    32.0000 </r>
       <r>   -14.3086     0.0000    32.0000 </r>
       <r>   -14.0663     0.0000    32.0000 </r>
       <r>   -13.8240     0.0000    32.0000 </r>
       <r>   -13.5817     0.0000    32.0000 </r>
       <r>   -13.3394     0.0000    32.0000 </r>
       <r>   -13.0971     0.0000    32.0000 </r>
       <r>   -12.8549     0.0000    32.0000 </r>
       <r>   -12.6126     0.0000    32.0000 </r>
       <r>   -12.3703     0.0000    32.0000 </r>
       <r>   -12.1280     0.0000    32.0000 </r>
       <r>   -11.8857     0.0000    32.0000 </r>
       <r>   -11.6434     0.0000    32.0000 </r>
       <r>   -11.4012     0.0000    32.0000 </r>
       <r>   -11.1589     0.0000    32.0000 </r>
       <r>   -10.9166     0.0000    32.0000 </r>
       <r>   -10.6743     0.0000    32.0000 </r>
       <r>   -10.4320     0.0000    32.0000 </r>
       <r>   -10.1897     0.0000    32.0000 </r>
       <r>    -9.9475     0.0000    32.0000 </r>
       <r>    -9.7052     0.0000    32.0000 </r>
       <r>    -9.4629     0.0000    32.0000 </r>
       <r>    -9.2206     0.0000    32.0000 </r>
       <r>    -8.9783     0.0000    32.0000 </r>
       <r>    -8.7360     0.0000    32.0000 </r>
       <r>    -8.4938     0.0000    32.0000 </r>
       <r>    -8.2515     0.0000    32.0000 </r>
       <r>    -8.0092     0.0000    32.0000 </r>
       <r>    -7.7669     0.0000    32.0000 </r>
       <r>    -7.5246     0.0000    32.0000 </r>
       <r>    -7.2823     0.0000    32.0000 </r>
       <r>    -7.0401     0.0000    32.0000 </r>
       <r>    -6.7978     0.0000    32.0000 </r>
       <r>    -6.5555     0.0000    32.0000 </r>
       <r>    -6.3132     0.0000    32.0000 </r>
       <r>    -6.0709     0.0000    32.0000 </r>
       <r>    -5.8286     0.0000    32.0000 </r>
       <r>    -5.5864     0.0000    32.0000 </r>
       <r>    -5.3441     0.0000    32.0000 </r>
       <r>    -5.1018     0.0000    32.0000 </r>
       <r>    -4.8595     0.1790    32.0434 </r>
       <r>    -4.6172     0.6579    32.2461 </r>
       <r>    -4.3749     0.9094    32.6132 </r>
       <r>    -4.1327     1.1960    32.9990 </r>
       <r>    -3.8904     0.5961    33.3332 </r>
       <r>    -3.6481     1.3712    33.8067 </r>
       <r>    -3.4058     1.2871    34.2659 </r>
       <r>    -3.1635     1.4722    34.6832 </r>
       <r>    -2.9212     1.4187    35.2672 </r>
       <r>    -2.6789     3.4444    36.4978 </r>
       <r>    -2.4367     4.2619    38.0734 </r>
       <r>    -2.1944     1.6719    38.8642 </r>
       <r>    -1.9521     1.6092    39.3899 </r>
       <r>    -1.7098     1.2688    39.8482 </r>
       <r>    -1.4675     0.3151    39.9539 </r>
       <r>    -1.2252     0.2260    40.0548 </r>
       <r>    -0.9830     0.6614    40.2419 </r>
       <r>    -0.7407     5.5721    41.7786 </r>
       <r>    -0.4984     3.5338    43.0909 </r>
       <r>    -0.2561     1.6381    43.8152 </r>
       <r>    -0.0138     0.5284    44.0566 </r>
       <r>     0.2285     0.4551    44.2174 </r>
       <r>     0.4707     1.3514    44.6642 </r>
       <r>     0.7130     1.5490    45.1508 </r>
       <r>     0.9553     1.7910    45.8217 </r>
       <r>     1.1976     2.1689    46.5765 </r>
       <r>     1.4399     3.1459    47.6806 </r>
       <r>     1.6822     4.0122    49.2170 </r>
       <r>     1.9244     3.9831    50.6334 </r>
       <r>     2.1667     8.3799    53.4028 </r>
       <r>     2.4090     9.3370    56.7418 </r>
       <r>     2.6513    10.1661    60.3968 </r>
       <r>     2.8936     7.1028    63.1699 </r>
       <r>     3.1359     7.0032    66.0029 </r>
       <r>     3.3781     3.3184    67.4826 </r>
       <r>     3.6204     2.5030    68.4024 </r>
       <r>     3.8627     2.0013    69.4339 </r>
       <r>     4.1050     1.8372    70.1747 </r>
       <r>     4.3473     2.6472    71.0240 </r>
       <r>     4.5896     2.5957    71.8381 </r>
       <r>     4.8318     3.4670    72.9063 </r>
       <r>     5.0741     4.9921    74.7146 </r>
       <r>     5.3164     5.4025    76.6712 </r>
       <r>     5.5587     4.9859    78.4580 </r>
       <r>     5.8010     5.5074    80.4721 </r>
       <r>     6.0433     5.0546    82.3522 </r>
       <r>     6.2855     3.1949    83.6771 </r>
       <r>     6.5278     0.7344    84.1422 </r>
       <r>     6.7701     0.9466    84.4640 </r>
       <r>     7.0124     2.7745    85.4783 </r>
       <r>     7.2547     3.8663    86.9214 </r>
       <r>     7.4970     6.4782    88.9471 </r>
       <r>     7.7393     6.4380    91.7384 </r>
       <r>     7.9815     4.5822    93.4061 </r>
       <r>     8.2238     3.8743    94.8213 </r>
       <r>     8.4661     2.0661    95.6485 </r>
       <r>     8.7084     0.3965    95.9022 </r>
       <r>     8.9507     0.1458    95.9945 </r>
       <r>     9.1930     0.0211    96.0000 </r>
       <r>     9.4352     0.0000    96.0000 </r>
       <r>     9.6775     0.0000    96.0000 </r>
       <r>     9.9198     0.0000    96.0000 </r>
       <r>    10.1621     0.0000    96.0000 </r>
       <r>    10.4044     0.0000    96.0000 </r>
       <r>    10.6467     0.0000    96.0000 </r>
       <r>    10.8889     0.0000    96.0000 </r>
       <r>    11.1312     0.0000    96.0000 </r>
       <r>    11.3735     0.0000    96.0000 </r>
       <r>    11.6158     0.0000    96.0000 </r>
       <r>    11.8581     0.0000    96.0000 </r>
       <r>    12.1004     0.0000    96.0000 </r>
       <r>    12.3426     0.0000    96.0000 </r>
      </set>
     </set>
    </array>
   </total>
  </dos>
 </calculation>
 <structure name="finalpos" >
  <crystal>
   <varray name="basis" >
    <v>       5.73767690       0.00000000      -3.16919728 </v>
    <v>      -1.99758461       5.37871657      -3.16919728 </v>
    <v>       0.00000000       0.00000000       6.55475000 </v>
   </varray>
   <i name="volume">    202.28835386 </i>
   <varray name="rec_basis" >
    <v>       0.17428657       0.06472774       0.00000000 </v>
    <v>       0.00000000       0.18591796       0.00000000 </v>
    <v>       0.08426691       0.12118626       0.15256112 </v>
   </varray>
  </crystal>
  <varray name="positions" >
   <v>       0.25000000       0.25000000       0.00000000 </v>
   <v>       0.75000000       0.75000000       0.00000000 </v>
   <v>       0.00000000       0.00000000       0.00000000 </v>
   <v>       0.50000000       0.00000000       0.50000000 </v>
   <v>       0.00000000       0.50000000       0.50000000 </v>
   <v>       0.50000000       0.50000000       0.00000000 </v>
   <v>       0.74502000       0.24502000       0.99003000 </v>
   <v>       0.25498000       0.75498000       0.00997000 </v>
   <v>       0.24502000       0.25498000       0.50000000 </v>
   <v>       0.75498000       0.74502000       0.50000000 </v>
  </varray>
 </structure>
</modeling>
