 vasp.6.2.0 18Jan21 (build Jan 05 2022 15:41:44) complex                        
  
 executed on             LinuxIFC date 2025.05.07  17:26:58
 running on   24 total cores
 distrk:  each k-point on   12 cores,    2 groups
 distr:  one band on NCORE=   2 cores,    6 groups


--------------------------------------------------------------------------------------------------------


 INCAR:
   SYSTEM = routine with relax: pwdword
   ICHARG = 2
   NPAR = 6
   KPAR = 2
   NCORE = 2
   ADDGRID = T
   PREC = Acc
   ENCUT = 600
   METAGGA = R2SCAN
   LASPH = .TRUE.
   LMIXTAU = .FALSE.
   ALGO = A
   EDIFF = 1E-9
   NELM = 100
   NELMIN = 6
   IALGO = 38
   LREAL = F
   NSW = 0
   ISIF = -1
   ISMEAR = 0
   SIGMA = 0.02

 POTCAR:    PAW_PBE B 06Sep2000                   
 POTCAR:    PAW_PBE Mo_sv 02Feb2006               
 POTCAR:    PAW_PBE Si 05Jan2001                  
 -----------------------------------------------------------------------------
|                                                                             |
|           W    W    AA    RRRRR   N    N  II  N    N   GGGG   !!!           |
|           W    W   A  A   R    R  NN   N  II  NN   N  G    G  !!!           |
|           W    W  A    A  R    R  N N  N  II  N N  N  G       !!!           |
|           W WW W  AAAAAA  RRRRR   N  N N  II  N  N N  G  GGG   !            |
|           WW  WW  A    A  R   R   N   NN  II  N   NN  G    G                |
|           W    W  A    A  R    R  N    N  II  N    N   GGGG   !!!           |
|                                                                             |
|     For optimal performance we recommend to set                             |
|       NCORE = 2 up to number-of-cores-per-socket                            |
|     NCORE specifies how many cores store one orbital (NPAR=cpu/NCORE).      |
|     This setting can greatly improve the performance of VASP for DFT.       |
|     The default, NCORE=1 might be grossly inefficient on modern             |
|     multi-core architectures or massively parallel machines. Do your        |
|     own testing! More info at https://www.vasp.at/wiki/index.php/NCORE      |
|     Unfortunately you need to use the default for GW and RPA                |
|     calculations (for HF NCORE is supported but not extensively tested      |
|     yet).                                                                   |
|                                                                             |
 -----------------------------------------------------------------------------

 POTCAR:    PAW_PBE B 06Sep2000                   
   VRHFIN =B: s2p1                                                                                  
   LEXCH  = PE                                                                                      
   EATOM  =    71.1703 eV,    5.2309 Ry                                                             
                                                                                                    
   TITEL  = PAW_PBE B 06Sep2000                                                                     
   LULTRA =        F    use ultrasoft PP ?                                                          
   IUNSCR =        1    unscreen: 0-lin 1-nonlin 2-no                                               
   RPACOR =    1.200    partial core radius                                                         
   POMASS =   10.811; ZVAL   =    3.000    mass and valenz                                          
   RCORE  =    1.700    outmost cutoff radius                                                       
   RWIGS  =    1.710; RWIGS  =    0.905    wigner-seitz radius (au A)                               
   ENMAX  =  318.614; ENMIN  =  238.960 eV                                                          
   ICORE  =        2    local potential                                                             
   LCOR   =        T    correct aug charges                                                         
   LPAW   =        T    paw PP                                                                      
   EAUG   =  535.514                                                                                
   DEXC   =    0.000                                                                                
   RMAX   =    1.732    core radius for proj-oper                                                   
   RAUG   =    1.300    factor for augmentation sphere                                              
   RDEP   =    1.757    radius for radial grids                                                     
   RDEPT  =    1.436    core radius for aug-charge                                                  
                                                                                                    
   Atomic configuration                                                                             
    4 entries                                                                                       
     n  l   j            E        occ.                                                              
     1  0  0.50      -180.5896   2.0000                                                             
     2  0  0.50        -9.4431   2.0000                                                             
     2  1  0.50        -3.6068   1.0000                                                             
     3  2  1.50        -4.0817   0.0000                                                             
   Description                                                                                      
     l       E           TYP  RCUT    TYP  RCUT                                                     
     0     -9.4430752     23  1.500                                                                 
     0      0.8675899     23  1.500                                                                 
     1     -3.6067955     23  1.700                                                                 
     1      6.1086146     23  1.700                                                                 
     2     -4.0817478      7  1.700                                                                 
  local pseudopotential read in
  partial core-charges read in
  partial kinetic energy density read in
  atomic valenz-charges read in
  non local Contribution for L=           0  read in
    real space projection operators read in
  non local Contribution for L=           0  read in
    real space projection operators read in
  non local Contribution for L=           1  read in
    real space projection operators read in
  non local Contribution for L=           1  read in
    real space projection operators read in
    PAW grid and wavefunctions read in
 
   number of l-projection  operators is LMAX  =           4
   number of lm-projection operators is LMMAX =           8
 
 POTCAR:    PAW_PBE Mo_sv 02Feb2006               
   VRHFIN =Mo: 4p5s4d                                                                               
   LEXCH  = PE                                                                                      
   EATOM  =  1862.2866 eV,  136.8742 Ry                                                             
                                                                                                    
   TITEL  = PAW_PBE Mo_sv 02Feb2006                                                                 
   LULTRA =        F    use ultrasoft PP ?                                                          
   IUNSCR =        1    unscreen: 0-lin 1-nonlin 2-no                                               
   RPACOR =    2.200    partial core radius                                                         
   POMASS =   95.940; ZVAL   =   14.000    mass and valenz                                          
   RCORE  =    2.500    outmost cutoff radius                                                       
   RWIGS  =    2.750; RWIGS  =    1.455    wigner-seitz radius (au A)                               
   ENMAX  =  242.676; ENMIN  =  182.007 eV                                                          
   ICORE  =        3    local potential                                                             
   LCOR   =        T    correct aug charges                                                         
   LPAW   =        T    paw PP                                                                      
   EAUG   =  446.014                                                                                
   DEXC   =    0.000                                                                                
   RMAX   =    2.563    core radius for proj-oper                                                   
   RAUG   =    1.300    factor for augmentation sphere                                              
   RDEP   =    2.641    radius for radial grids                                                     
   RDEPT  =    2.031    core radius for aug-charge                                                  
                                                                                                    
   Atomic configuration                                                                             
   11 entries                                                                                       
     n  l   j            E        occ.                                                              
     1  0  0.50    -19819.0341   2.0000                                                             
     2  0  0.50     -2799.0127   2.0000                                                             
     2  1  1.50     -2502.0276   6.0000                                                             
     3  0  0.50      -476.4449   2.0000                                                             
     3  1  1.50      -379.1496   6.0000                                                             
     3  2  2.50      -220.9367  10.0000                                                             
     4  0  0.50       -64.3378   2.0000                                                             
     5  0  0.50        -4.0862   1.0000                                                             
     4  1  1.50       -38.4773   6.0000                                                             
     4  2  2.50        -3.7535   5.0000                                                             
     4  3  2.50        -1.3606   0.0000                                                             
   Description                                                                                      
     l       E           TYP  RCUT    TYP  RCUT                                                     
     0    -64.3377829     23  2.100                                                                 
     0     -4.0861640     23  2.400                                                                 
     1    -38.4772993     23  2.100                                                                 
     1     13.6058260     23  2.100                                                                 
     2     -3.7534941     23  2.400                                                                 
     2     -5.1140767     23  2.400                                                                 
     3     -4.0817478     23  2.500                                                                 
  local pseudopotential read in
  partial core-charges read in
  partial kinetic energy density read in
  atomic valenz-charges read in
  non local Contribution for L=           0  read in
    real space projection operators read in
  non local Contribution for L=           0  read in
    real space projection operators read in
  non local Contribution for L=           1  read in
    real space projection operators read in
  non local Contribution for L=           1  read in
    real space projection operators read in
  non local Contribution for L=           2  read in
    real space projection operators read in
  non local Contribution for L=           2  read in
    real space projection operators read in
    PAW grid and wavefunctions read in
 
   number of l-projection  operators is LMAX  =           6
   number of lm-projection operators is LMMAX =          18
 
 POTCAR:    PAW_PBE Si 05Jan2001                  
   VRHFIN =Si: s2p2                                                                                 
   LEXCH  = PE                                                                                      
   EATOM  =   103.0669 eV,    7.5752 Ry                                                             
                                                                                                    
   TITEL  = PAW_PBE Si 05Jan2001                                                                    
   LULTRA =        F    use ultrasoft PP ?                                                          
   IUNSCR =        1    unscreen: 0-lin 1-nonlin 2-no                                               
   RPACOR =    1.500    partial core radius                                                         
   POMASS =   28.085; ZVAL   =    4.000    mass and valenz                                          
   RCORE  =    1.900    outmost cutoff radius                                                       
   RWIGS  =    2.480; RWIGS  =    1.312    wigner-seitz radius (au A)                               
   ENMAX  =  245.345; ENMIN  =  184.009 eV                                                          
   ICORE  =        2    local potential                                                             
   LCOR   =        T    correct aug charges                                                         
   LPAW   =        T    paw PP                                                                      
   EAUG   =  322.069                                                                                
   DEXC   =    0.000                                                                                
   RMAX   =    1.950    core radius for proj-oper                                                   
   RAUG   =    1.300    factor for augmentation sphere                                              
   RDEP   =    1.993    radius for radial grids                                                     
   RDEPT  =    1.837    core radius for aug-charge                                                  
                                                                                                    
   Atomic configuration                                                                             
    6 entries                                                                                       
     n  l   j            E        occ.                                                              
     1  0  0.50     -1785.8828   2.0000                                                             
     2  0  0.50      -139.4969   2.0000                                                             
     2  1  1.50       -95.5546   6.0000                                                             
     3  0  0.50       -10.8127   2.0000                                                             
     3  1  0.50        -4.0811   2.0000                                                             
     3  2  1.50        -4.0817   0.0000                                                             
   Description                                                                                      
     l       E           TYP  RCUT    TYP  RCUT                                                     
     0    -10.8127223     23  1.900                                                                 
     0     -7.6451159     23  1.900                                                                 
     1     -4.0811372     23  1.900                                                                 
     1      2.4879257     23  1.900                                                                 
     2     -4.0817478      7  1.900                                                                 
  local pseudopotential read in
  partial core-charges read in
  partial kinetic energy density read in
  atomic valenz-charges read in
  non local Contribution for L=           0  read in
    real space projection operators read in
  non local Contribution for L=           0  read in
    real space projection operators read in
  non local Contribution for L=           1  read in
    real space projection operators read in
  non local Contribution for L=           1  read in
    real space projection operators read in
    PAW grid and wavefunctions read in
 
   number of l-projection  operators is LMAX  =           4
   number of lm-projection operators is LMMAX =           8
 
  PAW_PBE B 06Sep2000                   :
 energy of atom  1       EATOM=  -71.1703
 kinetic energy error for atom=    0.0007 (will be added to EATOM!!)
  PAW_PBE Mo_sv 02Feb2006               :
 energy of atom  2       EATOM=-1862.2866
 kinetic energy error for atom=    0.0041 (will be added to EATOM!!)
  PAW_PBE Si 05Jan2001                  :
 energy of atom  3       EATOM= -103.0669
 kinetic energy error for atom=    0.0003 (will be added to EATOM!!)
 
 
 POSCAR: EA119
  positions in direct lattice
  No initial velocities read in

 METAGGA = R2SCA    LMAXTAU =  6    LMIXTAU =  F

 exchange correlation table for  LEXCH =        8
   RHO(1)=    0.500       N(1)  =     2000
   RHO(2)=  100.500       N(2)  =     4000
 


--------------------------------------------------------------------------------------------------------


 ion  position               nearest neighbor table
   1  0.253  0.247  0.500-   9 2.06  10 2.12   6 2.77   8 2.77   7 2.79   7 2.79   5 2.79   5 2.79
                             6 2.81   8 2.81
   2  0.747  0.753  0.500-   9 2.06  10 2.12   8 2.77   6 2.77   5 2.79   5 2.79   7 2.79   7 2.79
                             6 2.81   8 2.81
   3  0.247  0.747  0.994-  10 2.06   9 2.12   6 2.77   8 2.77   7 2.79   5 2.79   7 2.79   5 2.79
                             6 2.81   8 2.81
   4  0.753  0.253  0.006-  10 2.06   9 2.12   8 2.77   6 2.77   7 2.79   5 2.79   5 2.79   7 2.79
                             8 2.81   6 2.81
   5  0.250  0.250  0.000-   2 2.79   2 2.79   3 2.79   4 2.79   1 2.79   1 2.79   4 2.79   3 2.79
                             8 2.96   8 2.96   6 2.96   6 2.96
   6  0.750  0.250  0.500-   9 1.84  10 1.84   3 2.77   1 2.77   2 2.77   4 2.77   3 2.81   4 2.81
                             1 2.81   2 2.81   7 2.96   7 2.96   5 2.96   5 2.96
   7  0.750  0.750  0.000-   1 2.79   1 2.79   4 2.79   3 2.79   2 2.79   2 2.79   3 2.79   4 2.79
                             8 2.96   6 2.96   6 2.96   8 2.96
   8  0.250  0.750  0.500-   9 1.84  10 1.84   4 2.77   2 2.77   1 2.77   3 2.77   4 2.81   3 2.81
                             1 2.81   2 2.81   7 2.96   5 2.96   5 2.96   7 2.96
   9  0.500  0.000  0.500-   6 1.84   8 1.84   1 2.06   2 2.06   4 2.12   3 2.12
  10  0.000  0.500  0.500-   6 1.84   8 1.84   3 2.06   4 2.06   1 2.12   2 2.12
 
  LATTYP: Found a body centered tetragonal cell.
 ALAT       =     5.9100227976
 C/A-ratio  =     1.2485477318
  
  Lattice vectors:
  
 A1 = (   5.0113822202,   0.0000000000,  -2.4418328934)
 A2 = (  -1.9584674061,   4.6128469709,  -2.4418328934)
 A3 = (   0.0000000000,   0.0000000000,   5.5746300000)


Analysis of symmetry for initial positions (statically):
=====================================================================
 Subroutine PRICEL returns:
 Original cell was already a primitive cell.
 

 Routine SETGRP: Setting up the symmetry group for a 
 body centered tetragonal supercell.


 Subroutine GETGRP returns: Found 16 space group operations
 (whereof  8 operations were pure point group operations)
 out of a pool of 16 trial point group operations.


The static configuration has the point symmetry C_4h.
 The point group associated with its full space group is D_4h.


Analysis of symmetry for dynamics (positions and initial velocities):
=====================================================================
 Subroutine PRICEL returns:
 Original cell was already a primitive cell.
 

 Routine SETGRP: Setting up the symmetry group for a 
 body centered tetragonal supercell.


 Subroutine GETGRP returns: Found 16 space group operations
 (whereof  8 operations were pure point group operations)
 out of a pool of 16 trial point group operations.


The dynamic configuration has the point symmetry C_4h.
 The point group associated with its full space group is D_4h.


 Subroutine INISYM returns: Found 16 space group operations
 (whereof  8 operations are pure point group operations),
 and found     1 'primitive' translations


----------------------------------------------------------------------------------------

                                     Primitive cell                                     

  volume of cell :     128.8673

  direct lattice vectors                    reciprocal lattice vectors
     5.011382220  0.000000000 -2.441832893     0.199545745  0.084720746  0.000000000
    -1.958467406  4.612846971 -2.441832893     0.000000000  0.216785861  0.000000000
     0.000000000  0.000000000  5.574630000     0.087406225  0.132067734  0.179384103

  length of vectors
     5.574630000  5.574630000  5.574630000     0.216785861  0.216785861  0.239291435

  position of ions in fractional coordinates (direct lattice)
     0.253100000  0.246900000  0.500000000
     0.746900000  0.753100000  0.500000000
     0.246900000  0.746900000  0.993800000
     0.753100000  0.253100000  0.006200000
     0.250000000  0.250000000  1.000000000
     0.750000000  0.250000000  0.500000000
     0.750000000  0.750000000  1.000000000
     0.250000000  0.750000000  0.500000000
     0.500000000  0.000000000  0.500000000
     0.000000000  0.500000000  0.500000000

  ion indices of the primitive-cell ions
   primitive index   ion index
                 1           1
                 2           2
                 3           3
                 4           4
                 5           5
                 6           6
                 7           7
                 8           8
                 9           9
                10          10

----------------------------------------------------------------------------------------

 
 
 KPOINTS: EA                                      

Automatic generation of k-mesh.
 Grid dimensions read from file:
 generate k-points for:    8    8    8

 Generating k-lattice:

  Cartesian coordinates                     Fractional coordinates (reciprocal lattice)
     0.024943218  0.010590093  0.000000000     0.125000000  0.000000000  0.000000000
     0.000000000  0.027098233  0.000000000     0.000000000  0.125000000  0.000000000
     0.010925778  0.016508467  0.022423013    -0.000000000  0.000000000  0.125000000

  Length of vectors
     0.027098233  0.027098233  0.029911429

  Shift w.r.t. Gamma in fractional coordinates (k-lattice)
     0.000000000  0.000000000  0.000000000

 
 Subroutine IBZKPT returns following result:
 ===========================================
 
 Found     59 irreducible k-points:
 
 Following reciprocal coordinates:
            Coordinates               Weight
  0.000000  0.000000  0.000000      1.000000
  0.125000  0.000000  0.000000      8.000000
  0.250000  0.000000  0.000000      8.000000
  0.375000  0.000000  0.000000      8.000000
  0.500000  0.000000  0.000000      4.000000
  0.125000  0.125000  0.000000      8.000000
  0.250000  0.125000  0.000000     16.000000
  0.375000  0.125000  0.000000     16.000000
  0.500000  0.125000  0.000000     16.000000
 -0.375000  0.125000  0.000000     16.000000
 -0.250000  0.125000  0.000000     16.000000
 -0.125000  0.125000  0.000000      4.000000
  0.250000  0.250000  0.000000      8.000000
  0.375000  0.250000  0.000000     16.000000
  0.500000  0.250000  0.000000     16.000000
 -0.375000  0.250000  0.000000     16.000000
 -0.250000  0.250000  0.000000      4.000000
  0.375000  0.375000  0.000000      8.000000
  0.500000  0.375000  0.000000     16.000000
 -0.375000  0.375000  0.000000      4.000000
  0.500000  0.500000  0.000000      2.000000
  0.125000  0.125000  0.125000      8.000000
  0.250000  0.125000  0.125000     16.000000
  0.375000  0.125000  0.125000      8.000000
 -0.125000  0.125000  0.125000      4.000000
  0.250000  0.250000  0.125000      8.000000
  0.375000  0.250000  0.125000     16.000000
  0.500000  0.250000  0.125000      8.000000
 -0.250000  0.250000  0.125000      8.000000
 -0.125000  0.250000  0.125000      8.000000
  0.375000  0.375000  0.125000      4.000000
 -0.375000  0.375000  0.125000      8.000000
 -0.250000  0.375000  0.125000     16.000000
 -0.125000  0.375000  0.125000      8.000000
  0.500000  0.500000  0.125000      4.000000
 -0.375000  0.500000  0.125000     16.000000
 -0.250000  0.500000  0.125000     16.000000
 -0.125000  0.500000  0.125000      8.000000
 -0.375000 -0.375000  0.125000      8.000000
 -0.250000 -0.375000  0.125000     16.000000
 -0.125000 -0.375000  0.125000      8.000000
 -0.250000 -0.250000  0.125000      8.000000
 -0.125000 -0.250000  0.125000      8.000000
 -0.125000 -0.125000  0.125000      2.000000
  0.250000  0.250000  0.250000      2.000000
 -0.250000  0.250000  0.250000      4.000000
 -0.375000  0.375000  0.250000      8.000000
 -0.250000  0.375000  0.250000      8.000000
  0.500000  0.500000  0.250000      4.000000
 -0.375000  0.500000  0.250000     16.000000
 -0.250000  0.500000  0.250000      8.000000
 -0.375000 -0.375000  0.250000      8.000000
 -0.250000 -0.375000  0.250000      8.000000
 -0.250000 -0.250000  0.250000      2.000000
 -0.375000  0.375000  0.375000      4.000000
  0.500000  0.500000  0.375000      4.000000
 -0.375000  0.500000  0.375000      8.000000
 -0.375000 -0.375000  0.375000      2.000000
  0.500000  0.500000  0.500000      1.000000
 
 Following cartesian coordinates:
            Coordinates               Weight
  0.000000  0.000000  0.000000      1.000000
  0.024943  0.010590  0.000000      8.000000
  0.049886  0.021180  0.000000      8.000000
  0.074830  0.031770  0.000000      8.000000
  0.099773  0.042360  0.000000      4.000000
  0.024943  0.037688  0.000000      8.000000
  0.049886  0.048278  0.000000     16.000000
  0.074830  0.058869  0.000000     16.000000
  0.099773  0.069459  0.000000     16.000000
 -0.074830 -0.004672  0.000000     16.000000
 -0.049886  0.005918  0.000000     16.000000
 -0.024943  0.016508  0.000000      4.000000
  0.049886  0.075377  0.000000      8.000000
  0.074830  0.085967  0.000000     16.000000
  0.099773  0.096557  0.000000     16.000000
 -0.074830  0.022426  0.000000     16.000000
 -0.049886  0.033016  0.000000      4.000000
  0.074830  0.113065  0.000000      8.000000
  0.099773  0.123655  0.000000     16.000000
 -0.074830  0.049524  0.000000      4.000000
  0.099773  0.150753  0.000000      2.000000
  0.035869  0.054197  0.022423      8.000000
  0.060812  0.064787  0.022423     16.000000
  0.085755  0.075377  0.022423      8.000000
 -0.014017  0.033017  0.022423      4.000000
  0.060812  0.091885  0.022423      8.000000
  0.085755  0.102475  0.022423     16.000000
  0.110699  0.113065  0.022423      8.000000
 -0.038961  0.049525  0.022423      8.000000
 -0.014017  0.060115  0.022423      8.000000
  0.085755  0.129573  0.022423      4.000000
 -0.063904  0.066033  0.022423      8.000000
 -0.038961  0.076623  0.022423     16.000000
 -0.014017  0.087213  0.022423      8.000000
  0.110699  0.167262  0.022423      4.000000
 -0.063904  0.093131  0.022423     16.000000
 -0.038961  0.103721  0.022423     16.000000
 -0.014017  0.114311  0.022423      8.000000
 -0.063904 -0.096557  0.022423      8.000000
 -0.038961 -0.085966  0.022423     16.000000
 -0.014017 -0.075376  0.022423      8.000000
 -0.038961 -0.058868  0.022423      8.000000
 -0.014017 -0.048278  0.022423      8.000000
 -0.014017 -0.021180  0.022423      2.000000
  0.071738  0.108394  0.044846      2.000000
 -0.028035  0.066033  0.044846      4.000000
 -0.052978  0.082541  0.044846      8.000000
 -0.028035  0.093131  0.044846      8.000000
  0.121624  0.183770  0.044846      4.000000
 -0.052978  0.109640  0.044846     16.000000
 -0.028035  0.120230  0.044846      8.000000
 -0.052978 -0.080048  0.044846      8.000000
 -0.028035 -0.069458  0.044846      8.000000
 -0.028035 -0.042360  0.044846      2.000000
 -0.042052  0.099050  0.067269      4.000000
  0.132550  0.200279  0.067269      4.000000
 -0.042052  0.126148  0.067269      8.000000
 -0.042052 -0.063540  0.067269      2.000000
  0.143476  0.216787  0.089692      1.000000
 


--------------------------------------------------------------------------------------------------------




 Dimension of arrays:
   k-points           NKPTS =     59   k-points in BZ     NKDIM =     59   number of bands    NBANDS=     48
   number of dos      NEDOS =    301   number of ions     NIONS =     10
   non local maximal  LDIM  =      6   non local SUM 2l+1 LMDIM =     18
   total plane-waves  NPLWV = 110592
   max r-space proj   IRMAX =      1   max aug-charges    IRDMAX= 300403
   dimension x,y,z NGX =    48 NGY =   48 NGZ =   48
   dimension x,y,z NGXF=    96 NGYF=   96 NGZF=   96
   support grid    NGXF=   192 NGYF=  192 NGZF=  192
   ions per type =               4   4   2
   NGX,Y,Z   is equivalent  to a cutoff of  14.31, 14.31, 14.31 a.u.
   NGXF,Y,Z  is equivalent  to a cutoff of  28.63, 28.63, 28.63 a.u.

 SYSTEM =  routine with relax: pwdword             
 POSCAR =  EA119                                   

 Startparameter for this run:
   NWRITE =      2    write-flag & timer
   PREC   = acc       normal or accurate (medium, high low for compatibility)
   ISTART =      0    job   : 0-new  1-cont  2-samecut
   ICHARG =      2    charge: 1-file 2-atom 10-const
   ISPIN  =      1    spin polarized calculation?
   LNONCOLLINEAR =      F non collinear calculations
   LSORBIT =      F    spin-orbit coupling
   INIWAV =      1    electr: 0-lowe 1-rand  2-diag
   LASPH  =      T    aspherical Exc in radial PAW
   METAGGA=      F    non-selfconsistent MetaGGA calc.

 Electronic Relaxation 1
   ENCUT  =  600.0 eV  44.10 Ry    6.64 a.u.  11.13 11.13 11.13*2*pi/ulx,y,z
   ENINI  =  600.0     initial cutoff
   ENAUG  =  535.5 eV  augmentation charge cutoff
   NELM   =    100;   NELMIN=  6; NELMDL= -5     # of ELM steps 
   EDIFF  = 0.1E-08   stopping-criterion for ELM
   LREAL  =      F    real-space projection
   NLSPLINE    = F    spline interpolate recip. space projectors
   LCOMPAT=      F    compatible to vasp.4.4
   GGA_COMPAT  = T    GGA compatible to vasp.4.4-vasp.4.6
   LMAXPAW     = -100 max onsite density
   LMAXMIX     =    2 max onsite mixed and CHGCAR
   VOSKOWN=      0    Vosko Wilk Nusair interpolation
   ROPT   =    0.00000   0.00000   0.00000
 Ionic relaxation
   EDIFFG = 0.1E-07   stopping-criterion for IOM
   NSW    =      0    number of steps for IOM
   NBLOCK =      1;   KBLOCK =      1    inner block; outer block 
   IBRION =     -1    ionic relax: 0-MD 1-quasi-New 2-CG
   NFREE  =      0    steps in history (QN), initial steepest desc. (CG)
   ISIF   =     -1    stress and relaxation
   IWAVPR =     10    prediction:  0-non 1-charg 2-wave 3-comb
   ISYM   =      2    0-nonsym 1-usesym 2-fastsym
   LCORR  =      T    Harris-Foulkes like correction to forces

   POTIM  = 0.5000    time-step for ionic-motion
   TEIN   =    0.0    initial temperature
   TEBEG  =    0.0;   TEEND  =   0.0 temperature during run
   SMASS  =  -3.00    Nose mass-parameter (am)
   estimated Nose-frequenzy (Omega)   =  0.10E-29 period in steps = 0.13E+47 mass=  -0.710E-27a.u.
   SCALEE = 1.0000    scale energy and forces
   NPACO  =    256;   APACO  = 16.0  distance and # of slots for P.C.
   PSTRESS=    0.0 pullay stress

  Mass of Ions in am
   POMASS =  10.81 95.94 28.09
  Ionic Valenz
   ZVAL   =   3.00 14.00  4.00
  Atomic Wigner-Seitz radii
   RWIGS  =  -1.00 -1.00 -1.00
  virtual crystal weights 
   VCA    =   1.00  1.00  1.00
   NELECT =      76.0000    total number of electrons
   NUPDOWN=      -1.0000    fix difference up-down

 DOS related values:
   EMIN   =  10.00;   EMAX   =-10.00  energy-range for DOS
   EFERMI =   0.00
   ISMEAR =     0;   SIGMA  =   0.02  broadening in eV -4-tet -1-fermi 0-gaus

 Electronic relaxation 2 (details)
   IALGO  =     58    algorithm
   LDIAG  =      T    sub-space diagonalisation (order eigenvalues)
   LSUBROT=      F    optimize rotation matrix (better conditioning)
   TURBO    =      0    0=normal 1=particle mesh
   IRESTART =      0    0=no restart 2=restart with 2 vectors
   NREBOOT  =      0    no. of reboots
   NMIN     =      0    reboot dimension
   EREF     =   0.00    reference energy to select bands
   IMIX   =      4    mixing-type and parameters
     AMIX     =   0.40;   BMIX     =  1.00
     AMIX_MAG =   1.60;   BMIX_MAG =  1.00
     AMIN     =   0.10
     WC   =   100.;   INIMIX=   1;  MIXPRE=   1;  MAXMIX= -45

 Intra band minimization:
   WEIMIN = 0.0000     energy-eigenvalue tresh-hold
   EBREAK =  0.52E-11  absolut break condition
   DEPER  =   0.30     relativ break condition  

   TIME   =   0.40     timestep for ELM

  volume/ion in A,a.u.               =      12.89        86.96
  Fermi-wavevector in a.u.,A,eV,Ry     =   1.372878  2.594362 25.644165  1.884793
  Thomas-Fermi vector in A             =   2.498445
 
 Write flags
   LWAVE        =      T    write WAVECAR
   LDOWNSAMPLE  =      F    k-point downsampling of WAVECAR
   LCHARG       =      T    write CHGCAR
   LVTOT        =      F    write LOCPOT, total local potential
   LVHAR        =      F    write LOCPOT, Hartree potential only
   LELF         =      F    write electronic localiz. function (ELF)
   LORBIT       =      0    0 simple, 1 ext, 2 COOP (PROOUT), +10 PAW based schemes


 Dipole corrections
   LMONO  =      F    monopole corrections only (constant potential shift)
   LDIPOL =      F    correct potential (dipole corrections)
   IDIPOL =      0    1-x, 2-y, 3-z, 4-all directions 
   EPSILON=  1.0000000 bulk dielectric constant

 Exchange correlation treatment:
   GGA     =    --    GGA type
   LEXCH   =     8    internal setting for exchange type
   VOSKOWN=      0    Vosko Wilk Nusair interpolation
   LHFCALC =     F    Hartree Fock is set to
   LHFONE  =     F    Hartree Fock one center treatment
   AEXX    =    0.0000 exact exchange contribution

 Linear response parameters
   LEPSILON=     F    determine dielectric tensor
   LRPA    =     F    only Hartree local field effects (RPA)
   LNABLA  =     F    use nabla operator in PAW spheres
   LVEL    =     F    velocity operator in full k-point grid
   LINTERFAST=   F  fast interpolation
   KINTER  =     0    interpolate to denser k-point grid
   CSHIFT  =0.1000    complex shift for real part using Kramers Kronig
   OMEGAMAX=  -1.0    maximum frequency
   DEG_THRESHOLD= 0.2000000E-02 threshold for treating states as degnerate
   RTIME   =   -0.100 relaxation time in fs
  (WPLASMAI=    0.000 imaginary part of plasma frequency in eV, 0.658/RTIME)
   DFIELD  = 0.0000000 0.0000000 0.0000000 field for delta impulse in time
 
 Orbital magnetization related:
   ORBITALMAG=     F  switch on orbital magnetization
   LCHIMAG   =     F  perturbation theory with respect to B field
   DQ        =  0.001000  dq finite difference perturbation B field
   LLRAUG    =     F  two centre corrections for induced B field



--------------------------------------------------------------------------------------------------------


 Static calculation
 charge density and potential will be updated during run
 non-spin polarized calculation
 Conjugate gradient for all bands (Freysoldt, et al. PRB 79, 241103 (2009))
 preconditioned conjugated gradient                                        
 perform sub-space diagonalisation
    before iterative eigenvector-optimisation
 modified Broyden-mixing scheme, WC =      100.0
 initial mixing is a Kerker type mixing with AMIX =  0.4000 and BMIX =      1.0000
 Hartree-type preconditioning will be used
 using additional bands           10
 reciprocal scheme for non local part
 use partial core corrections
 no Harris-corrections to forces 
 use gradient corrections 
 use of overlap-Matrix (Vanderbilt PP)
 Gauss-broadening in eV      SIGMA  =   0.02


--------------------------------------------------------------------------------------------------------


  energy-cutoff  :      600.00
  volume of cell :      128.87
      direct lattice vectors                 reciprocal lattice vectors
     5.011382220  0.000000000 -2.441832893     0.199545745  0.084720746  0.000000000
    -1.958467406  4.612846971 -2.441832893     0.000000000  0.216785861  0.000000000
     0.000000000  0.000000000  5.574630000     0.087406225  0.132067734  0.179384103

  length of vectors
     5.574630000  5.574630000  5.574630000     0.216785861  0.216785861  0.239291435


 
 k-points in units of 2pi/SCALE and weight: EA                                      
   0.00000000  0.00000000  0.00000000       0.002
   0.02494322  0.01059009  0.00000000       0.016
   0.04988644  0.02118019  0.00000000       0.016
   0.07482965  0.03177028  0.00000000       0.016
   0.09977287  0.04236037  0.00000000       0.008
   0.02494322  0.03768833  0.00000000       0.016
   0.04988644  0.04827842  0.00000000       0.031
   0.07482965  0.05886851  0.00000000       0.031
   0.09977287  0.06945861  0.00000000       0.031
  -0.07482965 -0.00467205  0.00000000       0.031
  -0.04988644  0.00591805  0.00000000       0.031
  -0.02494322  0.01650814  0.00000000       0.008
   0.04988644  0.07537665  0.00000000       0.016
   0.07482965  0.08596675  0.00000000       0.031
   0.09977287  0.09655684  0.00000000       0.031
  -0.07482965  0.02242619  0.00000000       0.031
  -0.04988644  0.03301628  0.00000000       0.008
   0.07482965  0.11306498  0.00000000       0.016
   0.09977287  0.12365507  0.00000000       0.031
  -0.07482965  0.04952442  0.00000000       0.008
   0.09977287  0.15075330  0.00000000       0.004
   0.03586900  0.05419679  0.02242301       0.016
   0.06081221  0.06478689  0.02242301       0.031
   0.08575543  0.07537698  0.02242301       0.016
  -0.01401744  0.03301661  0.02242301       0.008
   0.06081221  0.09188512  0.02242301       0.016
   0.08575543  0.10247521  0.02242301       0.031
   0.11069865  0.11306531  0.02242301       0.016
  -0.03896066  0.04952475  0.02242301       0.016
  -0.01401744  0.06011484  0.02242301       0.016
   0.08575543  0.12957344  0.02242301       0.008
  -0.06390388  0.06603288  0.02242301       0.016
  -0.03896066  0.07662298  0.02242301       0.031
  -0.01401744  0.08721307  0.02242301       0.016
   0.11069865  0.16726177  0.02242301       0.008
  -0.06390388  0.09313112  0.02242301       0.031
  -0.03896066  0.10372121  0.02242301       0.031
  -0.01401744  0.11431130  0.02242301       0.016
  -0.06390388 -0.09655651  0.02242301       0.016
  -0.03896066 -0.08596642  0.02242301       0.031
  -0.01401744 -0.07537632  0.02242301       0.016
  -0.03896066 -0.05886819  0.02242301       0.016
  -0.01401744 -0.04827809  0.02242301       0.016
  -0.01401744 -0.02117986  0.02242301       0.004
   0.07173799  0.10839359  0.04484603       0.004
  -0.02803488  0.06603321  0.04484603       0.008
  -0.05297810  0.08254135  0.04484603       0.016
  -0.02803488  0.09313144  0.04484603       0.016
   0.12162443  0.18377024  0.04484603       0.008
  -0.05297810  0.10963958  0.04484603       0.031
  -0.02803488  0.12022968  0.04484603       0.016
  -0.05297810 -0.08004804  0.04484603       0.016
  -0.02803488 -0.06945795  0.04484603       0.016
  -0.02803488 -0.04235972  0.04484603       0.004
  -0.04205232  0.09904982  0.06726904       0.008
   0.13255021  0.20027870  0.06726904       0.008
  -0.04205232  0.12614805  0.06726904       0.016
  -0.04205232 -0.06353958  0.06726904       0.004
   0.14347599  0.21678717  0.08969205       0.002
 
 k-points in reciprocal lattice and weights: EA                                      
   0.00000000  0.00000000  0.00000000       0.002
   0.12500000  0.00000000  0.00000000       0.016
   0.25000000  0.00000000  0.00000000       0.016
   0.37500000  0.00000000  0.00000000       0.016
   0.50000000  0.00000000  0.00000000       0.008
   0.12500000  0.12500000  0.00000000       0.016
   0.25000000  0.12500000  0.00000000       0.031
   0.37500000  0.12500000  0.00000000       0.031
   0.50000000  0.12500000  0.00000000       0.031
  -0.37500000  0.12500000  0.00000000       0.031
  -0.25000000  0.12500000  0.00000000       0.031
  -0.12500000  0.12500000  0.00000000       0.008
   0.25000000  0.25000000  0.00000000       0.016
   0.37500000  0.25000000  0.00000000       0.031
   0.50000000  0.25000000  0.00000000       0.031
  -0.37500000  0.25000000  0.00000000       0.031
  -0.25000000  0.25000000  0.00000000       0.008
   0.37500000  0.37500000  0.00000000       0.016
   0.50000000  0.37500000  0.00000000       0.031
  -0.37500000  0.37500000  0.00000000       0.008
   0.50000000  0.50000000  0.00000000       0.004
   0.12500000  0.12500000  0.12500000       0.016
   0.25000000  0.12500000  0.12500000       0.031
   0.37500000  0.12500000  0.12500000       0.016
  -0.12500000  0.12500000  0.12500000       0.008
   0.25000000  0.25000000  0.12500000       0.016
   0.37500000  0.25000000  0.12500000       0.031
   0.50000000  0.25000000  0.12500000       0.016
  -0.25000000  0.25000000  0.12500000       0.016
  -0.12500000  0.25000000  0.12500000       0.016
   0.37500000  0.37500000  0.12500000       0.008
  -0.37500000  0.37500000  0.12500000       0.016
  -0.25000000  0.37500000  0.12500000       0.031
  -0.12500000  0.37500000  0.12500000       0.016
   0.50000000  0.50000000  0.12500000       0.008
  -0.37500000  0.50000000  0.12500000       0.031
  -0.25000000  0.50000000  0.12500000       0.031
  -0.12500000  0.50000000  0.12500000       0.016
  -0.37500000 -0.37500000  0.12500000       0.016
  -0.25000000 -0.37500000  0.12500000       0.031
  -0.12500000 -0.37500000  0.12500000       0.016
  -0.25000000 -0.25000000  0.12500000       0.016
  -0.12500000 -0.25000000  0.12500000       0.016
  -0.12500000 -0.12500000  0.12500000       0.004
   0.25000000  0.25000000  0.25000000       0.004
  -0.25000000  0.25000000  0.25000000       0.008
  -0.37500000  0.37500000  0.25000000       0.016
  -0.25000000  0.37500000  0.25000000       0.016
   0.50000000  0.50000000  0.25000000       0.008
  -0.37500000  0.50000000  0.25000000       0.031
  -0.25000000  0.50000000  0.25000000       0.016
  -0.37500000 -0.37500000  0.25000000       0.016
  -0.25000000 -0.37500000  0.25000000       0.016
  -0.25000000 -0.25000000  0.25000000       0.004
  -0.37500000  0.37500000  0.37500000       0.008
   0.50000000  0.50000000  0.37500000       0.008
  -0.37500000  0.50000000  0.37500000       0.016
  -0.37500000 -0.37500000  0.37500000       0.004
   0.50000000  0.50000000  0.50000000       0.002
 
 position of ions in fractional coordinates (direct lattice) 
   0.25310000  0.24690000  0.50000000
   0.74690000  0.75310000  0.50000000
   0.24690000  0.74690000  0.99380000
   0.75310000  0.25310000  0.00620000
   0.25000000  0.25000000  0.00000000
   0.75000000  0.25000000  0.50000000
   0.75000000  0.75000000  0.00000000
   0.25000000  0.75000000  0.50000000
   0.50000000  0.00000000  0.50000000
   0.00000000  0.50000000  0.50000000
 
 position of ions in cartesian coordinates  (Angst):
   0.78483524  1.13891192  1.56639855
   2.26807958  3.47393505 -0.87543434
  -0.22546904  3.44533540  3.11337376
   3.27838385  1.16751157 -2.42240955
   0.76322870  1.15321174 -1.22091645
   3.26891981  1.15321174  0.34548211
   2.28968611  3.45963523 -3.66274934
  -0.21600500  3.45963523  0.34548211
   2.50569111  0.00000000  1.56639855
  -0.97923370  2.30642349  1.56639855
 


--------------------------------------------------------------------------------------------------------


 k-point   1 :   0.0000 0.0000 0.0000  plane waves:    4283
 k-point   2 :   0.1250 0.0000 0.0000  plane waves:    4284
 k-point   3 :   0.2500 0.0000 0.0000  plane waves:    4299
 k-point   4 :   0.3750 0.0000 0.0000  plane waves:    4288
 k-point   5 :   0.5000 0.0000 0.0000  plane waves:    4306
 k-point   6 :   0.1250 0.1250 0.0000  plane waves:    4278
 k-point   7 :   0.2500 0.1250 0.0000  plane waves:    4293
 k-point   8 :   0.3750 0.1250 0.0000  plane waves:    4309
 k-point   9 :   0.5000 0.1250 0.0000  plane waves:    4298
 k-point  10 :  -0.3750 0.1250 0.0000  plane waves:    4303
 k-point  11 :  -0.2500 0.1250 0.0000  plane waves:    4298
 k-point  12 :  -0.1250 0.1250 0.0000  plane waves:    4281
 k-point  13 :   0.2500 0.2500 0.0000  plane waves:    4284
 k-point  14 :   0.3750 0.2500 0.0000  plane waves:    4307
 k-point  15 :   0.5000 0.2500 0.0000  plane waves:    4301
 k-point  16 :  -0.3750 0.2500 0.0000  plane waves:    4298
 k-point  17 :  -0.2500 0.2500 0.0000  plane waves:    4313
 k-point  18 :   0.3750 0.3750 0.0000  plane waves:    4309
 k-point  19 :   0.5000 0.3750 0.0000  plane waves:    4305
 k-point  20 :  -0.3750 0.3750 0.0000  plane waves:    4308
 k-point  21 :   0.5000 0.5000 0.0000  plane waves:    4312
 k-point  22 :   0.1250 0.1250 0.1250  plane waves:    4286
 k-point  23 :   0.2500 0.1250 0.1250  plane waves:    4295
 k-point  24 :   0.3750 0.1250 0.1250  plane waves:    4302
 k-point  25 :  -0.1250 0.1250 0.1250  plane waves:    4286
 k-point  26 :   0.2500 0.2500 0.1250  plane waves:    4294
 k-point  27 :   0.3750 0.2500 0.1250  plane waves:    4304
 k-point  28 :   0.5000 0.2500 0.1250  plane waves:    4301
 k-point  29 :  -0.2500 0.2500 0.1250  plane waves:    4298
 k-point  30 :  -0.1250 0.2500 0.1250  plane waves:    4301
 k-point  31 :   0.3750 0.3750 0.1250  plane waves:    4290
 k-point  32 :  -0.3750 0.3750 0.1250  plane waves:    4306
 k-point  33 :  -0.2500 0.3750 0.1250  plane waves:    4302
 k-point  34 :  -0.1250 0.3750 0.1250  plane waves:    4293
 k-point  35 :   0.5000 0.5000 0.1250  plane waves:    4308
 k-point  36 :  -0.3750 0.5000 0.1250  plane waves:    4302
 k-point  37 :  -0.2500 0.5000 0.1250  plane waves:    4298
 k-point  38 :  -0.1250 0.5000 0.1250  plane waves:    4305
 k-point  39 :  -0.3750-0.3750 0.1250  plane waves:    4309
 k-point  40 :  -0.2500-0.3750 0.1250  plane waves:    4305
 k-point  41 :  -0.1250-0.3750 0.1250  plane waves:    4295
 k-point  42 :  -0.2500-0.2500 0.1250  plane waves:    4299
 k-point  43 :  -0.1250-0.2500 0.1250  plane waves:    4299
 k-point  44 :  -0.1250-0.1250 0.1250  plane waves:    4295
 k-point  45 :   0.2500 0.2500 0.2500  plane waves:    4296
 k-point  46 :  -0.2500 0.2500 0.2500  plane waves:    4316
 k-point  47 :  -0.3750 0.3750 0.2500  plane waves:    4299
 k-point  48 :  -0.2500 0.3750 0.2500  plane waves:    4303
 k-point  49 :   0.5000 0.5000 0.2500  plane waves:    4312
 k-point  50 :  -0.3750 0.5000 0.2500  plane waves:    4297
 k-point  51 :  -0.2500 0.5000 0.2500  plane waves:    4312
 k-point  52 :  -0.3750-0.3750 0.2500  plane waves:    4309
 k-point  53 :  -0.2500-0.3750 0.2500  plane waves:    4308
 k-point  54 :  -0.2500-0.2500 0.2500  plane waves:    4311
 k-point  55 :  -0.3750 0.3750 0.3750  plane waves:    4294
 k-point  56 :   0.5000 0.5000 0.3750  plane waves:    4302
 k-point  57 :  -0.3750 0.5000 0.3750  plane waves:    4322
 k-point  58 :  -0.3750-0.3750 0.3750  plane waves:    4330
 k-point  59 :   0.5000 0.5000 0.5000  plane waves:    4326

 maximum and minimum number of plane-waves per node :      2185     2111

 maximum number of plane-waves:      4330
 maximum index in each direction: 
   IXMAX=   11   IYMAX=   11   IZMAX=   11
   IXMIN=  -11   IYMIN=  -11   IZMIN=  -11


 parallel 3D FFT for wavefunctions:
    minimum data exchange during FFTs selected (reduces bandwidth)
 parallel 3D FFT for charge:
    minimum data exchange during FFTs selected (reduces bandwidth)


 total amount of memory used by VASP MPI-rank0   159098. kBytes
=======================================================================

   base      :      30000. kBytes
   nonl-proj :      56169. kBytes
   fftplans  :      12483. kBytes
   grid      :       9393. kBytes
   one-center:         77. kBytes
   wavefun   :      50976. kBytes
 
     INWAV:  cpu time    0.0001: real time    0.0001
 Broyden mixing: mesh for mixing (old mesh)
   NGX = 23   NGY = 23   NGZ = 23
  (NGX  = 96   NGY  = 96   NGZ  = 96)
  gives a total of  12167 points

 initial charge density was supplied:
 charge density of overlapping atoms calculated
 number of electron      76.0000000 magnetization 
 keeping initial charge density in first step


--------------------------------------------------------------------------------------------------------


 Maximum index for augmentation-charges        24309 (set IRDMAX)


--------------------------------------------------------------------------------------------------------


 First call to EWALD:  gamma=   0.351
 Maximum number of real-space cells 3x 3x 3
 Maximum number of reciprocal cells 3x 3x 3

    FEWALD:  cpu time    0.0016: real time    0.0016


--------------------------------------- Iteration      1(   1)  ---------------------------------------


    POTLOK:  cpu time    0.0970: real time    0.0979
    SETDIJ:  cpu time    0.5689: real time    0.5729
    TRIAL :  cpu time    6.2029: real time    6.2672
    CORREC:  cpu time    0.0009: real time    0.0009
    --------------------------------------------
      LOOP:  cpu time    6.8999: real time    6.9724

 eigenvalue-minimisations  :  5700
 total energy-change (2. order) : 0.7188131E+03  (-0.5106610E+04)
 number of electron      76.0000000 magnetization 
 augmentation part       76.0000000 magnetization 

 Free energy of the ion-electron system (eV)
  ---------------------------------------------------
  alpha Z        PSCENC =       374.54768767
  Ewald energy   TEWEN  =     -6275.40049063
  -Hartree energ DENC   =     -1746.90531168
  -exchange      EXHF   =         0.00000000
  -V(xc)+E(xc)   XCENC  =       330.94503413
  PAW double counting   =      6278.15209018    -6244.81064237
  entropy T*S    EENTRO =        -0.00024637
  eigenvalues    EBANDS =        62.34339344
  atomic energy  EATOM  =      7939.94160518
  ---------------------------------------------------
  free energy    TOTEN  =       718.81311955 eV

  energy without entropy =      718.81336592  energy(sigma->0) =      718.81324274


--------------------------------------------------------------------------------------------------------




--------------------------------------- Iteration      1(   2)  ---------------------------------------


    TRIAL :  cpu time    6.5701: real time    6.6365
    CORREC:  cpu time    0.0008: real time    0.0008
    --------------------------------------------
      LOOP:  cpu time    6.5733: real time    6.6401

 eigenvalue-minimisations  :  6408
 total energy-change (2. order) :-0.8469518E+03  (-0.8266987E+03)
 number of electron      76.0000000 magnetization 
 augmentation part       76.0000000 magnetization 

 Free energy of the ion-electron system (eV)
  ---------------------------------------------------
  alpha Z        PSCENC =       374.54768767
  Ewald energy   TEWEN  =     -6275.40049063
  -Hartree energ DENC   =     -1746.90531168
  -exchange      EXHF   =         0.00000000
  -V(xc)+E(xc)   XCENC  =       330.94503413
  PAW double counting   =      6278.15209018    -6244.81064237
  entropy T*S    EENTRO =        -0.00124020
  eigenvalues    EBANDS =      -784.60740503
  atomic energy  EATOM  =      7939.94160518
  ---------------------------------------------------
  free energy    TOTEN  =      -128.13867274 eV

  energy without entropy =     -128.13743254  energy(sigma->0) =     -128.13805264


--------------------------------------------------------------------------------------------------------




--------------------------------------- Iteration      1(   3)  ---------------------------------------


    TRIAL :  cpu time    7.4233: real time    7.4943
    CORREC:  cpu time    0.0009: real time    0.0009
    --------------------------------------------
      LOOP:  cpu time    7.4263: real time    7.4981

 eigenvalue-minimisations  :  7776
 total energy-change (2. order) :-0.3302216E+02  (-0.3219911E+02)
 number of electron      76.0000000 magnetization 
 augmentation part       76.0000000 magnetization 

 Free energy of the ion-electron system (eV)
  ---------------------------------------------------
  alpha Z        PSCENC =       374.54768767
  Ewald energy   TEWEN  =     -6275.40049063
  -Hartree energ DENC   =     -1746.90531168
  -exchange      EXHF   =         0.00000000
  -V(xc)+E(xc)   XCENC  =       330.94503413
  PAW double counting   =      6278.15209018    -6244.81064237
  entropy T*S    EENTRO =        -0.00184474
  eigenvalues    EBANDS =      -817.62896257
  atomic energy  EATOM  =      7939.94160518
  ---------------------------------------------------
  free energy    TOTEN  =      -161.16083483 eV

  energy without entropy =     -161.15899008  energy(sigma->0) =     -161.15991245


--------------------------------------------------------------------------------------------------------




--------------------------------------- Iteration      1(   4)  ---------------------------------------


    TRIAL :  cpu time    6.8810: real time    6.9467
    CORREC:  cpu time    0.0009: real time    0.0009
    --------------------------------------------
      LOOP:  cpu time    6.8841: real time    6.9504

 eigenvalue-minimisations  :  6888
 total energy-change (2. order) :-0.5090490E+00  (-0.5054942E+00)
 number of electron      76.0000000 magnetization 
 augmentation part       76.0000000 magnetization 

 Free energy of the ion-electron system (eV)
  ---------------------------------------------------
  alpha Z        PSCENC =       374.54768767
  Ewald energy   TEWEN  =     -6275.40049063
  -Hartree energ DENC   =     -1746.90531168
  -exchange      EXHF   =         0.00000000
  -V(xc)+E(xc)   XCENC  =       330.94503413
  PAW double counting   =      6278.15209018    -6244.81064237
  entropy T*S    EENTRO =        -0.00200339
  eigenvalues    EBANDS =      -818.13785290
  atomic energy  EATOM  =      7939.94160518
  ---------------------------------------------------
  free energy    TOTEN  =      -161.66988381 eV

  energy without entropy =     -161.66788041  energy(sigma->0) =     -161.66888211


--------------------------------------------------------------------------------------------------------




--------------------------------------- Iteration      1(   5)  ---------------------------------------


    TRIAL :  cpu time    7.4921: real time    7.5659
    CORREC:  cpu time    0.0008: real time    0.0008
    CHARGE:  cpu time    0.7892: real time    0.7959
    --------------------------------------------
      LOOP:  cpu time    8.2845: real time    8.3654

 eigenvalue-minimisations  :  7584
 total energy-change (2. order) :-0.1143114E-01  (-0.1142440E-01)
 number of electron      76.0000001 magnetization 
 augmentation part        7.9938557 magnetization 

 Free energy of the ion-electron system (eV)
  ---------------------------------------------------
  alpha Z        PSCENC =       374.54768767
  Ewald energy   TEWEN  =     -6275.40049063
  -Hartree energ DENC   =     -1746.90531168
  -exchange      EXHF   =         0.00000000
  -V(xc)+E(xc)   XCENC  =       330.94503413
  PAW double counting   =      6278.15209018    -6244.81064237
  entropy T*S    EENTRO =        -0.00200187
  eigenvalues    EBANDS =      -818.14928556
  atomic energy  EATOM  =      7939.94160518
  ---------------------------------------------------
  free energy    TOTEN  =      -161.68131494 eV

  energy without entropy =     -161.67931307  energy(sigma->0) =     -161.68031401


--------------------------------------------------------------------------------------------------------




--------------------------------------- Iteration      1(   6)  ---------------------------------------


    POTLOK:  cpu time    0.0984: real time    0.0989
    SETDIJ:  cpu time    0.5817: real time    0.5864
    TRIAL :  cpu time    4.7728: real time    4.8130
    CORREC:  cpu time    2.4951: real time    2.5147
    CHARGE:  cpu time    0.7547: real time    0.7613
    --------------------------------------------
      LOOP:  cpu time    8.7042: real time    8.7759

 eigenvalue-minimisations  :     0
 total energy-change (2. order) : 0.8734843E+02  (-0.3972277E+02)
 number of electron      76.0000007 magnetization 
 augmentation part        9.1228194 magnetization 

 Free energy of the ion-electron system (eV)
  ---------------------------------------------------
  alpha Z        PSCENC =       374.54768767
  Ewald energy   TEWEN  =     -6275.40049063
  -Hartree energ DENC   =     -1522.10345129
  -exchange      EXHF   =         0.00000000
  -V(xc)+E(xc)   XCENC  =       331.28411079
  PAW double counting   =     11659.10881070   -11648.20031248
  entropy T*S    EENTRO =        -0.00102201
  eigenvalues    EBANDS =      -933.50884562
  atomic energy  EATOM  =      7939.94160518
  ---------------------------------------------------
  free energy    TOTEN  =       -74.33288753 eV

  energy without entropy =      -74.33186553  energy(sigma->0) =      -74.33237653


--------------------------------------------------------------------------------------------------------




--------------------------------------- Iteration      1(   7)  ---------------------------------------


    POTLOK:  cpu time    0.0923: real time    0.0929
    SETDIJ:  cpu time    0.5661: real time    0.5702
    TRIAL :  cpu time    4.7446: real time    4.7850
    CORREC:  cpu time    2.5676: real time    2.5885
    CHARGE:  cpu time    0.7266: real time    0.7325
    --------------------------------------------
      LOOP:  cpu time    8.6979: real time    8.7709

 eigenvalue-minimisations  :     0
 total energy-change (2. order) :-0.4290329E+02  (-0.6474629E+01)
 number of electron      76.0000002 magnetization 
 augmentation part        9.4664252 magnetization 

 Free energy of the ion-electron system (eV)
  ---------------------------------------------------
  alpha Z        PSCENC =       374.54768767
  Ewald energy   TEWEN  =     -6275.40049063
  -Hartree energ DENC   =     -1574.01401480
  -exchange      EXHF   =         0.00000000
  -V(xc)+E(xc)   XCENC  =       334.84994208
  PAW double counting   =     11557.89489330   -11541.89404814
  entropy T*S    EENTRO =        -0.00092981
  eigenvalues    EBANDS =      -933.16072760
  atomic energy  EATOM  =      7939.94160518
  ---------------------------------------------------
  free energy    TOTEN  =      -117.23617494 eV

  energy without entropy =     -117.23524513  energy(sigma->0) =     -117.23571004


--------------------------------------------------------------------------------------------------------




--------------------------------------- Iteration      1(   8)  ---------------------------------------


    POTLOK:  cpu time    0.0915: real time    0.0920
    SETDIJ:  cpu time    0.5791: real time    0.5832
    TRIAL :  cpu time    4.8960: real time    4.9376
    CORREC:  cpu time    2.5410: real time    2.5604
    CHARGE:  cpu time    0.7648: real time    0.7715
    --------------------------------------------
      LOOP:  cpu time    8.8765: real time    8.9494

 eigenvalue-minimisations  :     0
 total energy-change (2. order) :-0.6578699E+01  (-0.1490182E+01)
 number of electron      76.0000001 magnetization 
 augmentation part        9.4304587 magnetization 

 Free energy of the ion-electron system (eV)
  ---------------------------------------------------
  alpha Z        PSCENC =       374.54768767
  Ewald energy   TEWEN  =     -6275.40049063
  -Hartree energ DENC   =     -1652.74923610
  -exchange      EXHF   =         0.00000000
  -V(xc)+E(xc)   XCENC  =       337.98654217
  PAW double counting   =     11452.59284630   -11430.29866548
  entropy T*S    EENTRO =        -0.00162677
  eigenvalues    EBANDS =      -870.43423333
  atomic energy  EATOM  =      7939.94160518
  ---------------------------------------------------
  free energy    TOTEN  =      -123.81487403 eV

  energy without entropy =     -123.81324725  energy(sigma->0) =     -123.81406064


--------------------------------------------------------------------------------------------------------




--------------------------------------- Iteration      1(   9)  ---------------------------------------


    POTLOK:  cpu time    0.0928: real time    0.0933
    SETDIJ:  cpu time    0.5844: real time    0.5887
    TRIAL :  cpu time    4.8285: real time    4.8682
    CORREC:  cpu time    2.4520: real time    2.4714
    CHARGE:  cpu time    0.7449: real time    0.7509
    --------------------------------------------
      LOOP:  cpu time    8.7053: real time    8.7761

 eigenvalue-minimisations  :     0
 total energy-change (2. order) :-0.1496246E+01  (-0.6430151E+00)
 number of electron      76.0000001 magnetization 
 augmentation part        9.3777187 magnetization 

 Free energy of the ion-electron system (eV)
  ---------------------------------------------------
  alpha Z        PSCENC =       374.54768767
  Ewald energy   TEWEN  =     -6275.40049063
  -Hartree energ DENC   =     -1670.71739500
  -exchange      EXHF   =         0.00000000
  -V(xc)+E(xc)   XCENC  =       338.50568634
  PAW double counting   =     11442.12890926   -11417.80436813
  entropy T*S    EENTRO =        -0.00101699
  eigenvalues    EBANDS =      -856.51112758
  atomic energy  EATOM  =      7939.94160518
  ---------------------------------------------------
  free energy    TOTEN  =      -125.31111965 eV

  energy without entropy =     -125.31010266  energy(sigma->0) =     -125.31061116


--------------------------------------------------------------------------------------------------------




--------------------------------------- Iteration      1(  10)  ---------------------------------------


    POTLOK:  cpu time    0.0991: real time    0.0997
    SETDIJ:  cpu time    0.5627: real time    0.5666
    TRIAL :  cpu time    4.8271: real time    4.8670
    CORREC:  cpu time    2.5088: real time    2.5292
    CHARGE:  cpu time    0.7409: real time    0.7471
    --------------------------------------------
      LOOP:  cpu time    8.7400: real time    8.8113

 eigenvalue-minimisations  :     0
 total energy-change (2. order) :-0.6430524E+00  (-0.2553383E+00)
 number of electron      76.0000001 magnetization 
 augmentation part        9.3865494 magnetization 

 Free energy of the ion-electron system (eV)
  ---------------------------------------------------
  alpha Z        PSCENC =       374.54768767
  Ewald energy   TEWEN  =     -6275.40049063
  -Hartree energ DENC   =     -1670.30397998
  -exchange      EXHF   =         0.00000000
  -V(xc)+E(xc)   XCENC  =       338.50354744
  PAW double counting   =     11565.53267186   -11540.04991940
  entropy T*S    EENTRO =        -0.00112512
  eigenvalues    EBANDS =      -858.72427723
  atomic energy  EATOM  =      7939.94160518
  ---------------------------------------------------
  free energy    TOTEN  =      -125.95417207 eV

  energy without entropy =     -125.95304696  energy(sigma->0) =     -125.95360951


--------------------------------------------------------------------------------------------------------




--------------------------------------- Iteration      1(  11)  ---------------------------------------


    POTLOK:  cpu time    0.0906: real time    0.0912
    SETDIJ:  cpu time    0.5781: real time    0.5824
    TRIAL :  cpu time    4.8419: real time    4.8816
    CORREC:  cpu time    2.5296: real time    2.5488
    CHARGE:  cpu time    0.7638: real time    0.7702
    --------------------------------------------
      LOOP:  cpu time    8.8067: real time    8.8777

 eigenvalue-minimisations  :     0
 total energy-change (2. order) :-0.2554834E+00  (-0.1052601E+00)
 number of electron      76.0000001 magnetization 
 augmentation part        9.4066088 magnetization 

 Free energy of the ion-electron system (eV)
  ---------------------------------------------------
  alpha Z        PSCENC =       374.54768767
  Ewald energy   TEWEN  =     -6275.40049063
  -Hartree energ DENC   =     -1671.46611621
  -exchange      EXHF   =         0.00000000
  -V(xc)+E(xc)   XCENC  =       338.66970511
  PAW double counting   =     11641.66288470   -11615.41512998
  entropy T*S    EENTRO =        -0.00123337
  eigenvalues    EBANDS =      -858.74867619
  atomic energy  EATOM  =      7939.94160518
  ---------------------------------------------------
  free energy    TOTEN  =      -126.20965546 eV

  energy without entropy =     -126.20842209  energy(sigma->0) =     -126.20903877


--------------------------------------------------------------------------------------------------------




--------------------------------------- Iteration      1(  12)  ---------------------------------------


    POTLOK:  cpu time    0.0893: real time    0.0898
    SETDIJ:  cpu time    0.5823: real time    0.5865
    TRIAL :  cpu time    4.9826: real time    5.0259
    CORREC:  cpu time    2.4827: real time    2.5030
    CHARGE:  cpu time    0.7430: real time    0.7496
    --------------------------------------------
      LOOP:  cpu time    8.8833: real time    8.9588

 eigenvalue-minimisations  :     0
 total energy-change (2. order) :-0.1052817E+00  (-0.8039279E-01)
 number of electron      76.0000001 magnetization 
 augmentation part        9.4335597 magnetization 

 Free energy of the ion-electron system (eV)
  ---------------------------------------------------
  alpha Z        PSCENC =       374.54768767
  Ewald energy   TEWEN  =     -6275.40049063
  -Hartree energ DENC   =     -1674.49221004
  -exchange      EXHF   =         0.00000000
  -V(xc)+E(xc)   XCENC  =       338.81915910
  PAW double counting   =     11641.95983527   -11615.40643627
  entropy T*S    EENTRO =        -0.00056626
  eigenvalues    EBANDS =      -856.28285410
  atomic energy  EATOM  =      7939.94160518
  ---------------------------------------------------
  free energy    TOTEN  =      -126.31493718 eV

  energy without entropy =     -126.31437092  energy(sigma->0) =     -126.31465405


--------------------------------------------------------------------------------------------------------




--------------------------------------- Iteration      1(  13)  ---------------------------------------


    POTLOK:  cpu time    0.0907: real time    0.0913
    SETDIJ:  cpu time    0.5798: real time    0.5842
    TRIAL :  cpu time    4.8310: real time    4.8732
    CORREC:  cpu time    2.4822: real time    2.5022
    CHARGE:  cpu time    0.7412: real time    0.7479
    --------------------------------------------
      LOOP:  cpu time    8.7278: real time    8.8020

 eigenvalue-minimisations  :     0
 total energy-change (2. order) :-0.7956181E-01  (-0.3676351E-01)
 number of electron      76.0000002 magnetization 
 augmentation part        9.4219534 magnetization 

 Free energy of the ion-electron system (eV)
  ---------------------------------------------------
  alpha Z        PSCENC =       374.54768767
  Ewald energy   TEWEN  =     -6275.40049063
  -Hartree energ DENC   =     -1678.01230396
  -exchange      EXHF   =         0.00000000
  -V(xc)+E(xc)   XCENC  =       338.94724979
  PAW double counting   =     11643.44612884   -11616.74306344
  entropy T*S    EENTRO =        -0.00059653
  eigenvalues    EBANDS =      -853.12074620
  atomic energy  EATOM  =      7939.94160518
  ---------------------------------------------------
  free energy    TOTEN  =      -126.39449900 eV

  energy without entropy =     -126.39390247  energy(sigma->0) =     -126.39420073


--------------------------------------------------------------------------------------------------------




--------------------------------------- Iteration      1(  14)  ---------------------------------------


    POTLOK:  cpu time    0.0917: real time    0.0923
    SETDIJ:  cpu time    0.5720: real time    0.5761
    TRIAL :  cpu time    4.7204: real time    4.7604
    CORREC:  cpu time    2.5480: real time    2.5691
    CHARGE:  cpu time    0.7470: real time    0.7536
    --------------------------------------------
      LOOP:  cpu time    8.6815: real time    8.7546

 eigenvalue-minimisations  :     0
 total energy-change (2. order) :-0.3677110E-01  (-0.2438890E-01)
 number of electron      76.0000002 magnetization 
 augmentation part        9.3991097 magnetization 

 Free energy of the ion-electron system (eV)
  ---------------------------------------------------
  alpha Z        PSCENC =       374.54768767
  Ewald energy   TEWEN  =     -6275.40049063
  -Hartree energ DENC   =     -1676.36954249
  -exchange      EXHF   =         0.00000000
  -V(xc)+E(xc)   XCENC  =       338.86231824
  PAW double counting   =     11660.11074328   -11633.56084692
  entropy T*S    EENTRO =        -0.00086643
  eigenvalues    EBANDS =      -854.56214791
  atomic energy  EATOM  =      7939.94160518
  ---------------------------------------------------
  free energy    TOTEN  =      -126.43127010 eV

  energy without entropy =     -126.43040367  energy(sigma->0) =     -126.43083689


--------------------------------------------------------------------------------------------------------




--------------------------------------- Iteration      1(  15)  ---------------------------------------


    POTLOK:  cpu time    0.0910: real time    0.0915
    SETDIJ:  cpu time    0.5708: real time    0.5750
    TRIAL :  cpu time    4.7865: real time    4.8255
    CORREC:  cpu time    2.5372: real time    2.5570
    CHARGE:  cpu time    0.7608: real time    0.7670
    --------------------------------------------
      LOOP:  cpu time    8.7490: real time    8.8190

 eigenvalue-minimisations  :     0
 total energy-change (2. order) :-0.2427391E-01  (-0.1253163E-01)
 number of electron      76.0000002 magnetization 
 augmentation part        9.4103004 magnetization 

 Free energy of the ion-electron system (eV)
  ---------------------------------------------------
  alpha Z        PSCENC =       374.54768767
  Ewald energy   TEWEN  =     -6275.40049063
  -Hartree energ DENC   =     -1674.12290799
  -exchange      EXHF   =         0.00000000
  -V(xc)+E(xc)   XCENC  =       338.73591945
  PAW double counting   =     11661.48751004   -11635.15485932
  entropy T*S    EENTRO =        -0.00102695
  eigenvalues    EBANDS =      -856.48914198
  atomic energy  EATOM  =      7939.94160518
  ---------------------------------------------------
  free energy    TOTEN  =      -126.45554401 eV

  energy without entropy =     -126.45451706  energy(sigma->0) =     -126.45503053


--------------------------------------------------------------------------------------------------------




--------------------------------------- Iteration      1(  16)  ---------------------------------------


    POTLOK:  cpu time    0.0891: real time    0.0896
    SETDIJ:  cpu time    0.5855: real time    0.5898
    TRIAL :  cpu time    4.8386: real time    4.8800
    CORREC:  cpu time    2.4998: real time    2.5189
    CHARGE:  cpu time    0.7264: real time    0.7325
    --------------------------------------------
      LOOP:  cpu time    8.7413: real time    8.8140

 eigenvalue-minimisations  :     0
 total energy-change (2. order) :-0.1251415E-01  (-0.4466630E-02)
 number of electron      76.0000002 magnetization 
 augmentation part        9.4166649 magnetization 

 Free energy of the ion-electron system (eV)
  ---------------------------------------------------
  alpha Z        PSCENC =       374.54768767
  Ewald energy   TEWEN  =     -6275.40049063
  -Hartree energ DENC   =     -1675.95553721
  -exchange      EXHF   =         0.00000000
  -V(xc)+E(xc)   XCENC  =       338.82750666
  PAW double counting   =     11647.68537466   -11621.19822864
  entropy T*S    EENTRO =        -0.00107947
  eigenvalues    EBANDS =      -854.91494891
  atomic energy  EATOM  =      7939.94160518
  ---------------------------------------------------
  free energy    TOTEN  =      -126.46805816 eV

  energy without entropy =     -126.46697868  energy(sigma->0) =     -126.46751842


--------------------------------------------------------------------------------------------------------




--------------------------------------- Iteration      1(  17)  ---------------------------------------


    POTLOK:  cpu time    0.0899: real time    0.0905
    SETDIJ:  cpu time    0.5653: real time    0.5694
    TRIAL :  cpu time    4.7857: real time    4.8252
    CORREC:  cpu time    2.5178: real time    2.5371
    CHARGE:  cpu time    0.7602: real time    0.7665
    --------------------------------------------
      LOOP:  cpu time    8.7203: real time    8.7909

 eigenvalue-minimisations  :     0
 total energy-change (2. order) :-0.4456800E-02  (-0.2202008E-02)
 number of electron      76.0000002 magnetization 
 augmentation part        9.4136074 magnetization 

 Free energy of the ion-electron system (eV)
  ---------------------------------------------------
  alpha Z        PSCENC =       374.54768767
  Ewald energy   TEWEN  =     -6275.40049063
  -Hartree energ DENC   =     -1676.32679281
  -exchange      EXHF   =         0.00000000
  -V(xc)+E(xc)   XCENC  =       338.86202973
  PAW double counting   =     11633.99502603   -11607.43524190
  entropy T*S    EENTRO =        -0.00113152
  eigenvalues    EBANDS =      -854.65525877
  atomic energy  EATOM  =      7939.94160518
  ---------------------------------------------------
  free energy    TOTEN  =      -126.47251496 eV

  energy without entropy =     -126.47138343  energy(sigma->0) =     -126.47194919


--------------------------------------------------------------------------------------------------------




--------------------------------------- Iteration      1(  18)  ---------------------------------------


    POTLOK:  cpu time    0.0893: real time    0.0899
    SETDIJ:  cpu time    0.5876: real time    0.5920
    TRIAL :  cpu time    4.8410: real time    4.8834
    CORREC:  cpu time    2.5723: real time    2.5936
    CHARGE:  cpu time    0.7686: real time    0.7753
    --------------------------------------------
      LOOP:  cpu time    8.8605: real time    8.9369

 eigenvalue-minimisations  :     0
 total energy-change (2. order) :-0.2202635E-02  (-0.1387817E-02)
 number of electron      76.0000002 magnetization 
 augmentation part        9.4108919 magnetization 

 Free energy of the ion-electron system (eV)
  ---------------------------------------------------
  alpha Z        PSCENC =       374.54768767
  Ewald energy   TEWEN  =     -6275.40049063
  -Hartree energ DENC   =     -1675.63242682
  -exchange      EXHF   =         0.00000000
  -V(xc)+E(xc)   XCENC  =       338.83170693
  PAW double counting   =     11622.35204536   -11595.84008825
  entropy T*S    EENTRO =        -0.00110094
  eigenvalues    EBANDS =      -855.27362551
  atomic energy  EATOM  =      7939.94160518
  ---------------------------------------------------
  free energy    TOTEN  =      -126.47471759 eV

  energy without entropy =     -126.47361666  energy(sigma->0) =     -126.47416712


--------------------------------------------------------------------------------------------------------




--------------------------------------- Iteration      1(  19)  ---------------------------------------


    POTLOK:  cpu time    0.0895: real time    0.0901
    SETDIJ:  cpu time    0.5895: real time    0.5938
    TRIAL :  cpu time    4.9860: real time    5.0283
    CORREC:  cpu time    2.4914: real time    2.5107
    CHARGE:  cpu time    0.7379: real time    0.7447
    --------------------------------------------
      LOOP:  cpu time    8.8971: real time    8.9706

 eigenvalue-minimisations  :     0
 total energy-change (2. order) :-0.1385761E-02  (-0.6340280E-03)
 number of electron      76.0000002 magnetization 
 augmentation part        9.4128180 magnetization 

 Free energy of the ion-electron system (eV)
  ---------------------------------------------------
  alpha Z        PSCENC =       374.54768767
  Ewald energy   TEWEN  =     -6275.40049063
  -Hartree energ DENC   =     -1675.17700301
  -exchange      EXHF   =         0.00000000
  -V(xc)+E(xc)   XCENC  =       338.80668396
  PAW double counting   =     11621.49645543   -11595.03697672
  entropy T*S    EENTRO =        -0.00106366
  eigenvalues    EBANDS =      -855.65296432
  atomic energy  EATOM  =      7939.94160518
  ---------------------------------------------------
  free energy    TOTEN  =      -126.47610335 eV

  energy without entropy =     -126.47503969  energy(sigma->0) =     -126.47557152


--------------------------------------------------------------------------------------------------------




--------------------------------------- Iteration      1(  20)  ---------------------------------------


    POTLOK:  cpu time    0.0911: real time    0.0918
    SETDIJ:  cpu time    0.5687: real time    0.5726
    TRIAL :  cpu time    4.8856: real time    4.9271
    CORREC:  cpu time    2.4787: real time    2.4981
    CHARGE:  cpu time    0.7589: real time    0.7655
    --------------------------------------------
      LOOP:  cpu time    8.7851: real time    8.8580

 eigenvalue-minimisations  :     0
 total energy-change (2. order) :-0.6318036E-03  (-0.3659353E-03)
 number of electron      76.0000002 magnetization 
 augmentation part        9.4122588 magnetization 

 Free energy of the ion-electron system (eV)
  ---------------------------------------------------
  alpha Z        PSCENC =       374.54768767
  Ewald energy   TEWEN  =     -6275.40049063
  -Hartree energ DENC   =     -1675.57539454
  -exchange      EXHF   =         0.00000000
  -V(xc)+E(xc)   XCENC  =       338.82249412
  PAW double counting   =     11628.85662735   -11602.38581576
  entropy T*S    EENTRO =        -0.00106844
  eigenvalues    EBANDS =      -855.28238489
  atomic energy  EATOM  =      7939.94160518
  ---------------------------------------------------
  free energy    TOTEN  =      -126.47673516 eV

  energy without entropy =     -126.47566672  energy(sigma->0) =     -126.47620094


--------------------------------------------------------------------------------------------------------




--------------------------------------- Iteration      1(  21)  ---------------------------------------


    POTLOK:  cpu time    0.0916: real time    0.0922
    SETDIJ:  cpu time    0.5627: real time    0.5667
    TRIAL :  cpu time    4.7117: real time    4.7521
    CORREC:  cpu time    2.4992: real time    2.5187
    CHARGE:  cpu time    0.7348: real time    0.7412
    --------------------------------------------
      LOOP:  cpu time    8.6010: real time    8.6727

 eigenvalue-minimisations  :     0
 total energy-change (2. order) :-0.3660028E-03  (-0.2376863E-03)
 number of electron      76.0000002 magnetization 
 augmentation part        9.4108766 magnetization 

 Free energy of the ion-electron system (eV)
  ---------------------------------------------------
  alpha Z        PSCENC =       374.54768767
  Ewald energy   TEWEN  =     -6275.40049063
  -Hartree energ DENC   =     -1675.61043832
  -exchange      EXHF   =         0.00000000
  -V(xc)+E(xc)   XCENC  =       338.82250750
  PAW double counting   =     11634.37423825   -11607.91322059
  entropy T*S    EENTRO =        -0.00105582
  eigenvalues    EBANDS =      -855.23792179
  atomic energy  EATOM  =      7939.94160518
  ---------------------------------------------------
[...]
     16     -26.3726      2.00000
     17      -2.0911      2.00000
     18      -1.5122      2.00000
     19       0.5562      2.00000
     20       1.3060      2.00000
     21       1.5164      2.00000
     22       2.2294      2.00000
     23       3.4333      2.00000
     24       4.5259      2.00000
     25       4.8338      2.00000
     26       4.9759      2.00000
     27       5.2656      2.00000
     28       5.3572      2.00000
     29       5.8216      2.00000
     30       6.0489      2.00000
     31       6.8474      2.00000
     32       7.5354      2.00000
     33       7.5413      2.00000
     34       7.7822      2.00000
     35       8.3878      2.00000
     36       8.9741      2.00000
     37       9.1846      2.00000
     38       9.7863      0.00000
     39       9.8164      0.00000
     40      10.4100      0.00000
     41      10.6237      0.00000
     42      11.1577      0.00000
     43      11.2337      0.00000
     44      11.9744      0.00000
     45      12.3166      0.00000
     46      12.6263      0.00000
     47      12.9080      0.00000
     48      13.2287      0.00000

 k-point    51 :      -0.2500    0.5000    0.2500
  band No.  band energies     occupation 
      1     -53.7867      2.00000
      2     -53.7852      2.00000
      3     -53.2000      2.00000
      4     -53.1813      2.00000
      5     -28.0448      2.00000
      6     -27.8965      2.00000
      7     -27.2323      2.00000
      8     -27.1987      2.00000
      9     -27.1977      2.00000
     10     -27.1622      2.00000
     11     -27.0732      2.00000
     12     -27.0401      2.00000
     13     -26.4138      2.00000
     14     -26.3993      2.00000
     15     -26.3736      2.00000
     16     -26.3608      2.00000
     17      -1.8859      2.00000
     18      -1.8281      2.00000
     19       0.8548      2.00000
     20       0.9408      2.00000
     21       1.6393      2.00000
     22       2.1638      2.00000
     23       3.7776      2.00000
     24       4.4225      2.00000
     25       4.4457      2.00000
     26       4.8577      2.00000
     27       5.3668      2.00000
     28       5.4511      2.00000
     29       5.9217      2.00000
     30       6.4962      2.00000
     31       6.7132      2.00000
     32       7.5940      2.00000
     33       7.7455      2.00000
     34       7.9287      2.00000
     35       8.4945      2.00000
     36       8.9799      2.00000
     37       9.1037      2.00000
     38       9.4030      1.52364
     39       9.8337      0.00000
     40      10.2117      0.00000
     41      10.4830      0.00000
     42      10.9643      0.00000
     43      11.2887      0.00000
     44      11.8704      0.00000
     45      12.1771      0.00000
     46      12.4055      0.00000
     47      12.6993      0.00000
     48      12.9393      0.00000

 k-point    52 :      -0.3750   -0.3750    0.2500
  band No.  band energies     occupation 
      1     -53.7872      2.00000
      2     -53.7850      2.00000
      3     -53.2000      2.00000
      4     -53.1808      2.00000
      5     -28.0455      2.00000
      6     -27.8962      2.00000
      7     -27.2263      2.00000
      8     -27.2250      2.00000
      9     -27.1862      2.00000
     10     -27.1846      2.00000
     11     -27.0729      2.00000
     12     -27.0400      2.00000
     13     -26.3873      2.00000
     14     -26.3854      2.00000
     15     -26.3708      2.00000
     16     -26.3694      2.00000
     17      -1.9068      2.00000
     18      -1.6920      2.00000
     19       0.5423      2.00000
     20       1.0431      2.00000
     21       1.8105      2.00000
     22       2.3460      2.00000
     23       3.6347      2.00000
     24       4.1426      2.00000
     25       4.1544      2.00000
     26       4.7967      2.00000
     27       5.3604      2.00000
     28       5.3695      2.00000
     29       5.8798      2.00000
     30       6.2703      2.00000
     31       6.6299      2.00000
     32       7.5125      2.00000
     33       8.0030      2.00000
     34       8.2035      2.00000
     35       8.3146      2.00000
     36       9.0391      2.00000
     37       9.2792      2.00000
     38       9.4881      0.00000
     39       9.7768      0.00000
     40      10.2861      0.00000
     41      10.8787      0.00000
     42      11.0278      0.00000
     43      11.4543      0.00000
     44      12.3091      0.00000
     45      12.5360      0.00000
     46      12.7230      0.00000
     47      12.9175      0.00000
     48      13.3591      0.00000

 k-point    53 :      -0.2500   -0.3750    0.2500
  band No.  band energies     occupation 
      1     -53.7879      2.00000
      2     -53.7846      2.00000
      3     -53.1962      2.00000
      4     -53.1843      2.00000
      5     -28.0131      2.00000
      6     -27.9292      2.00000
      7     -27.2358      2.00000
      8     -27.2261      2.00000
      9     -27.1954      2.00000
     10     -27.1850      2.00000
     11     -27.0649      2.00000
     12     -27.0478      2.00000
     13     -26.3874      2.00000
     14     -26.3759      2.00000
     15     -26.3689      2.00000
     16     -26.3581      2.00000
     17      -2.3272      2.00000
     18      -1.3039      2.00000
     19       0.5589      2.00000
     20       0.6225      2.00000
     21       2.2280      2.00000
     22       2.4472      2.00000
     23       3.6964      2.00000
     24       4.0363      2.00000
     25       4.2018      2.00000
     26       4.7081      2.00000
     27       5.6047      2.00000
     28       5.6088      2.00000
     29       5.9264      2.00000
     30       6.5105      2.00000
     31       6.8413      2.00000
     32       7.5027      2.00000
     33       8.2618      2.00000
     34       8.4680      2.00000
     35       8.4853      2.00000
     36       8.8458      2.00000
     37       9.1482      2.00000
     38       9.1730      2.00000
     39       9.7128      0.00000
     40       9.8205      0.00000
     41      10.1442      0.00000
     42      10.1992      0.00000
     43      11.5362      0.00000
     44      12.3718      0.00000
     45      12.4416      0.00000
     46      12.7869      0.00000
     47      12.8551      0.00000
     48      13.2908      0.00000

 k-point    54 :      -0.2500   -0.2500    0.2500
  band No.  band energies     occupation 
      1     -53.7887      2.00000
      2     -53.7841      2.00000
      3     -53.1918      2.00000
      4     -53.1884      2.00000
      5     -27.9746      2.00000
      6     -27.9680      2.00000
      7     -27.2362      2.00000
      8     -27.2361      2.00000
      9     -27.1951      2.00000
     10     -27.1950      2.00000
     11     -27.0569      2.00000
     12     -27.0555      2.00000
     13     -26.3771      2.00000
     14     -26.3770      2.00000
     15     -26.3568      2.00000
     16     -26.3568      2.00000
     17      -2.7611      2.00000
     18      -0.7356      2.00000
     19       0.3234      2.00000
     20       0.3235      2.00000
     21       2.8173      2.00000
     22       2.8173      2.00000
     23       3.0825      2.00000
     24       3.9609      2.00000
     25       4.4051      2.00000
     26       5.1314      2.00000
     27       5.8724      2.00000
     28       5.9711      2.00000
     29       5.9712      2.00000
     30       6.3963      2.00000
     31       7.4455      2.00000
     32       7.5016      2.00000
     33       8.1218      2.00000
     34       8.6677      2.00000
     35       8.6678      2.00000
     36       8.7431      2.00000
     37       8.8679      2.00000
     38       9.2182      2.00000
     39       9.2182      2.00000
     40       9.2957      2.00000
     41       9.5567      0.00000
     42       9.5567      0.00000
     43      11.6346      0.00000
     44      12.0073      0.00000
     45      12.2860      0.00000
     46      12.6756      0.00000
     47      12.6761      0.00000
     48      13.5627      0.00000

 k-point    55 :      -0.3750    0.3750    0.3750
  band No.  band energies     occupation 
      1     -53.7864      2.00000
      2     -53.7855      2.00000
      3     -53.2034      2.00000
      4     -53.1779      2.00000
      5     -28.0742      2.00000
      6     -27.8664      2.00000
      7     -27.2333      2.00000
      8     -27.1986      2.00000
      9     -27.1977      2.00000
     10     -27.1614      2.00000
     11     -27.0803      2.00000
     12     -27.0330      2.00000
     13     -26.4133      2.00000
     14     -26.3997      2.00000
     15     -26.3732      2.00000
     16     -26.3611      2.00000
     17      -2.1215      2.00000
     18      -1.4380      2.00000
     19       1.0054      2.00000
     20       1.0206      2.00000
     21       1.5279      2.00000
     22       2.0739      2.00000
     23       3.2015      2.00000
     24       4.3896      2.00000
     25       4.9950      2.00000
     26       5.0309      2.00000
     27       5.1898      2.00000
     28       5.2446      2.00000
     29       5.6490      2.00000
     30       5.7884      2.00000
     31       6.8210      2.00000
     32       7.5246      2.00000
     33       7.5618      2.00000
     34       7.6691      2.00000
     35       8.3302      2.00000
     36       9.0608      2.00000
     37       9.4075      1.30733
     38       9.9516      0.00000
     39      10.2186      0.00000
     40      10.4782      0.00000
     41      10.4980      0.00000
     42      11.2256      0.00000
     43      11.3280      0.00000
     44      12.4850      0.00000
     45      12.8001      0.00000
     46      12.8219      0.00000
     47      12.8671      0.00000
     48      13.6248      0.00000

 k-point    56 :       0.5000    0.5000    0.3750
  band No.  band energies     occupation 
      1     -53.7869      2.00000
      2     -53.7854      2.00000
      3     -53.2034      2.00000
      4     -53.1774      2.00000
      5     -28.0749      2.00000
      6     -27.8661      2.00000
      7     -27.2273      2.00000
      8     -27.2260      2.00000
      9     -27.1854      2.00000
     10     -27.1837      2.00000
     11     -27.0799      2.00000
     12     -27.0329      2.00000
     13     -26.3869      2.00000
     14     -26.3850      2.00000
     15     -26.3712      2.00000
     16     -26.3697      2.00000
     17      -1.9444      2.00000
     18      -1.5012      2.00000
     19       0.6735      2.00000
     20       1.2005      2.00000
     21       1.7142      2.00000
     22       2.1621      2.00000
     23       3.0472      2.00000
     24       4.0248      2.00000
     25       4.8711      2.00000
     26       5.0109      2.00000
     27       5.0838      2.00000
     28       5.1495      2.00000
     29       5.2588      2.00000
     30       5.8008      2.00000
     31       6.7058      2.00000
     32       7.4778      2.00000
     33       7.8178      2.00000
     34       8.0435      2.00000
     35       8.1521      2.00000
     36       8.9496      2.00000
     37       9.7057      0.00000
     38       9.9173      0.00000
     39      10.4303      0.00000
     40      10.5274      0.00000
     41      10.7662      0.00000
     42      11.4891      0.00000
     43      11.9700      0.00000
     44      12.9070      0.00000
     45      12.9607      0.00000
     46      13.0204      0.00000
     47      13.3452      0.00000
     48      13.5266      0.00000

 k-point    57 :      -0.3750    0.5000    0.3750
  band No.  band energies     occupation 
      1     -53.7873      2.00000
      2     -53.7853      2.00000
      3     -53.2025      2.00000
      4     -53.1780      2.00000
      5     -28.0677      2.00000
      6     -27.8738      2.00000
      7     -27.2377      2.00000
      8     -27.2280      2.00000
      9     -27.1938      2.00000
     10     -27.1834      2.00000
     11     -27.0779      2.00000
     12     -27.0346      2.00000
     13     -26.3867      2.00000
     14     -26.3752      2.00000
     15     -26.3695      2.00000
     16     -26.3586      2.00000
     17      -1.8062      2.00000
     18      -1.6493      2.00000
     19       0.8644      2.00000
     20       0.8668      2.00000
     21       1.9570      2.00000
     22       2.1314      2.00000
     23       3.1336      2.00000
     24       3.8746      2.00000
     25       4.4262      2.00000
     26       4.9293      2.00000
     27       5.1292      2.00000
     28       5.1481      2.00000
     29       5.5271      2.00000
     30       5.8147      2.00000
     31       6.6257      2.00000
     32       7.4659      2.00000
     33       7.9599      2.00000
     34       8.1651      2.00000
     35       8.1724      2.00000
     36       9.0299      2.00000
     37       9.7522      0.00000
     38       9.9476      0.00000
     39      10.0209      0.00000
     40      10.6661      0.00000
     41      11.0726      0.00000
     42      11.5786      0.00000
     43      12.1101      0.00000
     44      12.1605      0.00000
     45      12.9187      0.00000
     46      12.9780      0.00000
     47      13.1424      0.00000
     48      13.5712      0.00000

 k-point    58 :      -0.3750   -0.3750    0.3750
  band No.  band energies     occupation 
      1     -53.7878      2.00000
      2     -53.7850      2.00000
      3     -53.2000      2.00000
      4     -53.1803      2.00000
      5     -28.0463      2.00000
      6     -27.8960      2.00000
      7     -27.2386      2.00000
      8     -27.2386      2.00000
      9     -27.1930      2.00000
     10     -27.1929      2.00000
     11     -27.0725      2.00000
     12     -27.0398      2.00000
     13     -26.3762      2.00000
     14     -26.3761      2.00000
     15     -26.3575      2.00000
     16     -26.3575      2.00000
     17      -1.9865      2.00000
     18      -1.5052      2.00000
     19       0.6971      2.00000
     20       0.6972      2.00000
     21       2.2792      2.00000
     22       2.2793      2.00000
     23       3.4908      2.00000
     24       3.7996      2.00000
     25       3.8301      2.00000
     26       4.7479      2.00000
     27       5.3052      2.00000
     28       5.3052      2.00000
     29       5.8298      2.00000
     30       6.0391      2.00000
     31       6.5254      2.00000
     32       7.4516      2.00000
     33       8.2245      2.00000
     34       8.2246      2.00000
     35       8.3926      2.00000
     36       9.1117      2.00000
     37       9.6092      0.00000
     38       9.8598      0.00000
     39       9.8598      0.00000
     40       9.9775      0.00000
     41      11.2192      0.00000
     42      11.2192      0.00000
     43      11.6660      0.00000
     44      11.9750      0.00000
     45      12.8170      0.00000
     46      13.0811      0.00000
     47      13.7082      0.00000
     48      13.7124      0.00000

 k-point    59 :       0.5000    0.5000    0.5000
  band No.  band energies     occupation 
      1     -53.7875      2.00000
      2     -53.7853      2.00000
      3     -53.2034      2.00000
      4     -53.1769      2.00000
      5     -28.0757      2.00000
      6     -27.8659      2.00000
      7     -27.2396      2.00000
      8     -27.2396      2.00000
      9     -27.1921      2.00000
     10     -27.1920      2.00000
     11     -27.0795      2.00000
     12     -27.0327      2.00000
     13     -26.3758      2.00000
     14     -26.3758      2.00000
     15     -26.3578      2.00000
     16     -26.3578      2.00000
     17      -1.7801      2.00000
     18      -1.5653      2.00000
     19       0.8795      2.00000
     20       0.8796      2.00000
     21       2.0947      2.00000
     22       2.0948      2.00000
     23       2.8857      2.00000
     24       3.6270      2.00000
     25       4.7599      2.00000
     26       4.8214      2.00000
     27       4.9795      2.00000
     28       5.0142      2.00000
     29       5.0142      2.00000
     30       5.7940      2.00000
     31       6.5813      2.00000
     32       7.4267      2.00000
     33       8.0674      2.00000
     34       8.0674      2.00000
     35       8.2617      2.00000
     36       9.0413      2.00000
     37       9.9956      0.00000
     38       9.9956      0.00000
     39      10.5483      0.00000
     40      10.7274      0.00000
     41      11.0034      0.00000
     42      11.6786      0.00000
     43      12.8977      0.00000
     44      12.8977      0.00000
     45      13.3650      0.00000
     46      13.9376      0.00000
     47      14.0097      0.00000
     48      14.1299      0.00000


--------------------------------------------------------------------------------------------------------


 soft charge-density along one line, spin component           1
         0         1         2         3         4         5         6         7         8         9
 total charge-density along one line
 
 pseudopotential strength for first ion, spin component:           1
  5.958   9.030   0.000  -0.000  -0.000   0.000  -0.000  -0.000
  9.030  13.678   0.000  -0.000  -0.000   0.001  -0.000  -0.001
  0.000   0.000  -1.991  -0.001   0.004  -3.323  -0.001   0.008
 -0.000  -0.000  -0.001  -1.988  -0.001  -0.001  -3.318  -0.001
 -0.000  -0.000   0.004  -0.001  -1.994   0.008  -0.001  -3.330
  0.000   0.001  -3.323  -0.001   0.008  -5.335  -0.002   0.016
 -0.000  -0.000  -0.001  -3.318  -0.001  -0.002  -5.325  -0.001
 -0.000  -0.001   0.008  -0.001  -3.330   0.016  -0.001  -5.348
 total augmentation occupancy for first ion, spin component:           1
  2.835  -0.610  -0.033   0.000   0.051   0.011   0.000  -0.017
 -0.610   0.154   0.010  -0.000  -0.015  -0.003   0.000   0.005
 -0.033   0.010   1.924  -0.114  -0.432  -0.463   0.033   0.129
  0.000  -0.000  -0.114   1.604  -0.076   0.033  -0.368   0.022
  0.051  -0.015  -0.432  -0.076   2.291   0.129   0.022  -0.573
  0.011  -0.003  -0.463   0.033   0.129   0.116  -0.009  -0.040
  0.000   0.000   0.033  -0.368   0.022  -0.009   0.087  -0.006
 -0.017   0.005   0.129   0.022  -0.573  -0.040  -0.006   0.150


------------------------ aborting loop because EDIFF is reached ----------------------------------------




--------------------------------------------------------------------------------------------------------



  FREE ENERGIE OF THE ION-ELECTRON SYSTEM (eV)
  ---------------------------------------------------
  free  energy   TOTEN  =      -126.47753620 eV

  energy  without entropy=     -126.47647560  energy(sigma->0) =     -126.47700590
 


--------------------------------------------------------------------------------------------------------


    POTLOK:  cpu time    0.7396: real time    0.7461


--------------------------------------------------------------------------------------------------------


 writing wavefunctions
     LOOP+:  cpu time  408.8520: real time  412.3278
    4ORBIT:  cpu time    0.0000: real time    0.0000

 total amount of memory used by VASP MPI-rank0   159098. kBytes
=======================================================================

   base      :      30000. kBytes
   nonl-proj :      56169. kBytes
   fftplans  :      12483. kBytes
   grid      :       9393. kBytes
   one-center:         77. kBytes
   wavefun   :      50976. kBytes
 
  
  
 General timing and accounting informations for this job:
 ========================================================
  
                  Total CPU time used (sec):      411.556
                            User time (sec):      408.974
                          System time (sec):        2.582
                         Elapsed time (sec):      415.875
  
                   Maximum memory used (kb):      371100.
                   Average memory used (kb):          N/A
  
                          Minor page faults:       679277
                          Major page faults:           37
                 Voluntary context switches:         1094
