 vasp.6.2.0 18Jan21 (build Jan 05 2022 15:41:44) complex                        
  
 executed on             LinuxIFC date 2025.05.07  16:35:29
 running on   24 total cores
 distrk:  each k-point on   12 cores,    2 groups
 distr:  one band on NCORE=   2 cores,    6 groups


--------------------------------------------------------------------------------------------------------


 INCAR:
   SYSTEM = routine with relax: pwdword
   ICHARG = 2
   NPAR = 6
   KPAR = 2
   NCORE = 2
   ADDGRID = T
   PREC = Acc
   ENCUT = 600
   METAGGA = R2SCAN
   LASPH = .TRUE.
   LMIXTAU = .FALSE.
   ALGO = A
   EDIFF = 1E-9
   NELM = 100
   NELMIN = 6
   IALGO = 38
   LREAL = F
   NSW = 0
   ISIF = -1
   ISMEAR = 0
   SIGMA = 0.02

 POTCAR:    PAW_PBE B 06Sep2000                   
 POTCAR:    PAW_PBE Mo_sv 02Feb2006               
 POTCAR:    PAW_PBE Si 05Jan2001                  
 -----------------------------------------------------------------------------
|                                                                             |
|           W    W    AA    RRRRR   N    N  II  N    N   GGGG   !!!           |
|           W    W   A  A   R    R  NN   N  II  NN   N  G    G  !!!           |
|           W    W  A    A  R    R  N N  N  II  N N  N  G       !!!           |
|           W WW W  AAAAAA  RRRRR   N  N N  II  N  N N  G  GGG   !            |
|           WW  WW  A    A  R   R   N   NN  II  N   NN  G    G                |
|           W    W  A    A  R    R  N    N  II  N    N   GGGG   !!!           |
|                                                                             |
|     For optimal performance we recommend to set                             |
|       NCORE = 2 up to number-of-cores-per-socket                            |
|     NCORE specifies how many cores store one orbital (NPAR=cpu/NCORE).      |
|     This setting can greatly improve the performance of VASP for DFT.       |
|     The default, NCORE=1 might be grossly inefficient on modern             |
|     multi-core architectures or massively parallel machines. Do your        |
|     own testing! More info at https://www.vasp.at/wiki/index.php/NCORE      |
|     Unfortunately you need to use the default for GW and RPA                |
|     calculations (for HF NCORE is supported but not extensively tested      |
|     yet).                                                                   |
|                                                                             |
 -----------------------------------------------------------------------------

 POTCAR:    PAW_PBE B 06Sep2000                   
   VRHFIN =B: s2p1                                                                                  
   LEXCH  = PE                                                                                      
   EATOM  =    71.1703 eV,    5.2309 Ry                                                             
                                                                                                    
   TITEL  = PAW_PBE B 06Sep2000                                                                     
   LULTRA =        F    use ultrasoft PP ?                                                          
   IUNSCR =        1    unscreen: 0-lin 1-nonlin 2-no                                               
   RPACOR =    1.200    partial core radius                                                         
   POMASS =   10.811; ZVAL   =    3.000    mass and valenz                                          
   RCORE  =    1.700    outmost cutoff radius                                                       
   RWIGS  =    1.710; RWIGS  =    0.905    wigner-seitz radius (au A)                               
   ENMAX  =  318.614; ENMIN  =  238.960 eV                                                          
   ICORE  =        2    local potential                                                             
   LCOR   =        T    correct aug charges                                                         
   LPAW   =        T    paw PP                                                                      
   EAUG   =  535.514                                                                                
   DEXC   =    0.000                                                                                
   RMAX   =    1.732    core radius for proj-oper                                                   
   RAUG   =    1.300    factor for augmentation sphere                                              
   RDEP   =    1.757    radius for radial grids                                                     
   RDEPT  =    1.436    core radius for aug-charge                                                  
                                                                                                    
   Atomic configuration                                                                             
    4 entries                                                                                       
     n  l   j            E        occ.                                                              
     1  0  0.50      -180.5896   2.0000                                                             
     2  0  0.50        -9.4431   2.0000                                                             
     2  1  0.50        -3.6068   1.0000                                                             
     3  2  1.50        -4.0817   0.0000                                                             
   Description                                                                                      
     l       E           TYP  RCUT    TYP  RCUT                                                     
     0     -9.4430752     23  1.500                                                                 
     0      0.8675899     23  1.500                                                                 
     1     -3.6067955     23  1.700                                                                 
     1      6.1086146     23  1.700                                                                 
     2     -4.0817478      7  1.700                                                                 
  local pseudopotential read in
  partial core-charges read in
  partial kinetic energy density read in
  atomic valenz-charges read in
  non local Contribution for L=           0  read in
    real space projection operators read in
  non local Contribution for L=           0  read in
    real space projection operators read in
  non local Contribution for L=           1  read in
    real space projection operators read in
  non local Contribution for L=           1  read in
    real space projection operators read in
    PAW grid and wavefunctions read in
 
   number of l-projection  operators is LMAX  =           4
   number of lm-projection operators is LMMAX =           8
 
 POTCAR:    PAW_PBE Mo_sv 02Feb2006               
   VRHFIN =Mo: 4p5s4d                                                                               
   LEXCH  = PE                                                                                      
   EATOM  =  1862.2866 eV,  136.8742 Ry                                                             
                                                                                                    
   TITEL  = PAW_PBE Mo_sv 02Feb2006                                                                 
   LULTRA =        F    use ultrasoft PP ?                                                          
   IUNSCR =        1    unscreen: 0-lin 1-nonlin 2-no                                               
   RPACOR =    2.200    partial core radius                                                         
   POMASS =   95.940; ZVAL   =   14.000    mass and valenz                                          
   RCORE  =    2.500    outmost cutoff radius                                                       
   RWIGS  =    2.750; RWIGS  =    1.455    wigner-seitz radius (au A)                               
   ENMAX  =  242.676; ENMIN  =  182.007 eV                                                          
   ICORE  =        3    local potential                                                             
   LCOR   =        T    correct aug charges                                                         
   LPAW   =        T    paw PP                                                                      
   EAUG   =  446.014                                                                                
   DEXC   =    0.000                                                                                
   RMAX   =    2.563    core radius for proj-oper                                                   
   RAUG   =    1.300    factor for augmentation sphere                                              
   RDEP   =    2.641    radius for radial grids                                                     
   RDEPT  =    2.031    core radius for aug-charge                                                  
                                                                                                    
   Atomic configuration                                                                             
   11 entries                                                                                       
     n  l   j            E        occ.                                                              
     1  0  0.50    -19819.0341   2.0000                                                             
     2  0  0.50     -2799.0127   2.0000                                                             
     2  1  1.50     -2502.0276   6.0000                                                             
     3  0  0.50      -476.4449   2.0000                                                             
     3  1  1.50      -379.1496   6.0000                                                             
     3  2  2.50      -220.9367  10.0000                                                             
     4  0  0.50       -64.3378   2.0000                                                             
     5  0  0.50        -4.0862   1.0000                                                             
     4  1  1.50       -38.4773   6.0000                                                             
     4  2  2.50        -3.7535   5.0000                                                             
     4  3  2.50        -1.3606   0.0000                                                             
   Description                                                                                      
     l       E           TYP  RCUT    TYP  RCUT                                                     
     0    -64.3377829     23  2.100                                                                 
     0     -4.0861640     23  2.400                                                                 
     1    -38.4772993     23  2.100                                                                 
     1     13.6058260     23  2.100                                                                 
     2     -3.7534941     23  2.400                                                                 
     2     -5.1140767     23  2.400                                                                 
     3     -4.0817478     23  2.500                                                                 
  local pseudopotential read in
  partial core-charges read in
  partial kinetic energy density read in
  atomic valenz-charges read in
  non local Contribution for L=           0  read in
    real space projection operators read in
  non local Contribution for L=           0  read in
    real space projection operators read in
  non local Contribution for L=           1  read in
    real space projection operators read in
  non local Contribution for L=           1  read in
    real space projection operators read in
  non local Contribution for L=           2  read in
    real space projection operators read in
  non local Contribution for L=           2  read in
    real space projection operators read in
    PAW grid and wavefunctions read in
 
   number of l-projection  operators is LMAX  =           6
   number of lm-projection operators is LMMAX =          18
 
 POTCAR:    PAW_PBE Si 05Jan2001                  
   VRHFIN =Si: s2p2                                                                                 
   LEXCH  = PE                                                                                      
   EATOM  =   103.0669 eV,    7.5752 Ry                                                             
                                                                                                    
   TITEL  = PAW_PBE Si 05Jan2001                                                                    
   LULTRA =        F    use ultrasoft PP ?                                                          
   IUNSCR =        1    unscreen: 0-lin 1-nonlin 2-no                                               
   RPACOR =    1.500    partial core radius                                                         
   POMASS =   28.085; ZVAL   =    4.000    mass and valenz                                          
   RCORE  =    1.900    outmost cutoff radius                                                       
   RWIGS  =    2.480; RWIGS  =    1.312    wigner-seitz radius (au A)                               
   ENMAX  =  245.345; ENMIN  =  184.009 eV                                                          
   ICORE  =        2    local potential                                                             
   LCOR   =        T    correct aug charges                                                         
   LPAW   =        T    paw PP                                                                      
   EAUG   =  322.069                                                                                
   DEXC   =    0.000                                                                                
   RMAX   =    1.950    core radius for proj-oper                                                   
   RAUG   =    1.300    factor for augmentation sphere                                              
   RDEP   =    1.993    radius for radial grids                                                     
   RDEPT  =    1.837    core radius for aug-charge                                                  
                                                                                                    
   Atomic configuration                                                                             
    6 entries                                                                                       
     n  l   j            E        occ.                                                              
     1  0  0.50     -1785.8828   2.0000                                                             
     2  0  0.50      -139.4969   2.0000                                                             
     2  1  1.50       -95.5546   6.0000                                                             
     3  0  0.50       -10.8127   2.0000                                                             
     3  1  0.50        -4.0811   2.0000                                                             
     3  2  1.50        -4.0817   0.0000                                                             
   Description                                                                                      
     l       E           TYP  RCUT    TYP  RCUT                                                     
     0    -10.8127223     23  1.900                                                                 
     0     -7.6451159     23  1.900                                                                 
     1     -4.0811372     23  1.900                                                                 
     1      2.4879257     23  1.900                                                                 
     2     -4.0817478      7  1.900                                                                 
  local pseudopotential read in
  partial core-charges read in
  partial kinetic energy density read in
  atomic valenz-charges read in
  non local Contribution for L=           0  read in
    real space projection operators read in
  non local Contribution for L=           0  read in
    real space projection operators read in
  non local Contribution for L=           1  read in
    real space projection operators read in
  non local Contribution for L=           1  read in
    real space projection operators read in
    PAW grid and wavefunctions read in
 
   number of l-projection  operators is LMAX  =           4
   number of lm-projection operators is LMMAX =           8
 
  PAW_PBE B 06Sep2000                   :
 energy of atom  1       EATOM=  -71.1703
 kinetic energy error for atom=    0.0007 (will be added to EATOM!!)
  PAW_PBE Mo_sv 02Feb2006               :
 energy of atom  2       EATOM=-1862.2866
 kinetic energy error for atom=    0.0041 (will be added to EATOM!!)
  PAW_PBE Si 05Jan2001                  :
 energy of atom  3       EATOM= -103.0669
 kinetic energy error for atom=    0.0003 (will be added to EATOM!!)
 
 
 POSCAR: EA88
  positions in direct lattice
  No initial velocities read in

 METAGGA = R2SCA    LMAXTAU =  6    LMIXTAU =  F

 exchange correlation table for  LEXCH =        8
   RHO(1)=    0.500       N(1)  =     2000
   RHO(2)=  100.500       N(2)  =     4000
 


--------------------------------------------------------------------------------------------------------


 ion  position               nearest neighbor table
   1  0.500  0.000  0.000-   6 2.29   8 2.29   7 2.32   5 2.32
   2  0.000  0.000  0.500-   9 2.29  10 2.29   5 2.32   7 2.32
   3  0.000  0.500  0.000-   6 2.29   8 2.29   7 2.32   5 2.32
   4  0.500  0.500  0.500-   9 2.29  10 2.29   7 2.32   5 2.32
   5  0.250  0.250  0.000-  11 2.29  12 2.29   1 2.32   3 2.32   4 2.32   2 2.32   8 3.26   6 3.26
                             9 3.26   9 3.26   6 3.26   8 3.26  10 3.26  10 3.26
   6  0.750  0.250  0.000-   3 2.29   1 2.29  12 2.32  11 2.32   5 3.26   7 3.26   7 3.26   5 3.26
                             9 3.28  10 3.28  10 3.28   9 3.28
   7  0.750  0.750  0.000-  11 2.29  12 2.29   1 2.32   3 2.32   2 2.32   4 2.32   8 3.26   6 3.26
                            10 3.26  10 3.26   6 3.26   8 3.26   9 3.26   9 3.26
   8  0.250  0.750  1.000-   3 2.29   1 2.29  12 2.32  11 2.32   5 3.26   7 3.26   7 3.26   5 3.26
                             9 3.28  10 3.28   9 3.28  10 3.28
   9  0.250  0.250  0.500-   2 2.29   4 2.29  12 2.32  11 2.32   5 3.26   5 3.26   7 3.26   7 3.26
                             6 3.28   8 3.28   6 3.28   8 3.28
  10  0.750  0.750  0.500-   2 2.29   4 2.29  11 2.32  12 2.32   7 3.26   7 3.26   5 3.26   5 3.26
                             6 3.28   8 3.28   6 3.28   8 3.28
  11  0.000  0.000  0.000-   5 2.29   7 2.29   6 2.32   8 2.32   9 2.32  10 2.32
  12  0.500  0.500  0.000-   5 2.29   7 2.29   6 2.32   8 2.32  10 2.32   9 2.32
 
  LATTYP: Found a body centered tetragonal cell.
 ALAT       =     6.5577357980
 C/A-ratio  =     1.3996472518
  
  Lattice vectors:
  
 A1 = (   5.6693546899,   0.0000000000,  -3.2282371849)
 A2 = (  -1.9159194842,   5.3358068865,  -3.2282371849)
 A3 = (   0.0000000000,   0.0000000000,   6.5240400000)


Analysis of symmetry for initial positions (statically):
=====================================================================
 Subroutine PRICEL returns:
 Original cell was already a primitive cell.
 

 Routine SETGRP: Setting up the symmetry group for a 
 body centered tetragonal supercell.


 Subroutine GETGRP returns: Found 16 space group operations
 (whereof  8 operations were pure point group operations)
 out of a pool of 16 trial point group operations.


The static configuration has the point symmetry C_4h.
 The point group associated with its full space group is D_4h.


Analysis of symmetry for dynamics (positions and initial velocities):
=====================================================================
 Subroutine PRICEL returns:
 Original cell was already a primitive cell.
 

 Routine SETGRP: Setting up the symmetry group for a 
 body centered tetragonal supercell.


 Subroutine GETGRP returns: Found 16 space group operations
 (whereof  8 operations were pure point group operations)
 out of a pool of 16 trial point group operations.


The dynamic configuration has the point symmetry C_4h.
 The point group associated with its full space group is D_4h.


 Subroutine INISYM returns: Found 16 space group operations
 (whereof  8 operations are pure point group operations),
 and found     1 'primitive' translations


----------------------------------------------------------------------------------------

                                     Primitive cell                                     

  volume of cell :     197.3560

  direct lattice vectors                    reciprocal lattice vectors
     5.669354690  0.000000000 -3.228237185     0.176386918  0.063334963  0.000000000
    -1.915919484  5.335806887 -3.228237185     0.000000000  0.187413079  0.000000000
     0.000000000  0.000000000  6.524040000     0.087280091  0.124075597  0.153279256

  length of vectors
     6.524040000  6.524040000  6.524040000     0.187413079  0.187413079  0.215655045

  position of ions in fractional coordinates (direct lattice)
     0.500000000  0.000000000  1.000000000
     0.000000000  0.000000000  0.500000000
     1.000000000  0.500000000  1.000000000
     0.500000000  0.500000000  0.500000000
     0.250000000  0.250000000  1.000000000
     0.750010000  0.250010000  0.000020000
     0.750000000  0.750000000  1.000000000
     0.249990000  0.749990000  0.999980000
     0.250010000  0.249990000  0.500000000
     0.749990000  0.750010000  0.500000000
     0.000000000  0.000000000  0.000000000
     0.500000000  0.500000000  1.000000000

  ion indices of the primitive-cell ions
   primitive index   ion index
                 1           1
                 2           2
                 3           3
                 4           4
                 5           5
                 6           6
                 7           7
                 8           8
                 9           9
                10          10
                11          11
                12          12

----------------------------------------------------------------------------------------

 
 
 KPOINTS: EA                                      

Automatic generation of k-mesh.
 Grid dimensions read from file:
 generate k-points for:    7    7    8

 Generating k-lattice:

  Cartesian coordinates                     Fractional coordinates (reciprocal lattice)
     0.025198131  0.009047852  0.000000000     0.142857143 -0.000000000  0.000000000
     0.000000000  0.026773297  0.000000000     0.000000000  0.142857143  0.000000000
     0.010910011  0.015509450  0.019159907    -0.000000000 -0.000000000  0.125000000

  Length of vectors
     0.026773297  0.026773297  0.026956881

  Shift w.r.t. Gamma in fractional coordinates (k-lattice)
     0.000000000  0.000000000  0.000000000

 -----------------------------------------------------------------------------
|                                                                             |
|           W    W    AA    RRRRR   N    N  II  N    N   GGGG   !!!           |
|           W    W   A  A   R    R  NN   N  II  NN   N  G    G  !!!           |
|           W    W  A    A  R    R  N N  N  II  N N  N  G       !!!           |
|           W WW W  AAAAAA  RRRRR   N  N N  II  N  N N  G  GGG   !            |
|           WW  WW  A    A  R   R   N   NN  II  N   NN  G    G                |
|           W    W  A    A  R    R  N    N  II  N    N   GGGG   !!!           |
|                                                                             |
|     Your reciprocal lattice and k-lattice belong to different lattice       |
|     classes:                                                                |
|                                                                             |
|        The reciprocal lattice is body-centered tetragonal,                  |
|        whereas your k-lattice is base-centered monoclinic.                  |
|                                                                             |
|     Results are often still useful ...                                      |
|                                                                             |
 -----------------------------------------------------------------------------

 WARNING: IBZKPT: internal override: KBLOWUP is changed to .FALSE.
      ... skipping the blow-up phase ...

 
 Subroutine IBZKPT returns following result:
 ===========================================
 
 Found    116 irreducible k-points:
 
 Following reciprocal coordinates:
            Coordinates               Weight
  0.000000  0.000000  0.000000      1.000000
  0.142857  0.000000  0.000000      4.000000
  0.285714 -0.000000  0.000000      4.000000
  0.428571 -0.000000  0.000000      4.000000
  0.142857  0.142857  0.000000      2.000000
  0.285714  0.142857  0.000000      4.000000
  0.428571  0.142857  0.000000      4.000000
 -0.428571  0.142857  0.000000      4.000000
 -0.285714  0.142857  0.000000      4.000000
 -0.142857  0.142857  0.000000      2.000000
  0.285714  0.285714  0.000000      2.000000
  0.428571  0.285714  0.000000      4.000000
 -0.428571  0.285714  0.000000      4.000000
 -0.285714  0.285714  0.000000      2.000000
  0.428571  0.428571  0.000000      2.000000
 -0.428571  0.428571  0.000000      2.000000
  0.000000 -0.000000  0.125000      2.000000
  0.142857 -0.000000  0.125000      4.000000
  0.285714  0.000000  0.125000      4.000000
  0.428571 -0.000000  0.125000      4.000000
 -0.428571 -0.000000  0.125000      4.000000
 -0.285714  0.000000  0.125000      4.000000
 -0.142857 -0.000000  0.125000      4.000000
  0.142857  0.142857  0.125000      2.000000
  0.285714  0.142857  0.125000      4.000000
  0.428571  0.142857  0.125000      4.000000
 -0.428571  0.142857  0.125000      4.000000
 -0.285714  0.142857  0.125000      4.000000
 -0.142857  0.142857  0.125000      4.000000
  0.285714  0.285714  0.125000      2.000000
  0.428571  0.285714  0.125000      4.000000
 -0.428571  0.285714  0.125000      4.000000
 -0.285714  0.285714  0.125000      4.000000
 -0.142857  0.285714  0.125000      4.000000
  0.428571  0.428571  0.125000      2.000000
 -0.428571  0.428571  0.125000      4.000000
 -0.285714  0.428571  0.125000      4.000000
 -0.142857  0.428571  0.125000      4.000000
 -0.428571 -0.428571  0.125000      2.000000
 -0.285714 -0.428571  0.125000      4.000000
 -0.142857 -0.428571  0.125000      4.000000
 -0.285714 -0.285714  0.125000      2.000000
 -0.142857 -0.285714  0.125000      4.000000
 -0.142857 -0.142857  0.125000      2.000000
  0.000000 -0.000000  0.250000      2.000000
  0.142857 -0.000000  0.250000      4.000000
  0.285714  0.000000  0.250000      4.000000
  0.428571 -0.000000  0.250000      4.000000
 -0.428571  0.000000  0.250000      4.000000
 -0.285714 -0.000000  0.250000      4.000000
 -0.142857 -0.000000  0.250000      4.000000
  0.142857  0.142857  0.250000      2.000000
  0.285714  0.142857  0.250000      4.000000
  0.428571  0.142857  0.250000      4.000000
 -0.428571  0.142857  0.250000      4.000000
 -0.285714  0.142857  0.250000      4.000000
 -0.142857  0.142857  0.250000      4.000000
  0.285714  0.285714  0.250000      2.000000
  0.428571  0.285714  0.250000      4.000000
 -0.428571  0.285714  0.250000      4.000000
 -0.285714  0.285714  0.250000      4.000000
 -0.142857  0.285714  0.250000      4.000000
  0.428571  0.428571  0.250000      2.000000
 -0.428571  0.428571  0.250000      4.000000
 -0.285714  0.428571  0.250000      4.000000
 -0.142857  0.428571  0.250000      4.000000
 -0.428571 -0.428571  0.250000      2.000000
 -0.285714 -0.428571  0.250000      4.000000
 -0.142857 -0.428571  0.250000      4.000000
 -0.285714 -0.285714  0.250000      2.000000
 -0.142857 -0.285714  0.250000      4.000000
 -0.142857 -0.142857  0.250000      2.000000
  0.000000  0.000000  0.375000      2.000000
  0.142857  0.000000  0.375000      4.000000
  0.285714  0.000000  0.375000      4.000000
  0.428571  0.000000  0.375000      4.000000
 -0.428571  0.000000  0.375000      4.000000
 -0.285714  0.000000  0.375000      4.000000
 -0.142857  0.000000  0.375000      4.000000
  0.142857  0.142857  0.375000      2.000000
  0.285714  0.142857  0.375000      4.000000
  0.428571  0.142857  0.375000      4.000000
 -0.428571  0.142857  0.375000      4.000000
 -0.285714  0.142857  0.375000      4.000000
 -0.142857  0.142857  0.375000      4.000000
  0.285714  0.285714  0.375000      2.000000
  0.428571  0.285714  0.375000      4.000000
 -0.428571  0.285714  0.375000      4.000000
 -0.285714  0.285714  0.375000      4.000000
 -0.142857  0.285714  0.375000      4.000000
  0.428571  0.428571  0.375000      2.000000
 -0.428571  0.428571  0.375000      4.000000
 -0.285714  0.428571  0.375000      4.000000
 -0.142857  0.428571  0.375000      4.000000
 -0.428571 -0.428571  0.375000      2.000000
 -0.285714 -0.428571  0.375000      4.000000
 -0.142857 -0.428571  0.375000      4.000000
 -0.285714 -0.285714  0.375000      2.000000
 -0.142857 -0.285714  0.375000      4.000000
 -0.142857 -0.142857  0.375000      2.000000
  0.000000 -0.000000  0.500000      1.000000
  0.142857 -0.000000  0.500000      4.000000
  0.285714 -0.000000  0.500000      4.000000
  0.428571 -0.000000  0.500000      4.000000
  0.142857  0.142857  0.500000      2.000000
  0.285714  0.142857  0.500000      4.000000
  0.428571  0.142857  0.500000      4.000000
 -0.428571  0.142857  0.500000      4.000000
 -0.285714  0.142857  0.500000      4.000000
 -0.142857  0.142857  0.500000      2.000000
  0.285714  0.285714  0.500000      2.000000
  0.428571  0.285714  0.500000      4.000000
 -0.428571  0.285714  0.500000      4.000000
 -0.285714  0.285714  0.500000      2.000000
  0.428571  0.428571  0.500000      2.000000
 -0.428571  0.428571  0.500000      2.000000
 
 Following cartesian coordinates:
            Coordinates               Weight
  0.000000  0.000000  0.000000      1.000000
  0.025198  0.009048  0.000000      4.000000
  0.050396  0.018096  0.000000      4.000000
  0.075594  0.027144  0.000000      4.000000
  0.025198  0.035821  0.000000      2.000000
  0.050396  0.044869  0.000000      4.000000
  0.075594  0.053917  0.000000      4.000000
 -0.075594 -0.000370  0.000000      4.000000
 -0.050396  0.008678  0.000000      4.000000
 -0.025198  0.017725  0.000000      2.000000
  0.050396  0.071642  0.000000      2.000000
  0.075594  0.080690  0.000000      4.000000
 -0.075594  0.026403  0.000000      4.000000
 -0.050396  0.035451  0.000000      2.000000
  0.075594  0.107463  0.000000      2.000000
 -0.075594  0.053176  0.000000      2.000000
  0.010910  0.015509  0.019160      2.000000
  0.036108  0.024557  0.019160      4.000000
  0.061306  0.033605  0.019160      4.000000
  0.086504  0.042653  0.019160      4.000000
 -0.064684 -0.011634  0.019160      4.000000
 -0.039486 -0.002586  0.019160      4.000000
 -0.014288  0.006462  0.019160      4.000000
  0.036108  0.051331  0.019160      2.000000
  0.061306  0.060378  0.019160      4.000000
  0.086504  0.069426  0.019160      4.000000
 -0.064684  0.015139  0.019160      4.000000
 -0.039486  0.024187  0.019160      4.000000
 -0.014288  0.033235  0.019160      4.000000
  0.061306  0.087152  0.019160      2.000000
  0.086504  0.096200  0.019160      4.000000
 -0.064684  0.041912  0.019160      4.000000
 -0.039486  0.050960  0.019160      4.000000
 -0.014288  0.060008  0.019160      4.000000
  0.086504  0.122973  0.019160      2.000000
 -0.064684  0.068686  0.019160      4.000000
 -0.039486  0.077734  0.019160      4.000000
 -0.014288  0.086781  0.019160      4.000000
 -0.064684 -0.091954  0.019160      2.000000
 -0.039486 -0.082906  0.019160      4.000000
 -0.014288 -0.073858  0.019160      4.000000
 -0.039486 -0.056133  0.019160      2.000000
 -0.014288 -0.047085  0.019160      4.000000
 -0.014288 -0.020312  0.019160      2.000000
  0.021820  0.031019  0.038320      2.000000
  0.047018  0.040067  0.038320      4.000000
  0.072216  0.049115  0.038320      4.000000
  0.097414  0.058162  0.038320      4.000000
 -0.053774  0.003875  0.038320      4.000000
 -0.028576  0.012923  0.038320      4.000000
 -0.003378  0.021971  0.038320      4.000000
  0.047018  0.066840  0.038320      2.000000
  0.072216  0.075888  0.038320      4.000000
  0.097414  0.084936  0.038320      4.000000
 -0.053774  0.030649  0.038320      4.000000
 -0.028576  0.039696  0.038320      4.000000
 -0.003378  0.048744  0.038320      4.000000
  0.072216  0.102661  0.038320      2.000000
  0.097414  0.111709  0.038320      4.000000
 -0.053774  0.057422  0.038320      4.000000
 -0.028576  0.066470  0.038320      4.000000
 -0.003378  0.075518  0.038320      4.000000
  0.097414  0.138482  0.038320      2.000000
 -0.053774  0.084195  0.038320      4.000000
 -0.028576  0.093243  0.038320      4.000000
 -0.003378  0.102291  0.038320      4.000000
 -0.053774 -0.076445  0.038320      2.000000
 -0.028576 -0.067397  0.038320      4.000000
 -0.003378 -0.058349  0.038320      4.000000
 -0.028576 -0.040623  0.038320      2.000000
 -0.003378 -0.031576  0.038320      4.000000
 -0.003378 -0.004802  0.038320      2.000000
  0.032730  0.046528  0.057480      2.000000
  0.057928  0.055576  0.057480      4.000000
  0.083126  0.064624  0.057480      4.000000
  0.108324  0.073672  0.057480      4.000000
 -0.042864  0.019385  0.057480      4.000000
 -0.017666  0.028433  0.057480      4.000000
  0.007532  0.037480  0.057480      4.000000
  0.057928  0.082349  0.057480      2.000000
  0.083126  0.091397  0.057480      4.000000
  0.108324  0.100445  0.057480      4.000000
 -0.042864  0.046158  0.057480      4.000000
 -0.017666  0.055206  0.057480      4.000000
  0.007532  0.064254  0.057480      4.000000
  0.083126  0.118171  0.057480      2.000000
  0.108324  0.127218  0.057480      4.000000
 -0.042864  0.072931  0.057480      4.000000
 -0.017666  0.081979  0.057480      4.000000
  0.007532  0.091027  0.057480      4.000000
  0.108324  0.153992  0.057480      2.000000
 -0.042864  0.099705  0.057480      4.000000
 -0.017666  0.108753  0.057480      4.000000
  0.007532  0.117800  0.057480      4.000000
 -0.042864 -0.060935  0.057480      2.000000
 -0.017666 -0.051887  0.057480      4.000000
  0.007532 -0.042839  0.057480      4.000000
 -0.017666 -0.025114  0.057480      2.000000
  0.007532 -0.016066  0.057480      4.000000
  0.007532  0.010707  0.057480      2.000000
  0.043640  0.062038  0.076640      1.000000
  0.068838  0.071086  0.076640      4.000000
  0.094036  0.080134  0.076640      4.000000
  0.119234  0.089181  0.076640      4.000000
  0.068838  0.097859  0.076640      2.000000
  0.094036  0.106907  0.076640      4.000000
  0.119234  0.115955  0.076640      4.000000
 -0.031954  0.061668  0.076640      4.000000
 -0.006756  0.070715  0.076640      4.000000
  0.018442  0.079763  0.076640      2.000000
  0.094036  0.133680  0.076640      2.000000
  0.119234  0.142728  0.076640      4.000000
 -0.031954  0.088441  0.076640      4.000000
 -0.006756  0.097489  0.076640      2.000000
  0.119234  0.169501  0.076640      2.000000
 -0.031954  0.115214  0.076640      2.000000
 


--------------------------------------------------------------------------------------------------------




 Dimension of arrays:
   k-points           NKPTS =    116   k-points in BZ     NKDIM =    116   number of bands    NBANDS=     66
   number of dos      NEDOS =    301   number of ions     NIONS =     12
   non local maximal  LDIM  =      6   non local SUM 2l+1 LMDIM =     18
   total plane-waves  NPLWV = 157464
   max r-space proj   IRMAX =      1   max aug-charges    IRDMAX= 279303
   dimension x,y,z NGX =    54 NGY =   54 NGZ =   54
   dimension x,y,z NGXF=   108 NGYF=  108 NGZF=  108
   support grid    NGXF=   216 NGYF=  216 NGZF=  216
   ions per type =               4   6   2
   NGX,Y,Z   is equivalent  to a cutoff of  13.76, 13.76, 13.76 a.u.
   NGXF,Y,Z  is equivalent  to a cutoff of  27.52, 27.52, 27.52 a.u.

 SYSTEM =  routine with relax: pwdword             
 POSCAR =  EA88                                    

 Startparameter for this run:
   NWRITE =      2    write-flag & timer
   PREC   = acc       normal or accurate (medium, high low for compatibility)
   ISTART =      0    job   : 0-new  1-cont  2-samecut
   ICHARG =      2    charge: 1-file 2-atom 10-const
   ISPIN  =      1    spin polarized calculation?
   LNONCOLLINEAR =      F non collinear calculations
   LSORBIT =      F    spin-orbit coupling
   INIWAV =      1    electr: 0-lowe 1-rand  2-diag
   LASPH  =      T    aspherical Exc in radial PAW
   METAGGA=      F    non-selfconsistent MetaGGA calc.

 Electronic Relaxation 1
   ENCUT  =  600.0 eV  44.10 Ry    6.64 a.u.  13.03 13.03 13.03*2*pi/ulx,y,z
   ENINI  =  600.0     initial cutoff
   ENAUG  =  535.5 eV  augmentation charge cutoff
   NELM   =    100;   NELMIN=  6; NELMDL= -5     # of ELM steps 
   EDIFF  = 0.1E-08   stopping-criterion for ELM
   LREAL  =      F    real-space projection
   NLSPLINE    = F    spline interpolate recip. space projectors
   LCOMPAT=      F    compatible to vasp.4.4
   GGA_COMPAT  = T    GGA compatible to vasp.4.4-vasp.4.6
   LMAXPAW     = -100 max onsite density
   LMAXMIX     =    2 max onsite mixed and CHGCAR
   VOSKOWN=      0    Vosko Wilk Nusair interpolation
   ROPT   =    0.00000   0.00000   0.00000
 Ionic relaxation
   EDIFFG = 0.1E-07   stopping-criterion for IOM
   NSW    =      0    number of steps for IOM
   NBLOCK =      1;   KBLOCK =      1    inner block; outer block 
   IBRION =     -1    ionic relax: 0-MD 1-quasi-New 2-CG
   NFREE  =      0    steps in history (QN), initial steepest desc. (CG)
   ISIF   =     -1    stress and relaxation
   IWAVPR =     10    prediction:  0-non 1-charg 2-wave 3-comb
   ISYM   =      2    0-nonsym 1-usesym 2-fastsym
   LCORR  =      T    Harris-Foulkes like correction to forces

   POTIM  = 0.5000    time-step for ionic-motion
   TEIN   =    0.0    initial temperature
   TEBEG  =    0.0;   TEEND  =   0.0 temperature during run
   SMASS  =  -3.00    Nose mass-parameter (am)
   estimated Nose-frequenzy (Omega)   =  0.10E-29 period in steps = 0.13E+47 mass=  -0.973E-27a.u.
   SCALEE = 1.0000    scale energy and forces
   NPACO  =    256;   APACO  = 16.0  distance and # of slots for P.C.
   PSTRESS=    0.0 pullay stress

  Mass of Ions in am
   POMASS =  10.81 95.94 28.09
  Ionic Valenz
   ZVAL   =   3.00 14.00  4.00
  Atomic Wigner-Seitz radii
   RWIGS  =  -1.00 -1.00 -1.00
  virtual crystal weights 
   VCA    =   1.00  1.00  1.00
   NELECT =     104.0000    total number of electrons
   NUPDOWN=      -1.0000    fix difference up-down

 DOS related values:
   EMIN   =  10.00;   EMAX   =-10.00  energy-range for DOS
   EFERMI =   0.00
   ISMEAR =     0;   SIGMA  =   0.02  broadening in eV -4-tet -1-fermi 0-gaus

 Electronic relaxation 2 (details)
   IALGO  =     58    algorithm
   LDIAG  =      T    sub-space diagonalisation (order eigenvalues)
   LSUBROT=      F    optimize rotation matrix (better conditioning)
   TURBO    =      0    0=normal 1=particle mesh
   IRESTART =      0    0=no restart 2=restart with 2 vectors
   NREBOOT  =      0    no. of reboots
   NMIN     =      0    reboot dimension
   EREF     =   0.00    reference energy to select bands
   IMIX   =      4    mixing-type and parameters
     AMIX     =   0.40;   BMIX     =  1.00
     AMIX_MAG =   1.60;   BMIX_MAG =  1.00
     AMIN     =   0.10
     WC   =   100.;   INIMIX=   1;  MIXPRE=   1;  MAXMIX= -45

 Intra band minimization:
   WEIMIN = 0.0000     energy-eigenvalue tresh-hold
   EBREAK =  0.38E-11  absolut break condition
   DEPER  =   0.30     relativ break condition  

   TIME   =   0.40     timestep for ELM

  volume/ion in A,a.u.               =      16.45       110.99
  Fermi-wavevector in a.u.,A,eV,Ry     =   1.322318  2.498818 23.790117  1.748524
  Thomas-Fermi vector in A             =   2.452008
 
 Write flags
   LWAVE        =      T    write WAVECAR
   LDOWNSAMPLE  =      F    k-point downsampling of WAVECAR
   LCHARG       =      T    write CHGCAR
   LVTOT        =      F    write LOCPOT, total local potential
   LVHAR        =      F    write LOCPOT, Hartree potential only
   LELF         =      F    write electronic localiz. function (ELF)
   LORBIT       =      0    0 simple, 1 ext, 2 COOP (PROOUT), +10 PAW based schemes


 Dipole corrections
   LMONO  =      F    monopole corrections only (constant potential shift)
   LDIPOL =      F    correct potential (dipole corrections)
   IDIPOL =      0    1-x, 2-y, 3-z, 4-all directions 
   EPSILON=  1.0000000 bulk dielectric constant

 Exchange correlation treatment:
   GGA     =    --    GGA type
   LEXCH   =     8    internal setting for exchange type
   VOSKOWN=      0    Vosko Wilk Nusair interpolation
   LHFCALC =     F    Hartree Fock is set to
   LHFONE  =     F    Hartree Fock one center treatment
   AEXX    =    0.0000 exact exchange contribution

 Linear response parameters
   LEPSILON=     F    determine dielectric tensor
   LRPA    =     F    only Hartree local field effects (RPA)
   LNABLA  =     F    use nabla operator in PAW spheres
   LVEL    =     F    velocity operator in full k-point grid
   LINTERFAST=   F  fast interpolation
   KINTER  =     0    interpolate to denser k-point grid
   CSHIFT  =0.1000    complex shift for real part using Kramers Kronig
   OMEGAMAX=  -1.0    maximum frequency
   DEG_THRESHOLD= 0.2000000E-02 threshold for treating states as degnerate
   RTIME   =   -0.100 relaxation time in fs
  (WPLASMAI=    0.000 imaginary part of plasma frequency in eV, 0.658/RTIME)
   DFIELD  = 0.0000000 0.0000000 0.0000000 field for delta impulse in time
 
 Orbital magnetization related:
   ORBITALMAG=     F  switch on orbital magnetization
   LCHIMAG   =     F  perturbation theory with respect to B field
   DQ        =  0.001000  dq finite difference perturbation B field
   LLRAUG    =     F  two centre corrections for induced B field



--------------------------------------------------------------------------------------------------------


 Static calculation
 charge density and potential will be updated during run
 non-spin polarized calculation
 Conjugate gradient for all bands (Freysoldt, et al. PRB 79, 241103 (2009))
 preconditioned conjugated gradient                                        
 perform sub-space diagonalisation
    before iterative eigenvector-optimisation
 modified Broyden-mixing scheme, WC =      100.0
 initial mixing is a Kerker type mixing with AMIX =  0.4000 and BMIX =      1.0000
 Hartree-type preconditioning will be used
 using additional bands           14
 reciprocal scheme for non local part
 use partial core corrections
 no Harris-corrections to forces 
 use gradient corrections 
 use of overlap-Matrix (Vanderbilt PP)
 Gauss-broadening in eV      SIGMA  =   0.02


--------------------------------------------------------------------------------------------------------


  energy-cutoff  :      600.00
  volume of cell :      197.36
      direct lattice vectors                 reciprocal lattice vectors
     5.669354690  0.000000000 -3.228237185     0.176386918  0.063334963  0.000000000
    -1.915919484  5.335806887 -3.228237185     0.000000000  0.187413079  0.000000000
     0.000000000  0.000000000  6.524040000     0.087280091  0.124075597  0.153279256

  length of vectors
     6.524040000  6.524040000  6.524040000     0.187413079  0.187413079  0.215655045


 
 k-points in units of 2pi/SCALE and weight: EA                                      
   0.00000000  0.00000000  0.00000000       0.003
   0.02519813  0.00904785  0.00000000       0.010
   0.05039626  0.01809570  0.00000000       0.010
   0.07559439  0.02714356  0.00000000       0.010
   0.02519813  0.03582115  0.00000000       0.005
   0.05039626  0.04486900  0.00000000       0.010
   0.07559439  0.05391685  0.00000000       0.010
  -0.07559439 -0.00037026  0.00000000       0.010
  -0.05039626  0.00867759  0.00000000       0.010
  -0.02519813  0.01772545  0.00000000       0.005
   0.05039626  0.07164230  0.00000000       0.005
   0.07559439  0.08069015  0.00000000       0.010
  -0.07559439  0.02640304  0.00000000       0.010
  -0.05039626  0.03545089  0.00000000       0.005
   0.07559439  0.10746345  0.00000000       0.005
  -0.07559439  0.05317634  0.00000000       0.005
   0.01091001  0.01550945  0.01915991       0.005
   0.03610814  0.02455730  0.01915991       0.010
   0.06130627  0.03360515  0.01915991       0.010
   0.08650440  0.04265301  0.01915991       0.010
  -0.06468438 -0.01163411  0.01915991       0.010
  -0.03948625 -0.00258625  0.01915991       0.010
  -0.01428812  0.00646160  0.01915991       0.010
   0.03610814  0.05133060  0.01915991       0.005
   0.06130627  0.06037845  0.01915991       0.010
   0.08650440  0.06942630  0.01915991       0.010
  -0.06468438  0.01513919  0.01915991       0.010
  -0.03948625  0.02418704  0.01915991       0.010
  -0.01428812  0.03323489  0.01915991       0.010
   0.06130627  0.08715175  0.01915991       0.005
   0.08650440  0.09619960  0.01915991       0.010
  -0.06468438  0.04191249  0.01915991       0.010
  -0.03948625  0.05096034  0.01915991       0.010
  -0.01428812  0.06000819  0.01915991       0.010
   0.08650440  0.12297290  0.01915991       0.005
  -0.06468438  0.06868579  0.01915991       0.010
  -0.03948625  0.07773364  0.01915991       0.010
  -0.01428812  0.08678149  0.01915991       0.010
  -0.06468438 -0.09195400  0.01915991       0.005
  -0.03948625 -0.08290615  0.01915991       0.010
  -0.01428812 -0.07385829  0.01915991       0.010
  -0.03948625 -0.05613285  0.01915991       0.005
  -0.01428812 -0.04708500  0.01915991       0.010
  -0.01428812 -0.02031170  0.01915991       0.005
   0.02182002  0.03101890  0.03831981       0.005
   0.04701815  0.04006675  0.03831981       0.010
   0.07221629  0.04911460  0.03831981       0.010
   0.09741442  0.05816245  0.03831981       0.010
  -0.05377437  0.00387534  0.03831981       0.010
  -0.02857624  0.01292320  0.03831981       0.010
  -0.00337811  0.02197105  0.03831981       0.010
   0.04701815  0.06684005  0.03831981       0.005
   0.07221629  0.07588790  0.03831981       0.010
   0.09741442  0.08493575  0.03831981       0.010
  -0.05377437  0.03064864  0.03831981       0.010
  -0.02857624  0.03969649  0.03831981       0.010
  -0.00337811  0.04874434  0.03831981       0.010
   0.07221629  0.10266120  0.03831981       0.005
   0.09741442  0.11170905  0.03831981       0.010
  -0.05377437  0.05742194  0.03831981       0.010
  -0.02857624  0.06646979  0.03831981       0.010
  -0.00337811  0.07551764  0.03831981       0.010
   0.09741442  0.13848235  0.03831981       0.005
  -0.05377437  0.08419523  0.03831981       0.010
  -0.02857624  0.09324309  0.03831981       0.010
  -0.00337811  0.10229094  0.03831981       0.010
  -0.05377437 -0.07644455  0.03831981       0.005
  -0.02857624 -0.06739670  0.03831981       0.010
  -0.00337811 -0.05834884  0.03831981       0.010
  -0.02857624 -0.04062340  0.03831981       0.005
  -0.00337811 -0.03157555  0.03831981       0.010
  -0.00337811 -0.00480225  0.03831981       0.005
   0.03273003  0.04652835  0.05747972       0.005
   0.05792817  0.05557620  0.05747972       0.010
   0.08312630  0.06462405  0.05747972       0.010
   0.10832443  0.07367190  0.05747972       0.010
  -0.04286436  0.01938479  0.05747972       0.010
  -0.01766623  0.02843264  0.05747972       0.010
   0.00753190  0.03748050  0.05747972       0.010
   0.05792817  0.08234950  0.05747972       0.005
   0.08312630  0.09139735  0.05747972       0.010
   0.10832443  0.10044520  0.05747972       0.010
  -0.04286436  0.04615809  0.05747972       0.010
  -0.01766623  0.05520594  0.05747972       0.010
   0.00753190  0.06425379  0.05747972       0.010
   0.08312630  0.11817065  0.05747972       0.005
   0.10832443  0.12721850  0.05747972       0.010
  -0.04286436  0.07293139  0.05747972       0.010
  -0.01766623  0.08197924  0.05747972       0.010
   0.00753190  0.09102709  0.05747972       0.010
   0.10832443  0.15399180  0.05747972       0.005
  -0.04286436  0.09970468  0.05747972       0.010
  -0.01766623  0.10875254  0.05747972       0.010
   0.00753190  0.11780039  0.05747972       0.010
  -0.04286436 -0.06093510  0.05747972       0.005
  -0.01766623 -0.05188725  0.05747972       0.010
   0.00753190 -0.04283939  0.05747972       0.010
  -0.01766623 -0.02511395  0.05747972       0.005
   0.00753190 -0.01606610  0.05747972       0.010
   0.00753190  0.01070720  0.05747972       0.005
   0.04364005  0.06203780  0.07663963       0.003
   0.06883818  0.07108565  0.07663963       0.010
   0.09403631  0.08013350  0.07663963       0.010
   0.11923444  0.08918135  0.07663963       0.010
   0.06883818  0.09785895  0.07663963       0.005
   0.09403631  0.10690680  0.07663963       0.010
   0.11923444  0.11595465  0.07663963       0.010
  -0.03195435  0.06166754  0.07663963       0.010
  -0.00675622  0.07071539  0.07663963       0.010
   0.01844191  0.07976324  0.07663963       0.005
   0.09403631  0.13368010  0.07663963       0.005
   0.11923444  0.14272795  0.07663963       0.010
  -0.03195435  0.08844084  0.07663963       0.010
  -0.00675622  0.09748869  0.07663963       0.005
   0.11923444  0.16950125  0.07663963       0.005
  -0.03195435  0.11521413  0.07663963       0.005
 
 k-points in reciprocal lattice and weights: EA                                      
   0.00000000  0.00000000  0.00000000       0.003
   0.14285714  0.00000000  0.00000000       0.010
   0.28571429 -0.00000000  0.00000000       0.010
   0.42857143 -0.00000000  0.00000000       0.010
   0.14285714  0.14285714  0.00000000       0.005
   0.28571429  0.14285714  0.00000000       0.010
   0.42857143  0.14285714  0.00000000       0.010
  -0.42857143  0.14285714  0.00000000       0.010
  -0.28571429  0.14285714  0.00000000       0.010
  -0.14285714  0.14285714  0.00000000       0.005
   0.28571429  0.28571429  0.00000000       0.005
   0.42857143  0.28571429  0.00000000       0.010
  -0.42857143  0.28571429  0.00000000       0.010
  -0.28571429  0.28571429  0.00000000       0.005
   0.42857143  0.42857143  0.00000000       0.005
  -0.42857143  0.42857143  0.00000000       0.005
   0.00000000 -0.00000000  0.12500000       0.005
   0.14285714 -0.00000000  0.12500000       0.010
   0.28571429  0.00000000  0.12500000       0.010
   0.42857143 -0.00000000  0.12500000       0.010
  -0.42857143 -0.00000000  0.12500000       0.010
  -0.28571429  0.00000000  0.12500000       0.010
  -0.14285714 -0.00000000  0.12500000       0.010
   0.14285714  0.14285714  0.12500000       0.005
   0.28571429  0.14285714  0.12500000       0.010
   0.42857143  0.14285714  0.12500000       0.010
  -0.42857143  0.14285714  0.12500000       0.010
  -0.28571429  0.14285714  0.12500000       0.010
  -0.14285714  0.14285714  0.12500000       0.010
   0.28571429  0.28571429  0.12500000       0.005
   0.42857143  0.28571429  0.12500000       0.010
  -0.42857143  0.28571429  0.12500000       0.010
  -0.28571429  0.28571429  0.12500000       0.010
  -0.14285714  0.28571429  0.12500000       0.010
   0.42857143  0.42857143  0.12500000       0.005
  -0.42857143  0.42857143  0.12500000       0.010
  -0.28571429  0.42857143  0.12500000       0.010
  -0.14285714  0.42857143  0.12500000       0.010
  -0.42857143 -0.42857143  0.12500000       0.005
  -0.28571429 -0.42857143  0.12500000       0.010
  -0.14285714 -0.42857143  0.12500000       0.010
  -0.28571429 -0.28571429  0.12500000       0.005
  -0.14285714 -0.28571429  0.12500000       0.010
  -0.14285714 -0.14285714  0.12500000       0.005
   0.00000000 -0.00000000  0.25000000       0.005
   0.14285714 -0.00000000  0.25000000       0.010
   0.28571429  0.00000000  0.25000000       0.010
   0.42857143 -0.00000000  0.25000000       0.010
  -0.42857143  0.00000000  0.25000000       0.010
  -0.28571429 -0.00000000  0.25000000       0.010
  -0.14285714 -0.00000000  0.25000000       0.010
   0.14285714  0.14285714  0.25000000       0.005
   0.28571429  0.14285714  0.25000000       0.010
   0.42857143  0.14285714  0.25000000       0.010
  -0.42857143  0.14285714  0.25000000       0.010
  -0.28571429  0.14285714  0.25000000       0.010
  -0.14285714  0.14285714  0.25000000       0.010
   0.28571429  0.28571429  0.25000000       0.005
   0.42857143  0.28571429  0.25000000       0.010
  -0.42857143  0.28571429  0.25000000       0.010
  -0.28571429  0.28571429  0.25000000       0.010
  -0.14285714  0.28571429  0.25000000       0.010
   0.42857143  0.42857143  0.25000000       0.005
  -0.42857143  0.42857143  0.25000000       0.010
  -0.28571429  0.42857143  0.25000000       0.010
  -0.14285714  0.42857143  0.25000000       0.010
  -0.42857143 -0.42857143  0.25000000       0.005
  -0.28571429 -0.42857143  0.25000000       0.010
  -0.14285714 -0.42857143  0.25000000       0.010
  -0.28571429 -0.28571429  0.25000000       0.005
  -0.14285714 -0.28571429  0.25000000       0.010
  -0.14285714 -0.14285714  0.25000000       0.005
   0.00000000  0.00000000  0.37500000       0.005
   0.14285714  0.00000000  0.37500000       0.010
   0.28571429  0.00000000  0.37500000       0.010
   0.42857143  0.00000000  0.37500000       0.010
  -0.42857143  0.00000000  0.37500000       0.010
  -0.28571429  0.00000000  0.37500000       0.010
  -0.14285714  0.00000000  0.37500000       0.010
   0.14285714  0.14285714  0.37500000       0.005
   0.28571429  0.14285714  0.37500000       0.010
   0.42857143  0.14285714  0.37500000       0.010
  -0.42857143  0.14285714  0.37500000       0.010
  -0.28571429  0.14285714  0.37500000       0.010
  -0.14285714  0.14285714  0.37500000       0.010
   0.28571429  0.28571429  0.37500000       0.005
   0.42857143  0.28571429  0.37500000       0.010
  -0.42857143  0.28571429  0.37500000       0.010
  -0.28571429  0.28571429  0.37500000       0.010
  -0.14285714  0.28571429  0.37500000       0.010
   0.42857143  0.42857143  0.37500000       0.005
  -0.42857143  0.42857143  0.37500000       0.010
  -0.28571429  0.42857143  0.37500000       0.010
  -0.14285714  0.42857143  0.37500000       0.010
  -0.42857143 -0.42857143  0.37500000       0.005
  -0.28571429 -0.42857143  0.37500000       0.010
  -0.14285714 -0.42857143  0.37500000       0.010
  -0.28571429 -0.28571429  0.37500000       0.005
  -0.14285714 -0.28571429  0.37500000       0.010
  -0.14285714 -0.14285714  0.37500000       0.005
   0.00000000 -0.00000000  0.50000000       0.003
   0.14285714 -0.00000000  0.50000000       0.010
   0.28571429 -0.00000000  0.50000000       0.010
   0.42857143 -0.00000000  0.50000000       0.010
   0.14285714  0.14285714  0.50000000       0.005
   0.28571429  0.14285714  0.50000000       0.010
   0.42857143  0.14285714  0.50000000       0.010
  -0.42857143  0.14285714  0.50000000       0.010
  -0.28571429  0.14285714  0.50000000       0.010
  -0.14285714  0.14285714  0.50000000       0.005
   0.28571429  0.28571429  0.50000000       0.005
   0.42857143  0.28571429  0.50000000       0.010
  -0.42857143  0.28571429  0.50000000       0.010
  -0.28571429  0.28571429  0.50000000       0.005
   0.42857143  0.42857143  0.50000000       0.005
  -0.42857143  0.42857143  0.50000000       0.005
 
 position of ions in fractional coordinates (direct lattice) 
   0.50000000  0.00000000  0.00000000
   0.00000000  0.00000000  0.50000000
   0.00000000  0.50000000  0.00000000
   0.50000000  0.50000000  0.50000000
   0.25000000  0.25000000  0.00000000
   0.75001000  0.25001000  0.00002000
   0.75000000  0.75000000  0.00000000
   0.24999000  0.74999000  0.99998000
   0.25001000  0.24999000  0.50000000
   0.74999000  0.75001000  0.50000000
   0.00000000  0.00000000  0.00000000
   0.50000000  0.50000000  0.00000000
 
 position of ions in cartesian coordinates  (Angst):
   2.83467734  0.00000000 -1.61411859
   0.00000000  0.00000000  3.26202000
  -0.95795974  2.66790344 -1.61411859
   1.87671760  2.66790344  0.03378282
   0.93835880  1.33395172 -1.61411859
   3.77307368  1.33400508 -3.22817127
   2.81507640  4.00185516 -4.84235578
  -0.01963847  4.00180181  3.29573690
   0.93843465  1.33389836  1.64790141
   2.81500055  4.00190852 -1.58033578
   0.00000000  0.00000000  0.00000000
   1.87671760  2.66790344 -3.22823718
 


--------------------------------------------------------------------------------------------------------


 k-point   1 :   0.0000 0.0000 0.0000  plane waves:    6575
 k-point   2 :   0.1429 0.0000 0.0000  plane waves:    6574
 k-point   3 :   0.2857-0.0000 0.0000  plane waves:    6566
 k-point   4 :   0.4286-0.0000 0.0000  plane waves:    6581
 k-point   5 :   0.1429 0.1429 0.0000  plane waves:    6571
 k-point   6 :   0.2857 0.1429 0.0000  plane waves:    6586
 k-point   7 :   0.4286 0.1429 0.0000  plane waves:    6586
 k-point   8 :  -0.4286 0.1429 0.0000  plane waves:    6584
 k-point   9 :  -0.2857 0.1429 0.0000  plane waves:    6572
 k-point  10 :  -0.1429 0.1429 0.0000  plane waves:    6567
 k-point  11 :   0.2857 0.2857 0.0000  plane waves:    6581
 k-point  12 :   0.4286 0.2857 0.0000  plane waves:    6601
 k-point  13 :  -0.4286 0.2857 0.0000  plane waves:    6586
 k-point  14 :  -0.2857 0.2857 0.0000  plane waves:    6574
 k-point  15 :   0.4286 0.4286 0.0000  plane waves:    6591
 k-point  16 :  -0.4286 0.4286 0.0000  plane waves:    6572
 k-point  17 :   0.0000-0.0000 0.1250  plane waves:    6575
 k-point  18 :   0.1429-0.0000 0.1250  plane waves:    6572
 k-point  19 :   0.2857 0.0000 0.1250  plane waves:    6581
 k-point  20 :   0.4286-0.0000 0.1250  plane waves:    6586
 k-point  21 :  -0.4286-0.0000 0.1250  plane waves:    6584
 k-point  22 :  -0.2857 0.0000 0.1250  plane waves:    6575
 k-point  23 :  -0.1429-0.0000 0.1250  plane waves:    6573
 k-point  24 :   0.1429 0.1429 0.1250  plane waves:    6585
 k-point  25 :   0.2857 0.1429 0.1250  plane waves:    6583
 k-point  26 :   0.4286 0.1429 0.1250  plane waves:    6587
 k-point  27 :  -0.4286 0.1429 0.1250  plane waves:    6578
 k-point  28 :  -0.2857 0.1429 0.1250  plane waves:    6569
 k-point  29 :  -0.1429 0.1429 0.1250  plane waves:    6557
 k-point  30 :   0.2857 0.2857 0.1250  plane waves:    6608
 k-point  31 :   0.4286 0.2857 0.1250  plane waves:    6598
 k-point  32 :  -0.4286 0.2857 0.1250  plane waves:    6587
 k-point  33 :  -0.2857 0.2857 0.1250  plane waves:    6584
 k-point  34 :  -0.1429 0.2857 0.1250  plane waves:    6572
 k-point  35 :   0.4286 0.4286 0.1250  plane waves:    6591
 k-point  36 :  -0.4286 0.4286 0.1250  plane waves:    6589
 k-point  37 :  -0.2857 0.4286 0.1250  plane waves:    6588
 k-point  38 :  -0.1429 0.4286 0.1250  plane waves:    6583
 k-point  39 :  -0.4286-0.4286 0.1250  plane waves:    6600
 k-point  40 :  -0.2857-0.4286 0.1250  plane waves:    6588
 k-point  41 :  -0.1429-0.4286 0.1250  plane waves:    6590
 k-point  42 :  -0.2857-0.2857 0.1250  plane waves:    6585
 k-point  43 :  -0.1429-0.2857 0.1250  plane waves:    6575
 k-point  44 :  -0.1429-0.1429 0.1250  plane waves:    6580
 k-point  45 :   0.0000-0.0000 0.2500  plane waves:    6575
 k-point  46 :   0.1429-0.0000 0.2500  plane waves:    6576
 k-point  47 :   0.2857 0.0000 0.2500  plane waves:    6594
 k-point  48 :   0.4286-0.0000 0.2500  plane waves:    6579
 k-point  49 :  -0.4286 0.0000 0.2500  plane waves:    6576
 k-point  50 :  -0.2857-0.0000 0.2500  plane waves:    6571
 k-point  51 :  -0.1429-0.0000 0.2500  plane waves:    6566
 k-point  52 :   0.1429 0.1429 0.2500  plane waves:    6585
 k-point  53 :   0.2857 0.1429 0.2500  plane waves:    6610
 k-point  54 :   0.4286 0.1429 0.2500  plane waves:    6602
 k-point  55 :  -0.4286 0.1429 0.2500  plane waves:    6589
 k-point  56 :  -0.2857 0.1429 0.2500  plane waves:    6575
 k-point  57 :  -0.1429 0.1429 0.2500  plane waves:    6586
 k-point  58 :   0.2857 0.2857 0.2500  plane waves:    6615
 k-point  59 :   0.4286 0.2857 0.2500  plane waves:    6595
 k-point  60 :  -0.4286 0.2857 0.2500  plane waves:    6593
 k-point  61 :  -0.2857 0.2857 0.2500  plane waves:    6585
 k-point  62 :  -0.1429 0.2857 0.2500  plane waves:    6589
 k-point  63 :   0.4286 0.4286 0.2500  plane waves:    6598
 k-point  64 :  -0.4286 0.4286 0.2500  plane waves:    6612
 k-point  65 :  -0.2857 0.4286 0.2500  plane waves:    6588
 k-point  66 :  -0.1429 0.4286 0.2500  plane waves:    6578
 k-point  67 :  -0.4286-0.4286 0.2500  plane waves:    6604
 k-point  68 :  -0.2857-0.4286 0.2500  plane waves:    6593
 k-point  69 :  -0.1429-0.4286 0.2500  plane waves:    6583
 k-point  70 :  -0.2857-0.2857 0.2500  plane waves:    6580
 k-point  71 :  -0.1429-0.2857 0.2500  plane waves:    6567
 k-point  72 :  -0.1429-0.1429 0.2500  plane waves:    6581
 k-point  73 :   0.0000 0.0000 0.3750  plane waves:    6572
 k-point  74 :   0.1429 0.0000 0.3750  plane waves:    6585
 k-point  75 :   0.2857 0.0000 0.3750  plane waves:    6591
 k-point  76 :   0.4286 0.0000 0.3750  plane waves:    6581
 k-point  77 :  -0.4286 0.0000 0.3750  plane waves:    6579
 k-point  78 :  -0.2857 0.0000 0.3750  plane waves:    6575
 k-point  79 :  -0.1429 0.0000 0.3750  plane waves:    6583
 k-point  80 :   0.1429 0.1429 0.3750  plane waves:    6600
 k-point  81 :   0.2857 0.1429 0.3750  plane waves:    6609
 k-point  82 :   0.4286 0.1429 0.3750  plane waves:    6585
 k-point  83 :  -0.4286 0.1429 0.3750  plane waves:    6580
 k-point  84 :  -0.2857 0.1429 0.3750  plane waves:    6586
 k-point  85 :  -0.1429 0.1429 0.3750  plane waves:    6595
 k-point  86 :   0.2857 0.2857 0.3750  plane waves:    6592
 k-point  87 :   0.4286 0.2857 0.3750  plane waves:    6595
 k-point  88 :  -0.4286 0.2857 0.3750  plane waves:    6590
 k-point  89 :  -0.2857 0.2857 0.3750  plane waves:    6603
 k-point  90 :  -0.1429 0.2857 0.3750  plane waves:    6610
 k-point  91 :   0.4286 0.4286 0.3750  plane waves:    6606
 k-point  92 :  -0.4286 0.4286 0.3750  plane waves:    6599
 k-point  93 :  -0.2857 0.4286 0.3750  plane waves:    6598
 k-point  94 :  -0.1429 0.4286 0.3750  plane waves:    6591
 k-point  95 :  -0.4286-0.4286 0.3750  plane waves:    6599
 k-point  96 :  -0.2857-0.4286 0.3750  plane waves:    6591
 k-point  97 :  -0.1429-0.4286 0.3750  plane waves:    6586
 k-point  98 :  -0.2857-0.2857 0.3750  plane waves:    6580
 k-point  99 :  -0.1429-0.2857 0.3750  plane waves:    6579
 k-point 100 :  -0.1429-0.1429 0.3750  plane waves:    6578
 k-point 101 :   0.0000-0.0000 0.5000  plane waves:    6594
 k-point 102 :   0.1429-0.0000 0.5000  plane waves:    6582
 k-point 103 :   0.2857-0.0000 0.5000  plane waves:    6583
 k-point 104 :   0.4286-0.0000 0.5000  plane waves:    6574
 k-point 105 :   0.1429 0.1429 0.5000  plane waves:    6588
 k-point 106 :   0.2857 0.1429 0.5000  plane waves:    6591
 k-point 107 :   0.4286 0.1429 0.5000  plane waves:    6581
 k-point 108 :  -0.4286 0.1429 0.5000  plane waves:    6590
 k-point 109 :  -0.2857 0.1429 0.5000  plane waves:    6609
 k-point 110 :  -0.1429 0.1429 0.5000  plane waves:    6600
 k-point 111 :   0.2857 0.2857 0.5000  plane waves:    6579
 k-point 112 :   0.4286 0.2857 0.5000  plane waves:    6595
 k-point 113 :  -0.4286 0.2857 0.5000  plane waves:    6599
 k-point 114 :  -0.2857 0.2857 0.5000  plane waves:    6614
 k-point 115 :   0.4286 0.4286 0.5000  plane waves:    6596
 k-point 116 :  -0.4286 0.4286 0.5000  plane waves:    6592

 maximum and minimum number of plane-waves per node :      3329     3257

 maximum number of plane-waves:      6615
 maximum index in each direction: 
   IXMAX=   13   IYMAX=   13   IZMAX=   13
   IXMIN=  -13   IYMIN=  -13   IZMIN=  -13


 parallel 3D FFT for wavefunctions:
    minimum data exchange during FFTs selected (reduces bandwidth)
 parallel 3D FFT for charge:
    minimum data exchange during FFTs selected (reduces bandwidth)


 total amount of memory used by VASP MPI-rank0   434785. kBytes
=======================================================================

   base      :      30000. kBytes
   nonl-proj :     166305. kBytes
   fftplans  :      17768. kBytes
   grid      :      13358. kBytes
   one-center:         93. kBytes
   wavefun   :     207261. kBytes
 
     INWAV:  cpu time    0.0001: real time    0.0001
 Broyden mixing: mesh for mixing (old mesh)
   NGX = 27   NGY = 27   NGZ = 27
  (NGX  =108   NGY  =108   NGZ  =108)
  gives a total of  19683 points

 initial charge density was supplied:
 charge density of overlapping atoms calculated
 number of electron     104.0000000 magnetization 
 keeping initial charge density in first step


--------------------------------------------------------------------------------------------------------


 Maximum index for augmentation-charges        22454 (set IRDMAX)


--------------------------------------------------------------------------------------------------------


 First call to EWALD:  gamma=   0.304
 Maximum number of real-space cells 3x 3x 3
 Maximum number of reciprocal cells 3x 3x 3

    FEWALD:  cpu time    0.0100: real time    0.0100


--------------------------------------- Iteration      1(   1)  ---------------------------------------


    POTLOK:  cpu time    0.1960: real time    0.1977
    SETDIJ:  cpu time    0.5625: real time    0.5660
    TRIAL :  cpu time   32.5274: real time   32.8275
    CORREC:  cpu time    0.0021: real time    0.0021
    --------------------------------------------
      LOOP:  cpu time   33.4327: real time   33.7936

 eigenvalue-minimisations  : 16200
 total energy-change (2. order) : 0.1052396E+04  (-0.6955172E+04)
 number of electron     104.0000000 magnetization 
 augmentation part      104.0000000 magnetization 

 Free energy of the ion-electron system (eV)
  ---------------------------------------------------
  alpha Z        PSCENC =       473.40441854
  Ewald energy   TEWEN  =     -8368.59802549
  -Hartree energ DENC   =     -3072.16545199
  -exchange      EXHF   =         0.00000000
  -V(xc)+E(xc)   XCENC  =       478.54474098
  PAW double counting   =      9250.47132855    -9210.50234729
  entropy T*S    EENTRO =        -0.00048660
  eigenvalues    EBANDS =      -163.26521397
  atomic energy  EATOM  =     11664.50664672
  ---------------------------------------------------
  free energy    TOTEN  =      1052.39560946 eV

  energy without entropy =     1052.39609605  energy(sigma->0) =     1052.39585276


--------------------------------------------------------------------------------------------------------




--------------------------------------- Iteration      1(   2)  ---------------------------------------


    TRIAL :  cpu time   36.7478: real time   37.3233
    CORREC:  cpu time    0.0021: real time    0.0021
    --------------------------------------------
      LOOP:  cpu time   36.7531: real time   37.3289

 eigenvalue-minimisations  : 17448
 total energy-change (2. order) :-0.1239301E+04  (-0.1211535E+04)
 number of electron     104.0000000 magnetization 
 augmentation part      104.0000000 magnetization 

 Free energy of the ion-electron system (eV)
  ---------------------------------------------------
  alpha Z        PSCENC =       473.40441854
  Ewald energy   TEWEN  =     -8368.59802549
  -Hartree energ DENC   =     -3072.16545199
  -exchange      EXHF   =         0.00000000
  -V(xc)+E(xc)   XCENC  =       478.54474098
  PAW double counting   =      9250.47132855    -9210.50234729
  entropy T*S    EENTRO =        -0.00134579
  eigenvalues    EBANDS =     -1402.56487772
  atomic energy  EATOM  =     11664.50664672
  ---------------------------------------------------
  free energy    TOTEN  =      -186.90491348 eV

  energy without entropy =     -186.90356770  energy(sigma->0) =     -186.90424059


--------------------------------------------------------------------------------------------------------




--------------------------------------- Iteration      1(   3)  ---------------------------------------


    TRIAL :  cpu time   42.9711: real time   43.9620
    CORREC:  cpu time    0.0022: real time    0.0022
    --------------------------------------------
      LOOP:  cpu time   42.9754: real time   43.9672

 eigenvalue-minimisations  : 20562
 total energy-change (2. order) :-0.4964381E+02  (-0.4837287E+02)
 number of electron     104.0000000 magnetization 
 augmentation part      104.0000000 magnetization 

 Free energy of the ion-electron system (eV)
  ---------------------------------------------------
  alpha Z        PSCENC =       473.40441854
  Ewald energy   TEWEN  =     -8368.59802549
  -Hartree energ DENC   =     -3072.16545199
  -exchange      EXHF   =         0.00000000
  -V(xc)+E(xc)   XCENC  =       478.54474098
  PAW double counting   =      9250.47132855    -9210.50234729
  entropy T*S    EENTRO =        -0.00268732
  eigenvalues    EBANDS =     -1452.20734219
  atomic energy  EATOM  =     11664.50664672
  ---------------------------------------------------
  free energy    TOTEN  =      -236.54871949 eV

  energy without entropy =     -236.54603217  energy(sigma->0) =     -236.54737583


--------------------------------------------------------------------------------------------------------




--------------------------------------- Iteration      1(   4)  ---------------------------------------


    TRIAL :  cpu time   41.5314: real time   42.3164
    CORREC:  cpu time    0.0022: real time    0.0023
    --------------------------------------------
      LOOP:  cpu time   41.5347: real time   42.3215

 eigenvalue-minimisations  : 19248
 total energy-change (2. order) :-0.1141079E+01  (-0.1127402E+01)
 number of electron     104.0000000 magnetization 
 augmentation part      104.0000000 magnetization 

 Free energy of the ion-electron system (eV)
  ---------------------------------------------------
  alpha Z        PSCENC =       473.40441854
  Ewald energy   TEWEN  =     -8368.59802549
  -Hartree energ DENC   =     -3072.16545199
  -exchange      EXHF   =         0.00000000
  -V(xc)+E(xc)   XCENC  =       478.54474098
  PAW double counting   =      9250.47132855    -9210.50234729
  entropy T*S    EENTRO =        -0.00300045
  eigenvalues    EBANDS =     -1453.34810849
  atomic energy  EATOM  =     11664.50664672
  ---------------------------------------------------
  free energy    TOTEN  =      -237.68979892 eV

  energy without entropy =     -237.68679847  energy(sigma->0) =     -237.68829869


--------------------------------------------------------------------------------------------------------




--------------------------------------- Iteration      1(   5)  ---------------------------------------


    TRIAL :  cpu time   42.1615: real time   43.0794
    CORREC:  cpu time    0.0020: real time    0.0020
    CHARGE:  cpu time    2.5994: real time    2.6203
    --------------------------------------------
      LOOP:  cpu time   44.7653: real time   45.7047

 eigenvalue-minimisations  : 19770
 total energy-change (2. order) :-0.2643115E-01  (-0.2635138E-01)
 number of electron     104.0000001 magnetization 
 augmentation part       11.7721480 magnetization 

 Free energy of the ion-electron system (eV)
  ---------------------------------------------------
  alpha Z        PSCENC =       473.40441854
  Ewald energy   TEWEN  =     -8368.59802549
  -Hartree energ DENC   =     -3072.16545199
  -exchange      EXHF   =         0.00000000
  -V(xc)+E(xc)   XCENC  =       478.54474098
  PAW double counting   =      9250.47132855    -9210.50234729
  entropy T*S    EENTRO =        -0.00303098
  eigenvalues    EBANDS =     -1453.37450911
  atomic energy  EATOM  =     11664.50664672
  ---------------------------------------------------
  free energy    TOTEN  =      -237.71623007 eV

  energy without entropy =     -237.71319909  energy(sigma->0) =     -237.71471458


--------------------------------------------------------------------------------------------------------




--------------------------------------- Iteration      1(   6)  ---------------------------------------


    POTLOK:  cpu time    0.2267: real time    0.2282
    SETDIJ:  cpu time    0.6584: real time    0.6632
    TRIAL :  cpu time   27.9199: real time   28.2686
    CORREC:  cpu time   10.7343: real time   10.8154
    CHARGE:  cpu time    3.4712: real time    3.4971
    --------------------------------------------
      LOOP:  cpu time   43.0118: real time   43.4743

 eigenvalue-minimisations  :     0
 total energy-change (2. order) : 0.6851186E+02  (-0.1908496E+02)
 number of electron     104.0000000 magnetization 
 augmentation part       14.1243899 magnetization 

 Free energy of the ion-electron system (eV)
  ---------------------------------------------------
  alpha Z        PSCENC =       473.40441854
  Ewald energy   TEWEN  =     -8368.59802549
  -Hartree energ DENC   =     -2563.19534050
  -exchange      EXHF   =         0.00000000
  -V(xc)+E(xc)   XCENC  =       470.55595017
  PAW double counting   =     13222.32469026   -13228.22091832
  entropy T*S    EENTRO =        -0.00234578
  eigenvalues    EBANDS =     -1839.97876203
  atomic energy  EATOM  =     11664.50664672
  ---------------------------------------------------
  free energy    TOTEN  =      -169.20437164 eV

  energy without entropy =     -169.20202587  energy(sigma->0) =     -169.20319875


--------------------------------------------------------------------------------------------------------




--------------------------------------- Iteration      1(   7)  ---------------------------------------


    POTLOK:  cpu time    0.1496: real time    0.1506
    SETDIJ:  cpu time    0.6509: real time    0.6551
    TRIAL :  cpu time   31.3596: real time   31.6386
    CORREC:  cpu time   13.2953: real time   13.3884
    CHARGE:  cpu time    3.0223: real time    3.0445
    --------------------------------------------
      LOOP:  cpu time   48.4782: real time   48.8788

 eigenvalue-minimisations  :     0
 total energy-change (2. order) :-0.1838024E+02  (-0.3320060E+01)
 number of electron     104.0000000 magnetization 
 augmentation part       14.1250291 magnetization 

 Free energy of the ion-electron system (eV)
  ---------------------------------------------------
  alpha Z        PSCENC =       473.40441854
  Ewald energy   TEWEN  =     -8368.59802549
  -Hartree energ DENC   =     -2861.09895501
  -exchange      EXHF   =         0.00000000
  -V(xc)+E(xc)   XCENC  =       483.53567109
  PAW double counting   =     12703.68259132   -12691.77989075
  entropy T*S    EENTRO =        -0.00255583
  eigenvalues    EBANDS =     -1591.23472427
  atomic energy  EATOM  =     11664.50664672
  ---------------------------------------------------
  free energy    TOTEN  =      -187.58461364 eV

  energy without entropy =     -187.58205781  energy(sigma->0) =     -187.58333572


--------------------------------------------------------------------------------------------------------




--------------------------------------- Iteration      1(   8)  ---------------------------------------


    POTLOK:  cpu time    0.1500: real time    0.1511
    SETDIJ:  cpu time    0.6503: real time    0.6545
    TRIAL :  cpu time   32.8005: real time   33.3535
    CORREC:  cpu time   12.9192: real time   13.1659
    CHARGE:  cpu time    3.1841: real time    3.2039
    --------------------------------------------
      LOOP:  cpu time   49.7057: real time   50.5309

 eigenvalue-minimisations  :     0
 total energy-change (2. order) :-0.3319080E+01  (-0.1014893E+01)
 number of electron     104.0000001 magnetization 
 augmentation part       14.1432742 magnetization 

 Free energy of the ion-electron system (eV)
  ---------------------------------------------------
  alpha Z        PSCENC =       473.40441854
  Ewald energy   TEWEN  =     -8368.59802549
  -Hartree energ DENC   =     -2913.32633357
  -exchange      EXHF   =         0.00000000
  -V(xc)+E(xc)   XCENC  =       485.84655426
  PAW double counting   =     12610.75465716   -12594.29418921
  entropy T*S    EENTRO =        -0.00228240
  eigenvalues    EBANDS =     -1549.19486609
  atomic energy  EATOM  =     11664.50664672
  ---------------------------------------------------
  free energy    TOTEN  =      -190.90369351 eV

  energy without entropy =     -190.90141111  energy(sigma->0) =     -190.90255231


--------------------------------------------------------------------------------------------------------




--------------------------------------- Iteration      1(   9)  ---------------------------------------


    POTLOK:  cpu time    0.1515: real time    0.1524
    SETDIJ:  cpu time    1.3593: real time    1.3671
    TRIAL :  cpu time   34.6923: real time   35.0597
    CORREC:  cpu time   10.8784: real time   10.9634
    CHARGE:  cpu time    2.4237: real time    2.4431
    --------------------------------------------
      LOOP:  cpu time   49.5056: real time   49.9874

 eigenvalue-minimisations  :     0
 total energy-change (2. order) :-0.1014002E+01  (-0.3195498E+00)
 number of electron     104.0000001 magnetization 
 augmentation part       14.1304614 magnetization 

 Free energy of the ion-electron system (eV)
  ---------------------------------------------------
  alpha Z        PSCENC =       473.40441854
  Ewald energy   TEWEN  =     -8368.59802549
  -Hartree energ DENC   =     -2926.62192938
  -exchange      EXHF   =         0.00000000
  -V(xc)+E(xc)   XCENC  =       486.56142729
  PAW double counting   =     12633.77022130   -12614.18934549
  entropy T*S    EENTRO =        -0.00205560
  eigenvalues    EBANDS =     -1540.74882615
  atomic energy  EATOM  =     11664.50664672
  ---------------------------------------------------
  free energy    TOTEN  =      -191.91769507 eV

  energy without entropy =     -191.91563947  energy(sigma->0) =     -191.91666727


--------------------------------------------------------------------------------------------------------




--------------------------------------- Iteration      1(  10)  ---------------------------------------


    POTLOK:  cpu time    0.1523: real time    0.1532
    SETDIJ:  cpu time    1.7905: real time    1.8016
    TRIAL :  cpu time   35.0042: real time   35.7108
    CORREC:  cpu time   11.5897: real time   11.6740
    CHARGE:  cpu time    3.4510: real time    3.4744
    --------------------------------------------
      LOOP:  cpu time   51.9891: real time   52.8164

 eigenvalue-minimisations  :     0
 total energy-change (2. order) :-0.3194723E+00  (-0.1612717E+00)
 number of electron     104.0000001 magnetization 
 augmentation part       14.1080838 magnetization 

 Free energy of the ion-electron system (eV)
  ---------------------------------------------------
  alpha Z        PSCENC =       473.40441854
  Ewald energy   TEWEN  =     -8368.59802549
  -Hartree energ DENC   =     -2927.04260388
  -exchange      EXHF   =         0.00000000
  -V(xc)+E(xc)   XCENC  =       486.67534442
  PAW double counting   =     12672.77931968   -12651.87140375
  entropy T*S    EENTRO =        -0.00192750
  eigenvalues    EBANDS =     -1542.08880799
  atomic energy  EATOM  =     11664.50664672
  ---------------------------------------------------
  free energy    TOTEN  =      -192.23716735 eV

  energy without entropy =     -192.23523985  energy(sigma->0) =     -192.23620360


--------------------------------------------------------------------------------------------------------




--------------------------------------- Iteration      1(  11)  ---------------------------------------


[...]
     58       8.1061      0.00000
     59       8.6272      0.00000
     60       8.7502      0.00000
     61       9.3249      0.00000
     62       9.6620      0.00000
     63       9.7557      0.00000
     64       9.8390      0.00000
     65       9.9708      0.00000
     66      10.6542      0.00000

 k-point   110 :      -0.1429    0.1429    0.5000
  band No.  band energies     occupation 
      1     -56.0837      2.00000
      2     -56.0826      2.00000
      3     -55.6878      2.00000
      4     -55.6812      2.00000
      5     -55.6812      2.00000
      6     -55.6755      2.00000
      7     -29.6881      2.00000
      8     -29.6574      2.00000
      9     -29.4716      2.00000
     10     -29.4666      2.00000
     11     -29.4331      2.00000
     12     -29.4313      2.00000
     13     -29.2693      2.00000
     14     -29.2279      2.00000
     15     -29.2037      2.00000
     16     -29.1724      2.00000
     17     -29.1701      2.00000
     18     -29.1564      2.00000
     19     -29.1538      2.00000
     20     -29.1290      2.00000
     21     -28.9370      2.00000
     22     -28.8912      2.00000
     23     -28.8896      2.00000
     24     -28.8537      2.00000
     25      -2.8170      2.00000
     26      -1.8679      2.00000
     27      -0.5741      2.00000
     28      -0.4670      2.00000
     29      -0.3560      2.00000
     30       0.9351      2.00000
     31       1.7374      2.00000
     32       1.9201      2.00000
     33       2.5802      2.00000
     34       3.3985      2.00000
     35       3.4872      2.00000
     36       3.5158      2.00000
     37       3.6058      2.00000
     38       3.6638      2.00000
     39       3.6787      2.00000
     40       3.8522      2.00000
     41       4.1287      2.00000
     42       4.1339      2.00000
     43       4.1660      2.00000
     44       4.3378      2.00000
     45       4.9120      2.00000
     46       5.5766      2.00000
     47       5.8844      2.00000
     48       5.9129      2.00000
     49       5.9347      2.00000
     50       6.0325      2.00000
     51       6.8211      2.00000
     52       7.1438      0.66237
     53       7.2167      0.00000
     54       7.5785      0.00000
     55       7.7110      0.00000
     56       7.7143      0.00000
     57       7.8057      0.00000
     58       7.9055      0.00000
     59       8.2915      0.00000
     60       8.8562      0.00000
     61       9.1704      0.00000
     62       9.3568      0.00000
     63       9.4625      0.00000
     64      10.1282      0.00000
     65      10.2695      0.00000
     66      10.7501      0.00000

 k-point   111 :       0.2857    0.2857    0.5000
  band No.  band energies     occupation 
      1     -56.0832      2.00000
      2     -56.0831      2.00000
      3     -55.6924      2.00000
      4     -55.6814      2.00000
      5     -55.6812      2.00000
      6     -55.6706      2.00000
      7     -29.6842      2.00000
      8     -29.6728      2.00000
      9     -29.4532      2.00000
     10     -29.4526      2.00000
     11     -29.4523      2.00000
     12     -29.4500      2.00000
     13     -29.2972      2.00000
     14     -29.2273      2.00000
     15     -29.2185      2.00000
     16     -29.1638      2.00000
     17     -29.1524      2.00000
     18     -29.1497      2.00000
     19     -29.1468      2.00000
     20     -29.1263      2.00000
     21     -28.9705      2.00000
     22     -28.8808      2.00000
     23     -28.8800      2.00000
     24     -28.8206      2.00000
     25      -3.0008      2.00000
     26      -1.9793      2.00000
     27      -0.7578      2.00000
     28      -0.0029      2.00000
     29       0.0286      2.00000
     30       0.2793      2.00000
     31       2.0105      2.00000
     32       2.1118      2.00000
     33       2.6564      2.00000
     34       2.8434      2.00000
     35       3.1985      2.00000
     36       3.6134      2.00000
     37       3.6135      2.00000
     38       3.6291      2.00000
     39       3.9771      2.00000
     40       4.1451      2.00000
     41       4.2418      2.00000
     42       4.2818      2.00000
     43       4.4480      2.00000
     44       4.5235      2.00000
     45       4.7020      2.00000
     46       4.9603      2.00000
     47       5.4266      2.00000
     48       6.0811      2.00000
     49       6.2892      2.00000
     50       6.6890      2.00000
     51       6.6922      2.00000
     52       6.7984      2.00000
     53       7.1254      1.61279
     54       7.4884      0.00000
     55       7.5813      0.00000
     56       7.6003      0.00000
     57       7.9495      0.00000
     58       8.4472      0.00000
     59       8.5021      0.00000
     60       8.8157      0.00000
     61       9.0358      0.00000
     62       9.3626      0.00000
     63       9.6822      0.00000
     64       9.7543      0.00000
     65      10.2547      0.00000
     66      10.4937      0.00000

 k-point   112 :       0.4286    0.2857    0.5000
  band No.  band energies     occupation 
      1     -56.0832      2.00000
      2     -56.0829      2.00000
      3     -55.6940      2.00000
      4     -55.6826      2.00000
      5     -55.6799      2.00000
      6     -55.6693      2.00000
      7     -29.6684      2.00000
      8     -29.6673      2.00000
      9     -29.4474      2.00000
     10     -29.4463      2.00000
     11     -29.4434      2.00000
     12     -29.4425      2.00000
     13     -29.3223      2.00000
     14     -29.2410      2.00000
     15     -29.2217      2.00000
     16     -29.1728      2.00000
     17     -29.1597      2.00000
     18     -29.1582      2.00000
     19     -29.1489      2.00000
     20     -29.1169      2.00000
     21     -28.9798      2.00000
     22     -28.8860      2.00000
     23     -28.8672      2.00000
     24     -28.8112      2.00000
     25      -2.8510      2.00000
     26      -1.9951      2.00000
     27      -0.8076      2.00000
     28      -0.1127      2.00000
     29      -0.0860      2.00000
     30       0.5327      2.00000
     31       2.1088      2.00000
     32       2.2191      2.00000
     33       2.5080      2.00000
     34       2.9828      2.00000
     35       3.3214      2.00000
     36       3.5520      2.00000
     37       3.6086      2.00000
     38       3.7467      2.00000
     39       3.9334      2.00000
     40       4.0136      2.00000
     41       4.0567      2.00000
     42       4.1028      2.00000
     43       4.3355      2.00000
     44       4.3979      2.00000
     45       4.6020      2.00000
     46       4.7286      2.00000
     47       5.3109      2.00000
     48       5.9719      2.00000
     49       6.3717      2.00000
     50       6.4804      2.00000
     51       6.6821      2.00000
     52       6.7083      2.00000
     53       7.0674      2.00000
     54       7.3553      0.00000
     55       7.5766      0.00000
     56       7.8265      0.00000
     57       8.1423      0.00000
     58       8.7165      0.00000
     59       8.8591      0.00000
     60       9.0573      0.00000
     61       9.2459      0.00000
     62       9.6143      0.00000
     63       9.7361      0.00000
     64       9.9420      0.00000
     65      10.3558      0.00000
     66      10.8490      0.00000

 k-point   113 :      -0.4286    0.2857    0.5000
  band No.  band energies     occupation 
      1     -56.0833      2.00000
      2     -56.0827      2.00000
      3     -55.6941      2.00000
      4     -55.6826      2.00000
      5     -55.6799      2.00000
      6     -55.6693      2.00000
      7     -29.6668      2.00000
      8     -29.6524      2.00000
      9     -29.4457      2.00000
     10     -29.4432      2.00000
     11     -29.4370      2.00000
     12     -29.4365      2.00000
     13     -29.3319      2.00000
     14     -29.2440      2.00000
     15     -29.2268      2.00000
     16     -29.1785      2.00000
     17     -29.1664      2.00000
     18     -29.1641      2.00000
     19     -29.1485      2.00000
     20     -29.1168      2.00000
     21     -28.9799      2.00000
     22     -28.8859      2.00000
     23     -28.8672      2.00000
     24     -28.8112      2.00000
     25      -2.6078      2.00000
     26      -2.1245      2.00000
     27      -0.8278      2.00000
     28      -0.2251      2.00000
     29      -0.1987      2.00000
     30       0.7510      2.00000
     31       2.2579      2.00000
     32       2.3676      2.00000
     33       2.3822      2.00000
     34       3.1085      2.00000
     35       3.2568      2.00000
     36       3.4288      2.00000
     37       3.6897      2.00000
     38       3.7958      2.00000
     39       3.8069      2.00000
     40       3.8765      2.00000
     41       3.9254      2.00000
     42       4.1236      2.00000
     43       4.3049      2.00000
     44       4.3162      2.00000
     45       4.3670      2.00000
     46       4.8207      2.00000
     47       5.3179      2.00000
     48       5.7941      2.00000
     49       6.3300      2.00000
     50       6.3555      2.00000
     51       6.6035      2.00000
     52       6.7045      2.00000
     53       7.0859      1.99975
     54       7.3144      0.00000
     55       7.4845      0.00000
     56       7.9864      0.00000
     57       8.2127      0.00000
     58       8.7658      0.00000
     59       9.0742      0.00000
     60       9.1924      0.00000
     61       9.6303      0.00000
     62       9.7839      0.00000
     63       9.8643      0.00000
     64      10.0430      0.00000
     65      10.2595      0.00000
     66      10.7389      0.00000

 k-point   114 :      -0.2857    0.2857    0.5000
  band No.  band energies     occupation 
      1     -56.0834      2.00000
      2     -56.0826      2.00000
      3     -55.6928      2.00000
      4     -55.6813      2.00000
      5     -55.6812      2.00000
      6     -55.6706      2.00000
      7     -29.6720      2.00000
      8     -29.6496      2.00000
      9     -29.4536      2.00000
     10     -29.4522      2.00000
     11     -29.4327      2.00000
     12     -29.4315      2.00000
     13     -29.3185      2.00000
     14     -29.2371      2.00000
     15     -29.2253      2.00000
     16     -29.1780      2.00000
     17     -29.1700      2.00000
     18     -29.1622      2.00000
     19     -29.1434      2.00000
     20     -29.1253      2.00000
     21     -28.9707      2.00000
     22     -28.8805      2.00000
     23     -28.8799      2.00000
     24     -28.8207      2.00000
     25      -2.3632      2.00000
     26      -2.3593      2.00000
     27      -0.7615      2.00000
     28      -0.3174      2.00000
     29      -0.2944      2.00000
     30       0.8620      2.00000
     31       2.2533      2.00000
     32       2.3544      2.00000
     33       2.6199      2.00000
     34       2.7414      2.00000
     35       3.4511      2.00000
     36       3.4635      2.00000
     37       3.5769      2.00000
     38       3.6127      2.00000
     39       3.8083      2.00000
     40       3.9109      2.00000
     41       3.9332      2.00000
     42       4.1366      2.00000
     43       4.2371      2.00000
     44       4.3057      2.00000
     45       4.7001      2.00000
     46       5.0457      2.00000
     47       5.4572      2.00000
     48       5.5010      2.00000
     49       6.2415      2.00000
     50       6.3824      2.00000
     51       6.4029      2.00000
     52       6.7832      2.00000
     53       7.2767      0.00000
     54       7.5012      0.00000
     55       7.5422      0.00000
     56       7.9669      0.00000
     57       7.9792      0.00000
     58       8.4936      0.00000
     59       8.8707      0.00000
     60       8.9206      0.00000
     61       9.6065      0.00000
     62       9.8681      0.00000
     63       9.9850      0.00000
     64      10.1035      0.00000
     65      10.1622      0.00000
     66      10.5437      0.00000

 k-point   115 :       0.4286    0.4286    0.5000
  band No.  band energies     occupation 
      1     -56.0832      2.00000
      2     -56.0827      2.00000
      3     -55.6955      2.00000
      4     -55.6813      2.00000
      5     -55.6812      2.00000
      6     -55.6680      2.00000
      7     -29.6594      2.00000
      8     -29.6497      2.00000
      9     -29.4379      2.00000
     10     -29.4366      2.00000
     11     -29.4351      2.00000
     12     -29.4344      2.00000
     13     -29.3514      2.00000
     14     -29.2417      2.00000
     15     -29.2405      2.00000
     16     -29.1855      2.00000
     17     -29.1673      2.00000
     18     -29.1663      2.00000
     19     -29.1520      2.00000
     20     -29.1082      2.00000
     21     -28.9895      2.00000
     22     -28.8726      2.00000
     23     -28.8724      2.00000
     24     -28.8024      2.00000
     25      -2.7629      2.00000
     26      -1.7931      2.00000
     27      -0.9368      2.00000
     28      -0.2055      2.00000
     29      -0.1790      2.00000
     30       0.7289      2.00000
     31       2.1660      2.00000
     32       2.1778      2.00000
     33       2.5518      2.00000
     34       3.1254      2.00000
     35       3.3339      2.00000
     36       3.5682      2.00000
     37       3.6423      2.00000
     38       3.7723      2.00000
     39       3.7753      2.00000
     40       3.7838      2.00000
     41       3.9177      2.00000
     42       4.0054      2.00000
     43       4.2805      2.00000
     44       4.3484      2.00000
     45       4.3643      2.00000
     46       4.5244      2.00000
     47       5.1781      2.00000
     48       6.1997      2.00000
     49       6.2454      2.00000
     50       6.5123      2.00000
     51       6.5786      2.00000
     52       6.6018      2.00000
     53       6.9209      2.00000
     54       6.9575      2.00000
     55       7.4526      0.00000
     56       8.0585      0.00000
     57       8.7940      0.00000
     58       9.2453      0.00000
     59       9.3044      0.00000
     60       9.5237      0.00000
     61       9.5681      0.00000
     62       9.9133      0.00000
     63      10.1306      0.00000
     64      10.1838      0.00000
     65      10.3763      0.00000
     66      10.7677      0.00000

 k-point   116 :      -0.4286    0.4286    0.5000
  band No.  band energies     occupation 
      1     -56.0832      2.00000
      2     -56.0826      2.00000
      3     -55.6956      2.00000
      4     -55.6813      2.00000
      5     -55.6812      2.00000
      6     -55.6680      2.00000
      7     -29.6583      2.00000
      8     -29.6431      2.00000
      9     -29.4362      2.00000
     10     -29.4345      2.00000
     11     -29.4323      2.00000
     12     -29.4316      2.00000
     13     -29.3570      2.00000
     14     -29.2442      2.00000
     15     -29.2428      2.00000
     16     -29.1877      2.00000
     17     -29.1700      2.00000
     18     -29.1691      2.00000
     19     -29.1520      2.00000
     20     -29.1083      2.00000
     21     -28.9895      2.00000
     22     -28.8725      2.00000
     23     -28.8725      2.00000
     24     -28.8024      2.00000
     25      -2.6639      2.00000
     26      -1.8380      2.00000
     27      -0.9596      2.00000
     28      -0.2422      2.00000
     29      -0.2173      2.00000
     30       0.8158      2.00000
     31       2.2075      2.00000
     32       2.2252      2.00000
     33       2.5559      2.00000
     34       3.1421      2.00000
     35       3.3557      2.00000
     36       3.5090      2.00000
     37       3.6112      2.00000
     38       3.7497      2.00000
     39       3.7873      2.00000
     40       3.8338      2.00000
     41       3.8355      2.00000
     42       3.9280      2.00000
     43       4.1806      2.00000
     44       4.3417      2.00000
     45       4.3543      2.00000
     46       4.5433      2.00000
     47       5.1811      2.00000
     48       6.1276      2.00000
     49       6.2027      2.00000
     50       6.5080      2.00000
     51       6.5698      2.00000
     52       6.5751      2.00000
     53       6.9209      2.00000
     54       6.9329      2.00000
     55       7.3985      0.00000
     56       8.1161      0.00000
     57       8.8309      0.00000
     58       9.2545      0.00000
     59       9.4950      0.00000
     60       9.5946      0.00000
     61       9.8452      0.00000
     62       9.9820      0.00000
     63      10.1597      0.00000
     64      10.1732      0.00000
     65      10.2654      0.00000
     66      10.6865      0.00000


--------------------------------------------------------------------------------------------------------


 soft charge-density along one line, spin component           1
         0         1         2         3         4         5         6         7         8         9
 total charge-density along one line
 
 pseudopotential strength for first ion, spin component:           1
  6.092   9.243   0.000   0.000  -0.000   0.000   0.000  -0.000
  9.243  14.016   0.000   0.000  -0.000   0.000   0.000  -0.000
  0.000   0.000  -2.047   0.001   0.000  -3.435   0.003   0.002
  0.000   0.000   0.001  -2.047   0.001   0.003  -3.433   0.002
 -0.000  -0.000   0.000   0.001  -2.048   0.002   0.002  -3.436
  0.000   0.000  -3.435   0.003   0.002  -5.552   0.008   0.004
  0.000   0.000   0.003  -3.433   0.002   0.008  -5.548   0.005
 -0.000  -0.000   0.002   0.002  -3.436   0.004   0.005  -5.554
 total augmentation occupancy for first ion, spin component:           1
  2.969  -0.566   0.000   0.000   0.000   0.000   0.000   0.000
 -0.566   0.118   0.000   0.000   0.000   0.000   0.000   0.000
  0.000   0.000   1.742  -0.429  -0.253  -0.401   0.107   0.063
  0.000   0.000  -0.429   1.554  -0.302   0.107  -0.354   0.075
  0.000   0.000  -0.253  -0.302   1.924   0.063   0.075  -0.446
  0.000   0.000  -0.401   0.107   0.063   0.095  -0.027  -0.016
  0.000   0.000   0.107  -0.354   0.075  -0.027   0.083  -0.019
  0.000   0.000   0.063   0.075  -0.446  -0.016  -0.019   0.106


------------------------ aborting loop because EDIFF is reached ----------------------------------------




--------------------------------------------------------------------------------------------------------



  FREE ENERGIE OF THE ION-ELECTRON SYSTEM (eV)
  ---------------------------------------------------
  free  energy   TOTEN  =      -192.52671038 eV

  energy  without entropy=     -192.52504825  energy(sigma->0) =     -192.52587932
 


--------------------------------------------------------------------------------------------------------


    POTLOK:  cpu time    0.8676: real time    0.8737


--------------------------------------------------------------------------------------------------------


 writing wavefunctions
     LOOP+:  cpu time 2022.1851: real time 2046.8236
    4ORBIT:  cpu time    0.0000: real time    0.0000

 total amount of memory used by VASP MPI-rank0   434785. kBytes
=======================================================================

   base      :      30000. kBytes
   nonl-proj :     166305. kBytes
   fftplans  :      17768. kBytes
   grid      :      13358. kBytes
   one-center:         93. kBytes
   wavefun   :     207261. kBytes
 
  
  
 General timing and accounting informations for this job:
 ========================================================
  
                  Total CPU time used (sec):     2035.470
                            User time (sec):     1971.298
                          System time (sec):       64.172
                         Elapsed time (sec):     2073.780
  
                   Maximum memory used (kb):      664484.
                   Average memory used (kb):          N/A
  
                          Minor page faults:      7001211
                          Major page faults:           37
                 Voluntary context switches:        15519
