 vasp.6.2.0 18Jan21 (build Jan 05 2022 15:41:44) complex                        
  
 executed on             LinuxIFC date 2025.05.07  18:22:01
 running on   24 total cores
 distrk:  each k-point on   12 cores,    2 groups
 distr:  one band on NCORE=   2 cores,    6 groups


--------------------------------------------------------------------------------------------------------


 INCAR:
   SYSTEM = routine with relax: pwdword
   ICHARG = 2
   NPAR = 6
   KPAR = 2
   NCORE = 2
   ADDGRID = T
   PREC = Acc
   ENCUT = 600
   METAGGA = R2SCAN
   LASPH = .TRUE.
   LMIXTAU = .FALSE.
   ALGO = A
   EDIFF = 1E-9
   NELM = 100
   NELMIN = 6
   IALGO = 38
   LREAL = F
   NSW = 0
   ISIF = -1
   ISMEAR = 0
   SIGMA = 0.02

 POTCAR:    PAW_PBE B 06Sep2000                   
 POTCAR:    PAW_PBE Mo_sv 02Feb2006               
 POTCAR:    PAW_PBE Si 05Jan2001                  
 -----------------------------------------------------------------------------
|                                                                             |
|           W    W    AA    RRRRR   N    N  II  N    N   GGGG   !!!           |
|           W    W   A  A   R    R  NN   N  II  NN   N  G    G  !!!           |
|           W    W  A    A  R    R  N N  N  II  N N  N  G       !!!           |
|           W WW W  AAAAAA  RRRRR   N  N N  II  N  N N  G  GGG   !            |
|           WW  WW  A    A  R   R   N   NN  II  N   NN  G    G                |
|           W    W  A    A  R    R  N    N  II  N    N   GGGG   !!!           |
|                                                                             |
|     For optimal performance we recommend to set                             |
|       NCORE = 2 up to number-of-cores-per-socket                            |
|     NCORE specifies how many cores store one orbital (NPAR=cpu/NCORE).      |
|     This setting can greatly improve the performance of VASP for DFT.       |
|     The default, NCORE=1 might be grossly inefficient on modern             |
|     multi-core architectures or massively parallel machines. Do your        |
|     own testing! More info at https://www.vasp.at/wiki/index.php/NCORE      |
|     Unfortunately you need to use the default for GW and RPA                |
|     calculations (for HF NCORE is supported but not extensively tested      |
|     yet).                                                                   |
|                                                                             |
 -----------------------------------------------------------------------------

 POTCAR:    PAW_PBE B 06Sep2000                   
   VRHFIN =B: s2p1                                                                                  
   LEXCH  = PE                                                                                      
   EATOM  =    71.1703 eV,    5.2309 Ry                                                             
                                                                                                    
   TITEL  = PAW_PBE B 06Sep2000                                                                     
   LULTRA =        F    use ultrasoft PP ?                                                          
   IUNSCR =        1    unscreen: 0-lin 1-nonlin 2-no                                               
   RPACOR =    1.200    partial core radius                                                         
   POMASS =   10.811; ZVAL   =    3.000    mass and valenz                                          
   RCORE  =    1.700    outmost cutoff radius                                                       
   RWIGS  =    1.710; RWIGS  =    0.905    wigner-seitz radius (au A)                               
   ENMAX  =  318.614; ENMIN  =  238.960 eV                                                          
   ICORE  =        2    local potential                                                             
   LCOR   =        T    correct aug charges                                                         
   LPAW   =        T    paw PP                                                                      
   EAUG   =  535.514                                                                                
   DEXC   =    0.000                                                                                
   RMAX   =    1.732    core radius for proj-oper                                                   
   RAUG   =    1.300    factor for augmentation sphere                                              
   RDEP   =    1.757    radius for radial grids                                                     
   RDEPT  =    1.436    core radius for aug-charge                                                  
                                                                                                    
   Atomic configuration                                                                             
    4 entries                                                                                       
     n  l   j            E        occ.                                                              
     1  0  0.50      -180.5896   2.0000                                                             
     2  0  0.50        -9.4431   2.0000                                                             
     2  1  0.50        -3.6068   1.0000                                                             
     3  2  1.50        -4.0817   0.0000                                                             
   Description                                                                                      
     l       E           TYP  RCUT    TYP  RCUT                                                     
     0     -9.4430752     23  1.500                                                                 
     0      0.8675899     23  1.500                                                                 
     1     -3.6067955     23  1.700                                                                 
     1      6.1086146     23  1.700                                                                 
     2     -4.0817478      7  1.700                                                                 
  local pseudopotential read in
  partial core-charges read in
  partial kinetic energy density read in
  atomic valenz-charges read in
  non local Contribution for L=           0  read in
    real space projection operators read in
  non local Contribution for L=           0  read in
    real space projection operators read in
  non local Contribution for L=           1  read in
    real space projection operators read in
  non local Contribution for L=           1  read in
    real space projection operators read in
    PAW grid and wavefunctions read in
 
   number of l-projection  operators is LMAX  =           4
   number of lm-projection operators is LMMAX =           8
 
 POTCAR:    PAW_PBE Mo_sv 02Feb2006               
   VRHFIN =Mo: 4p5s4d                                                                               
   LEXCH  = PE                                                                                      
   EATOM  =  1862.2866 eV,  136.8742 Ry                                                             
                                                                                                    
   TITEL  = PAW_PBE Mo_sv 02Feb2006                                                                 
   LULTRA =        F    use ultrasoft PP ?                                                          
   IUNSCR =        1    unscreen: 0-lin 1-nonlin 2-no                                               
   RPACOR =    2.200    partial core radius                                                         
   POMASS =   95.940; ZVAL   =   14.000    mass and valenz                                          
   RCORE  =    2.500    outmost cutoff radius                                                       
   RWIGS  =    2.750; RWIGS  =    1.455    wigner-seitz radius (au A)                               
   ENMAX  =  242.676; ENMIN  =  182.007 eV                                                          
   ICORE  =        3    local potential                                                             
   LCOR   =        T    correct aug charges                                                         
   LPAW   =        T    paw PP                                                                      
   EAUG   =  446.014                                                                                
   DEXC   =    0.000                                                                                
   RMAX   =    2.563    core radius for proj-oper                                                   
   RAUG   =    1.300    factor for augmentation sphere                                              
   RDEP   =    2.641    radius for radial grids                                                     
   RDEPT  =    2.031    core radius for aug-charge                                                  
                                                                                                    
   Atomic configuration                                                                             
   11 entries                                                                                       
     n  l   j            E        occ.                                                              
     1  0  0.50    -19819.0341   2.0000                                                             
     2  0  0.50     -2799.0127   2.0000                                                             
     2  1  1.50     -2502.0276   6.0000                                                             
     3  0  0.50      -476.4449   2.0000                                                             
     3  1  1.50      -379.1496   6.0000                                                             
     3  2  2.50      -220.9367  10.0000                                                             
     4  0  0.50       -64.3378   2.0000                                                             
     5  0  0.50        -4.0862   1.0000                                                             
     4  1  1.50       -38.4773   6.0000                                                             
     4  2  2.50        -3.7535   5.0000                                                             
     4  3  2.50        -1.3606   0.0000                                                             
   Description                                                                                      
     l       E           TYP  RCUT    TYP  RCUT                                                     
     0    -64.3377829     23  2.100                                                                 
     0     -4.0861640     23  2.400                                                                 
     1    -38.4772993     23  2.100                                                                 
     1     13.6058260     23  2.100                                                                 
     2     -3.7534941     23  2.400                                                                 
     2     -5.1140767     23  2.400                                                                 
     3     -4.0817478     23  2.500                                                                 
  local pseudopotential read in
  partial core-charges read in
  partial kinetic energy density read in
  atomic valenz-charges read in
  non local Contribution for L=           0  read in
    real space projection operators read in
  non local Contribution for L=           0  read in
    real space projection operators read in
  non local Contribution for L=           1  read in
    real space projection operators read in
  non local Contribution for L=           1  read in
    real space projection operators read in
  non local Contribution for L=           2  read in
    real space projection operators read in
  non local Contribution for L=           2  read in
    real space projection operators read in
    PAW grid and wavefunctions read in
 
   number of l-projection  operators is LMAX  =           6
   number of lm-projection operators is LMMAX =          18
 
 POTCAR:    PAW_PBE Si 05Jan2001                  
   VRHFIN =Si: s2p2                                                                                 
   LEXCH  = PE                                                                                      
   EATOM  =   103.0669 eV,    7.5752 Ry                                                             
                                                                                                    
   TITEL  = PAW_PBE Si 05Jan2001                                                                    
   LULTRA =        F    use ultrasoft PP ?                                                          
   IUNSCR =        1    unscreen: 0-lin 1-nonlin 2-no                                               
   RPACOR =    1.500    partial core radius                                                         
   POMASS =   28.085; ZVAL   =    4.000    mass and valenz                                          
   RCORE  =    1.900    outmost cutoff radius                                                       
   RWIGS  =    2.480; RWIGS  =    1.312    wigner-seitz radius (au A)                               
   ENMAX  =  245.345; ENMIN  =  184.009 eV                                                          
   ICORE  =        2    local potential                                                             
   LCOR   =        T    correct aug charges                                                         
   LPAW   =        T    paw PP                                                                      
   EAUG   =  322.069                                                                                
   DEXC   =    0.000                                                                                
   RMAX   =    1.950    core radius for proj-oper                                                   
   RAUG   =    1.300    factor for augmentation sphere                                              
   RDEP   =    1.993    radius for radial grids                                                     
   RDEPT  =    1.837    core radius for aug-charge                                                  
                                                                                                    
   Atomic configuration                                                                             
    6 entries                                                                                       
     n  l   j            E        occ.                                                              
     1  0  0.50     -1785.8828   2.0000                                                             
     2  0  0.50      -139.4969   2.0000                                                             
     2  1  1.50       -95.5546   6.0000                                                             
     3  0  0.50       -10.8127   2.0000                                                             
     3  1  0.50        -4.0811   2.0000                                                             
     3  2  1.50        -4.0817   0.0000                                                             
   Description                                                                                      
     l       E           TYP  RCUT    TYP  RCUT                                                     
     0    -10.8127223     23  1.900                                                                 
     0     -7.6451159     23  1.900                                                                 
     1     -4.0811372     23  1.900                                                                 
     1      2.4879257     23  1.900                                                                 
     2     -4.0817478      7  1.900                                                                 
  local pseudopotential read in
  partial core-charges read in
  partial kinetic energy density read in
  atomic valenz-charges read in
  non local Contribution for L=           0  read in
    real space projection operators read in
  non local Contribution for L=           0  read in
    real space projection operators read in
  non local Contribution for L=           1  read in
    real space projection operators read in
  non local Contribution for L=           1  read in
    real space projection operators read in
    PAW grid and wavefunctions read in
 
   number of l-projection  operators is LMAX  =           4
   number of lm-projection operators is LMMAX =           8
 
  PAW_PBE B 06Sep2000                   :
 energy of atom  1       EATOM=  -71.1703
 kinetic energy error for atom=    0.0007 (will be added to EATOM!!)
  PAW_PBE Mo_sv 02Feb2006               :
 energy of atom  2       EATOM=-1862.2866
 kinetic energy error for atom=    0.0041 (will be added to EATOM!!)
  PAW_PBE Si 05Jan2001                  :
 energy of atom  3       EATOM= -103.0669
 kinetic energy error for atom=    0.0003 (will be added to EATOM!!)
 
 
 POSCAR: EA151
  positions in direct lattice
  No initial velocities read in

 METAGGA = R2SCA    LMAXTAU =  6    LMIXTAU =  F

 exchange correlation table for  LEXCH =        8
   RHO(1)=    0.500       N(1)  =     2000
   RHO(2)=  100.500       N(2)  =     4000
 


--------------------------------------------------------------------------------------------------------


 ion  position               nearest neighbor table
   1  0.242  0.742  0.984-   6 2.24   5 2.31   8 2.31   7 2.38
   2  0.758  0.258  0.016-   6 2.24   5 2.31   8 2.31   7 2.38
   3  0.742  0.758  0.500-   7 2.24   8 2.31   5 2.31   6 2.38
   4  0.258  0.242  0.500-   7 2.24   5 2.31   8 2.31   6 2.38
   5  0.500  0.500  0.000-   9 2.27  10 2.27   1 2.31   2 2.31   3 2.31   4 2.31   7 3.27   7 3.27
                             6 3.27   6 3.27
   6  0.000  0.500  0.500-   1 2.24   2 2.24   3 2.38   4 2.38   8 3.27   8 3.27   5 3.27   5 3.27

   7  0.500  0.000  0.500-   3 2.24   4 2.24   2 2.38   1 2.38   5 3.27   5 3.27   8 3.27   8 3.27

   8  0.000  0.000  0.000-   9 2.27  10 2.27   1 2.31   2 2.31   4 2.31   3 2.31   6 3.27   6 3.27
                             7 3.27   7 3.27
   9  0.250  0.250  0.000-   5 2.27   8 2.27
  10  0.750  0.750  0.000-   5 2.27   8 2.27
 
  LATTYP: Found a face centered orthorhombic cell.
 ALAT       =     9.0747325749
 B/A-ratio  =     1.0176713429
 C/A-ratio  =     1.0176796365
  
  Lattice vectors:
  
 A1 = (  -1.9237125880,   5.3005086851,   3.2935964470)
 A2 = (   3.7150871461,   5.3005086851,   0.1134428940)
 A3 = (  -1.9237125880,   5.3005086851,  -3.1801535530)


Analysis of symmetry for initial positions (statically):
=====================================================================
 Subroutine PRICEL returns:
 Original cell was already a primitive cell.
 

 Routine SETGRP: Setting up the symmetry group for a 
 face centered orthorhombic supercell.


 Subroutine GETGRP returns: Found  8 space group operations
 (whereof  4 operations were pure point group operations)
 out of a pool of  8 trial point group operations.


The static configuration has the point symmetry C_2h.
 The point group associated with its full space group is D_2h.


Analysis of symmetry for dynamics (positions and initial velocities):
=====================================================================
 Subroutine PRICEL returns:
 Original cell was already a primitive cell.
 

 Routine SETGRP: Setting up the symmetry group for a 
 face centered orthorhombic supercell.


 Subroutine GETGRP returns: Found  8 space group operations
 (whereof  4 operations were pure point group operations)
 out of a pool of  8 trial point group operations.


The dynamic configuration has the point symmetry C_2h.
 The point group associated with its full space group is D_2h.


 Subroutine INISYM returns: Found  8 space group operations
 (whereof  4 operations are pure point group operations),
 and found     1 'primitive' translations


----------------------------------------------------------------------------------------

                                     Primitive cell                                     

  volume of cell :     193.4907

  direct lattice vectors                    reciprocal lattice vectors
     5.638799734  0.000000000 -3.180153553     0.177342705  0.064362954  0.000000000
    -1.923712588  5.300508685 -3.180153553     0.000000000  0.188661138  0.000000000
     0.000000000  0.000000000  6.473750000     0.087117518  0.124295109  0.154469975

  length of vectors
     6.473750000  6.473750000  6.473750000     0.188661138  0.188661138  0.216563407

  position of ions in fractional coordinates (direct lattice)
     0.242130000  0.742130000  0.984260000
     0.757870000  0.257870000  0.015740000
     0.742130000  0.757870000  0.500000000
     0.257870000  0.242130000  0.500000000
     0.500000000  0.500000000  0.000000000
     0.000000000  0.500000000  0.500000000
     0.500000000  0.000000000  0.500000000
     0.000000000  0.000000000  0.000000000
     0.250000000  0.250000000  0.000000000
     0.750000000  0.750000000  0.000000000

  ion indices of the primitive-cell ions
   primitive index   ion index
                 1           1
                 2           2
                 3           3
                 4           4
                 5           5
                 6           6
                 7           7
                 8           8
                 9           9
                10          10

----------------------------------------------------------------------------------------

 
 
 KPOINTS: EA                                      

Automatic generation of k-mesh.
 Grid dimensions read from file:
 generate k-points for:    7    7    8

 Generating k-lattice:

  Cartesian coordinates                     Fractional coordinates (reciprocal lattice)
     0.025334672  0.009194708  0.000000000     0.142857143  0.000000000  0.000000000
     0.000000000  0.026951591  0.000000000     0.000000000  0.142857143  0.000000000
     0.010889690  0.015536889  0.019308747     0.000000000  0.000000000  0.125000000

  Length of vectors
     0.026951591  0.026951591  0.027070426

  Shift w.r.t. Gamma in fractional coordinates (k-lattice)
     0.000000000  0.000000000  0.000000000

 -----------------------------------------------------------------------------
|                                                                             |
|           W    W    AA    RRRRR   N    N  II  N    N   GGGG   !!!           |
|           W    W   A  A   R    R  NN   N  II  NN   N  G    G  !!!           |
|           W    W  A    A  R    R  N N  N  II  N N  N  G       !!!           |
|           W WW W  AAAAAA  RRRRR   N  N N  II  N  N N  G  GGG   !            |
|           WW  WW  A    A  R   R   N   NN  II  N   NN  G    G                |
|           W    W  A    A  R    R  N    N  II  N    N   GGGG   !!!           |
|                                                                             |
|     Your reciprocal lattice and k-lattice belong to different lattice       |
|     classes:                                                                |
|                                                                             |
|        The reciprocal lattice is body-centered orthorhombic,                |
|        whereas your k-lattice is base-centered monoclinic.                  |
|                                                                             |
|     Results are often still useful ...                                      |
|                                                                             |
 -----------------------------------------------------------------------------

 WARNING: IBZKPT: internal override: KBLOWUP is changed to .FALSE.
      ... skipping the blow-up phase ...

 
 Subroutine IBZKPT returns following result:
 ===========================================
 
 Found    116 irreducible k-points:
 
 Following reciprocal coordinates:
            Coordinates               Weight
  0.000000  0.000000  0.000000      1.000000
  0.142857  0.000000  0.000000      4.000000
  0.285714  0.000000  0.000000      4.000000
  0.428571  0.000000  0.000000      4.000000
  0.142857  0.142857  0.000000      2.000000
  0.285714  0.142857  0.000000      4.000000
  0.428571  0.142857  0.000000      4.000000
 -0.428571  0.142857  0.000000      4.000000
 -0.285714  0.142857  0.000000      4.000000
 -0.142857  0.142857  0.000000      2.000000
  0.285714  0.285714  0.000000      2.000000
  0.428571  0.285714  0.000000      4.000000
 -0.428571  0.285714  0.000000      4.000000
 -0.285714  0.285714  0.000000      2.000000
  0.428571  0.428571  0.000000      2.000000
 -0.428571  0.428571  0.000000      2.000000
 -0.000000  0.000000  0.125000      2.000000
  0.142857  0.000000  0.125000      4.000000
  0.285714  0.000000  0.125000      4.000000
  0.428571  0.000000  0.125000      4.000000
 -0.428571  0.000000  0.125000      4.000000
 -0.285714  0.000000  0.125000      4.000000
 -0.142857  0.000000  0.125000      4.000000
  0.142857  0.142857  0.125000      2.000000
  0.285714  0.142857  0.125000      4.000000
  0.428571  0.142857  0.125000      4.000000
 -0.428571  0.142857  0.125000      4.000000
 -0.285714  0.142857  0.125000      4.000000
 -0.142857  0.142857  0.125000      4.000000
  0.285714  0.285714  0.125000      2.000000
  0.428571  0.285714  0.125000      4.000000
 -0.428571  0.285714  0.125000      4.000000
 -0.285714  0.285714  0.125000      4.000000
 -0.142857  0.285714  0.125000      4.000000
  0.428571  0.428571  0.125000      2.000000
 -0.428571  0.428571  0.125000      4.000000
 -0.285714  0.428571  0.125000      4.000000
 -0.142857  0.428571  0.125000      4.000000
 -0.428571 -0.428571  0.125000      2.000000
 -0.285714 -0.428571  0.125000      4.000000
 -0.142857 -0.428571  0.125000      4.000000
 -0.285714 -0.285714  0.125000      2.000000
 -0.142857 -0.285714  0.125000      4.000000
 -0.142857 -0.142857  0.125000      2.000000
 -0.000000  0.000000  0.250000      2.000000
  0.142857  0.000000  0.250000      4.000000
  0.285714 -0.000000  0.250000      4.000000
  0.428571  0.000000  0.250000      4.000000
 -0.428571  0.000000  0.250000      4.000000
 -0.285714  0.000000  0.250000      4.000000
 -0.142857  0.000000  0.250000      4.000000
  0.142857  0.142857  0.250000      2.000000
  0.285714  0.142857  0.250000      4.000000
  0.428571  0.142857  0.250000      4.000000
 -0.428571  0.142857  0.250000      4.000000
 -0.285714  0.142857  0.250000      4.000000
 -0.142857  0.142857  0.250000      4.000000
  0.285714  0.285714  0.250000      2.000000
  0.428571  0.285714  0.250000      4.000000
 -0.428571  0.285714  0.250000      4.000000
 -0.285714  0.285714  0.250000      4.000000
 -0.142857  0.285714  0.250000      4.000000
  0.428571  0.428571  0.250000      2.000000
 -0.428571  0.428571  0.250000      4.000000
 -0.285714  0.428571  0.250000      4.000000
 -0.142857  0.428571  0.250000      4.000000
 -0.428571 -0.428571  0.250000      2.000000
 -0.285714 -0.428571  0.250000      4.000000
 -0.142857 -0.428571  0.250000      4.000000
 -0.285714 -0.285714  0.250000      2.000000
 -0.142857 -0.285714  0.250000      4.000000
 -0.142857 -0.142857  0.250000      2.000000
 -0.000000 -0.000000  0.375000      2.000000
  0.142857 -0.000000  0.375000      4.000000
  0.285714 -0.000000  0.375000      4.000000
  0.428571 -0.000000  0.375000      4.000000
 -0.428571 -0.000000  0.375000      4.000000
 -0.285714  0.000000  0.375000      4.000000
 -0.142857  0.000000  0.375000      4.000000
  0.142857  0.142857  0.375000      2.000000
  0.285714  0.142857  0.375000      4.000000
  0.428571  0.142857  0.375000      4.000000
 -0.428571  0.142857  0.375000      4.000000
 -0.285714  0.142857  0.375000      4.000000
 -0.142857  0.142857  0.375000      4.000000
  0.285714  0.285714  0.375000      2.000000
  0.428571  0.285714  0.375000      4.000000
 -0.428571  0.285714  0.375000      4.000000
 -0.285714  0.285714  0.375000      4.000000
 -0.142857  0.285714  0.375000      4.000000
  0.428571  0.428571  0.375000      2.000000
 -0.428571  0.428571  0.375000      4.000000
 -0.285714  0.428571  0.375000      4.000000
 -0.142857  0.428571  0.375000      4.000000
 -0.428571 -0.428571  0.375000      2.000000
 -0.285714 -0.428571  0.375000      4.000000
 -0.142857 -0.428571  0.375000      4.000000
 -0.285714 -0.285714  0.375000      2.000000
 -0.142857 -0.285714  0.375000      4.000000
 -0.142857 -0.142857  0.375000      2.000000
 -0.000000  0.000000  0.500000      1.000000
  0.142857  0.000000  0.500000      4.000000
  0.285714 -0.000000  0.500000      4.000000
  0.428571  0.000000  0.500000      4.000000
  0.142857  0.142857  0.500000      2.000000
  0.285714  0.142857  0.500000      4.000000
  0.428571  0.142857  0.500000      4.000000
 -0.428571  0.142857  0.500000      4.000000
 -0.285714  0.142857  0.500000      4.000000
 -0.142857  0.142857  0.500000      2.000000
  0.285714  0.285714  0.500000      2.000000
  0.428571  0.285714  0.500000      4.000000
 -0.428571  0.285714  0.500000      4.000000
 -0.285714  0.285714  0.500000      2.000000
  0.428571  0.428571  0.500000      2.000000
 -0.428571  0.428571  0.500000      2.000000
 
 Following cartesian coordinates:
            Coordinates               Weight
  0.000000  0.000000  0.000000      1.000000
  0.025335  0.009195  0.000000      4.000000
  0.050669  0.018389  0.000000      4.000000
  0.076004  0.027584  0.000000      4.000000
  0.025335  0.036146  0.000000      2.000000
  0.050669  0.045341  0.000000      4.000000
  0.076004  0.054536  0.000000      4.000000
 -0.076004 -0.000633  0.000000      4.000000
 -0.050669  0.008562  0.000000      4.000000
 -0.025335  0.017757  0.000000      2.000000
  0.050669  0.072293  0.000000      2.000000
  0.076004  0.081487  0.000000      4.000000
 -0.076004  0.026319  0.000000      4.000000
 -0.050669  0.035514  0.000000      2.000000
  0.076004  0.108439  0.000000      2.000000
 -0.076004  0.053271  0.000000      2.000000
  0.010890  0.015537  0.019309      2.000000
  0.036224  0.024732  0.019309      4.000000
  0.061559  0.033926  0.019309      4.000000
  0.086894  0.043121  0.019309      4.000000
 -0.065114 -0.012047  0.019309      4.000000
 -0.039780 -0.002853  0.019309      4.000000
 -0.014445  0.006342  0.019309      4.000000
  0.036224  0.051683  0.019309      2.000000
  0.061559  0.060878  0.019309      4.000000
  0.086894  0.070073  0.019309      4.000000
 -0.065114  0.014904  0.019309      4.000000
 -0.039780  0.024099  0.019309      4.000000
 -0.014445  0.033294  0.019309      4.000000
  0.061559  0.087829  0.019309      2.000000
  0.086894  0.097024  0.019309      4.000000
 -0.065114  0.041856  0.019309      4.000000
 -0.039780  0.051051  0.019309      4.000000
 -0.014445  0.060245  0.019309      4.000000
  0.086894  0.123976  0.019309      2.000000
 -0.065114  0.068808  0.019309      4.000000
 -0.039780  0.078002  0.019309      4.000000
 -0.014445  0.087197  0.019309      4.000000
 -0.065114 -0.092902  0.019309      2.000000
 -0.039780 -0.083707  0.019309      4.000000
 -0.014445 -0.074513  0.019309      4.000000
 -0.039780 -0.056756  0.019309      2.000000
 -0.014445 -0.047561  0.019309      4.000000
 -0.014445 -0.020609  0.019309      2.000000
  0.021779  0.031074  0.038617      2.000000
  0.047114  0.040268  0.038617      4.000000
  0.072449  0.049463  0.038617      4.000000
  0.097783  0.058658  0.038617      4.000000
 -0.054225  0.003490  0.038617      4.000000
 -0.028890  0.012684  0.038617      4.000000
 -0.003555  0.021879  0.038617      4.000000
  0.047114  0.067220  0.038617      2.000000
  0.072449  0.076415  0.038617      4.000000
  0.097783  0.085609  0.038617      4.000000
 -0.054225  0.030441  0.038617      4.000000
 -0.028890  0.039636  0.038617      4.000000
 -0.003555  0.048831  0.038617      4.000000
  0.072449  0.103366  0.038617      2.000000
  0.097783  0.112561  0.038617      4.000000
 -0.054225  0.057393  0.038617      4.000000
 -0.028890  0.066588  0.038617      4.000000
 -0.003555  0.075782  0.038617      4.000000
  0.097783  0.139513  0.038617      2.000000
 -0.054225  0.084344  0.038617      4.000000
 -0.028890  0.093539  0.038617      4.000000
 -0.003555  0.102734  0.038617      4.000000
 -0.054225 -0.077365  0.038617      2.000000
 -0.028890 -0.068170  0.038617      4.000000
 -0.003555 -0.058976  0.038617      4.000000
 -0.028890 -0.041219  0.038617      2.000000
 -0.003555 -0.032024  0.038617      4.000000
 -0.003555 -0.005073  0.038617      2.000000
  0.032669  0.046611  0.057926      2.000000
  0.058004  0.055805  0.057926      4.000000
  0.083338  0.065000  0.057926      4.000000
  0.108673  0.074195  0.057926      4.000000
 -0.043335  0.019027  0.057926      4.000000
 -0.018000  0.028221  0.057926      4.000000
  0.007334  0.037416  0.057926      4.000000
  0.058004  0.082757  0.057926      2.000000
  0.083338  0.091952  0.057926      4.000000
  0.108673  0.101146  0.057926      4.000000
 -0.043335  0.045978  0.057926      4.000000
 -0.018000  0.055173  0.057926      4.000000
  0.007334  0.064368  0.057926      4.000000
  0.083338  0.118903  0.057926      2.000000
  0.108673  0.128098  0.057926      4.000000
 -0.043335  0.072930  0.057926      4.000000
 -0.018000  0.082124  0.057926      4.000000
  0.007334  0.091319  0.057926      4.000000
  0.108673  0.155050  0.057926      2.000000
 -0.043335  0.099881  0.057926      4.000000
 -0.018000  0.109076  0.057926      4.000000
  0.007334  0.118271  0.057926      4.000000
 -0.043335 -0.061828  0.057926      2.000000
 -0.018000 -0.052634  0.057926      4.000000
  0.007334 -0.043439  0.057926      4.000000
 -0.018000 -0.025682  0.057926      2.000000
  0.007334 -0.016487  0.057926      4.000000
  0.007334  0.010464  0.057926      2.000000
  0.043559  0.062148  0.077235      1.000000
  0.068893  0.071342  0.077235      4.000000
  0.094228  0.080537  0.077235      4.000000
  0.119563  0.089732  0.077235      4.000000
  0.068893  0.098294  0.077235      2.000000
  0.094228  0.107489  0.077235      4.000000
  0.119563  0.116683  0.077235      4.000000
 -0.032445  0.061515  0.077235      4.000000
 -0.007111  0.070710  0.077235      4.000000
  0.018224  0.079904  0.077235      2.000000
  0.094228  0.134440  0.077235      2.000000
  0.119563  0.143635  0.077235      4.000000
 -0.032445  0.088467  0.077235      4.000000
 -0.007111  0.097661  0.077235      2.000000
  0.119563  0.170586  0.077235      2.000000
 -0.032445  0.115418  0.077235      2.000000
 


--------------------------------------------------------------------------------------------------------




 Dimension of arrays:
   k-points           NKPTS =    116   k-points in BZ     NKDIM =    116   number of bands    NBANDS=     48
   number of dos      NEDOS =    301   number of ions     NIONS =     10
   non local maximal  LDIM  =      6   non local SUM 2l+1 LMDIM =     18
   total plane-waves  NPLWV = 157464
   max r-space proj   IRMAX =      1   max aug-charges    IRDMAX= 284879
   dimension x,y,z NGX =    54 NGY =   54 NGZ =   54
   dimension x,y,z NGXF=   108 NGYF=  108 NGZF=  108
   support grid    NGXF=   216 NGYF=  216 NGZF=  216
   ions per type =               4   4   2
   NGX,Y,Z   is equivalent  to a cutoff of  13.87, 13.87, 13.87 a.u.
   NGXF,Y,Z  is equivalent  to a cutoff of  27.73, 27.73, 27.73 a.u.

 SYSTEM =  routine with relax: pwdword             
 POSCAR =  EA151                                   

 Startparameter for this run:
   NWRITE =      2    write-flag & timer
   PREC   = acc       normal or accurate (medium, high low for compatibility)
   ISTART =      0    job   : 0-new  1-cont  2-samecut
   ICHARG =      2    charge: 1-file 2-atom 10-const
   ISPIN  =      1    spin polarized calculation?
   LNONCOLLINEAR =      F non collinear calculations
   LSORBIT =      F    spin-orbit coupling
   INIWAV =      1    electr: 0-lowe 1-rand  2-diag
   LASPH  =      T    aspherical Exc in radial PAW
   METAGGA=      F    non-selfconsistent MetaGGA calc.

 Electronic Relaxation 1
   ENCUT  =  600.0 eV  44.10 Ry    6.64 a.u.  12.93 12.93 12.93*2*pi/ulx,y,z
   ENINI  =  600.0     initial cutoff
   ENAUG  =  535.5 eV  augmentation charge cutoff
   NELM   =    100;   NELMIN=  6; NELMDL= -5     # of ELM steps 
   EDIFF  = 0.1E-08   stopping-criterion for ELM
   LREAL  =      F    real-space projection
   NLSPLINE    = F    spline interpolate recip. space projectors
   LCOMPAT=      F    compatible to vasp.4.4
   GGA_COMPAT  = T    GGA compatible to vasp.4.4-vasp.4.6
   LMAXPAW     = -100 max onsite density
   LMAXMIX     =    2 max onsite mixed and CHGCAR
   VOSKOWN=      0    Vosko Wilk Nusair interpolation
   ROPT   =    0.00000   0.00000   0.00000
 Ionic relaxation
   EDIFFG = 0.1E-07   stopping-criterion for IOM
   NSW    =      0    number of steps for IOM
   NBLOCK =      1;   KBLOCK =      1    inner block; outer block 
   IBRION =     -1    ionic relax: 0-MD 1-quasi-New 2-CG
   NFREE  =      0    steps in history (QN), initial steepest desc. (CG)
   ISIF   =     -1    stress and relaxation
   IWAVPR =     10    prediction:  0-non 1-charg 2-wave 3-comb
   ISYM   =      2    0-nonsym 1-usesym 2-fastsym
   LCORR  =      T    Harris-Foulkes like correction to forces

   POTIM  = 0.5000    time-step for ionic-motion
   TEIN   =    0.0    initial temperature
   TEBEG  =    0.0;   TEEND  =   0.0 temperature during run
   SMASS  =  -3.00    Nose mass-parameter (am)
   estimated Nose-frequenzy (Omega)   =  0.10E-29 period in steps = 0.13E+47 mass=  -0.958E-27a.u.
   SCALEE = 1.0000    scale energy and forces
   NPACO  =    256;   APACO  = 16.0  distance and # of slots for P.C.
   PSTRESS=    0.0 pullay stress

  Mass of Ions in am
   POMASS =  10.81 95.94 28.09
  Ionic Valenz
   ZVAL   =   3.00 14.00  4.00
  Atomic Wigner-Seitz radii
   RWIGS  =  -1.00 -1.00 -1.00
  virtual crystal weights 
   VCA    =   1.00  1.00  1.00
   NELECT =      76.0000    total number of electrons
   NUPDOWN=      -1.0000    fix difference up-down

 DOS related values:
   EMIN   =  10.00;   EMAX   =-10.00  energy-range for DOS
   EFERMI =   0.00
   ISMEAR =     0;   SIGMA  =   0.02  broadening in eV -4-tet -1-fermi 0-gaus

 Electronic relaxation 2 (details)
   IALGO  =     58    algorithm
   LDIAG  =      T    sub-space diagonalisation (order eigenvalues)
   LSUBROT=      F    optimize rotation matrix (better conditioning)
   TURBO    =      0    0=normal 1=particle mesh
   IRESTART =      0    0=no restart 2=restart with 2 vectors
   NREBOOT  =      0    no. of reboots
   NMIN     =      0    reboot dimension
   EREF     =   0.00    reference energy to select bands
   IMIX   =      4    mixing-type and parameters
     AMIX     =   0.40;   BMIX     =  1.00
     AMIX_MAG =   1.60;   BMIX_MAG =  1.00
     AMIN     =   0.10
     WC   =   100.;   INIMIX=   1;  MIXPRE=   1;  MAXMIX= -45

 Intra band minimization:
   WEIMIN = 0.0000     energy-eigenvalue tresh-hold
   EBREAK =  0.52E-11  absolut break condition
   DEPER  =   0.30     relativ break condition  

   TIME   =   0.40     timestep for ELM

  volume/ion in A,a.u.               =      19.35       130.57
  Fermi-wavevector in a.u.,A,eV,Ry     =   1.198927  2.265643 19.557359  1.437425
  Thomas-Fermi vector in A             =   2.334803
 
 Write flags
   LWAVE        =      T    write WAVECAR
   LDOWNSAMPLE  =      F    k-point downsampling of WAVECAR
   LCHARG       =      T    write CHGCAR
   LVTOT        =      F    write LOCPOT, total local potential
   LVHAR        =      F    write LOCPOT, Hartree potential only
   LELF         =      F    write electronic localiz. function (ELF)
   LORBIT       =      0    0 simple, 1 ext, 2 COOP (PROOUT), +10 PAW based schemes


 Dipole corrections
   LMONO  =      F    monopole corrections only (constant potential shift)
   LDIPOL =      F    correct potential (dipole corrections)
   IDIPOL =      0    1-x, 2-y, 3-z, 4-all directions 
   EPSILON=  1.0000000 bulk dielectric constant

 Exchange correlation treatment:
   GGA     =    --    GGA type
   LEXCH   =     8    internal setting for exchange type
   VOSKOWN=      0    Vosko Wilk Nusair interpolation
   LHFCALC =     F    Hartree Fock is set to
   LHFONE  =     F    Hartree Fock one center treatment
   AEXX    =    0.0000 exact exchange contribution

 Linear response parameters
   LEPSILON=     F    determine dielectric tensor
   LRPA    =     F    only Hartree local field effects (RPA)
   LNABLA  =     F    use nabla operator in PAW spheres
   LVEL    =     F    velocity operator in full k-point grid
   LINTERFAST=   F  fast interpolation
   KINTER  =     0    interpolate to denser k-point grid
   CSHIFT  =0.1000    complex shift for real part using Kramers Kronig
   OMEGAMAX=  -1.0    maximum frequency
   DEG_THRESHOLD= 0.2000000E-02 threshold for treating states as degnerate
   RTIME   =   -0.100 relaxation time in fs
  (WPLASMAI=    0.000 imaginary part of plasma frequency in eV, 0.658/RTIME)
   DFIELD  = 0.0000000 0.0000000 0.0000000 field for delta impulse in time
 
 Orbital magnetization related:
   ORBITALMAG=     F  switch on orbital magnetization
   LCHIMAG   =     F  perturbation theory with respect to B field
   DQ        =  0.001000  dq finite difference perturbation B field
   LLRAUG    =     F  two centre corrections for induced B field



--------------------------------------------------------------------------------------------------------


 Static calculation
 charge density and potential will be updated during run
 non-spin polarized calculation
 Conjugate gradient for all bands (Freysoldt, et al. PRB 79, 241103 (2009))
 preconditioned conjugated gradient                                        
 perform sub-space diagonalisation
    before iterative eigenvector-optimisation
 modified Broyden-mixing scheme, WC =      100.0
 initial mixing is a Kerker type mixing with AMIX =  0.4000 and BMIX =      1.0000
 Hartree-type preconditioning will be used
 using additional bands           10
 reciprocal scheme for non local part
 use partial core corrections
 no Harris-corrections to forces 
 use gradient corrections 
 use of overlap-Matrix (Vanderbilt PP)
 Gauss-broadening in eV      SIGMA  =   0.02


--------------------------------------------------------------------------------------------------------


  energy-cutoff  :      600.00
  volume of cell :      193.49
      direct lattice vectors                 reciprocal lattice vectors
     5.638799734  0.000000000 -3.180153553     0.177342705  0.064362954  0.000000000
    -1.923712588  5.300508685 -3.180153553     0.000000000  0.188661138  0.000000000
     0.000000000  0.000000000  6.473750000     0.087117518  0.124295109  0.154469975

  length of vectors
     6.473750000  6.473750000  6.473750000     0.188661138  0.188661138  0.216563407


 
 k-points in units of 2pi/SCALE and weight: EA                                      
   0.00000000  0.00000000  0.00000000       0.003
   0.02533467  0.00919471  0.00000000       0.010
   0.05066934  0.01838942  0.00000000       0.010
   0.07600402  0.02758412  0.00000000       0.010
   0.02533467  0.03614630  0.00000000       0.005
   0.05066934  0.04534101  0.00000000       0.010
   0.07600402  0.05453571  0.00000000       0.010
  -0.07600402 -0.00063253  0.00000000       0.010
  -0.05066934  0.00856218  0.00000000       0.010
  -0.02533467  0.01775688  0.00000000       0.005
   0.05066934  0.07229260  0.00000000       0.005
   0.07600402  0.08148731  0.00000000       0.010
  -0.07600402  0.02631906  0.00000000       0.010
  -0.05066934  0.03551377  0.00000000       0.005
   0.07600402  0.10843890  0.00000000       0.005
  -0.07600402  0.05327065  0.00000000       0.005
   0.01088969  0.01553689  0.01930875       0.005
   0.03622436  0.02473160  0.01930875       0.010
   0.06155903  0.03392630  0.01930875       0.010
   0.08689371  0.04312101  0.01930875       0.010
  -0.06511433 -0.01204723  0.01930875       0.010
  -0.03977965 -0.00285253  0.01930875       0.010
  -0.01444498  0.00634218  0.01930875       0.010
   0.03622436  0.05168319  0.01930875       0.005
   0.06155903  0.06087790  0.01930875       0.010
   0.08689371  0.07007260  0.01930875       0.010
  -0.06511433  0.01490436  0.01930875       0.010
  -0.03977965  0.02409906  0.01930875       0.010
  -0.01444498  0.03329377  0.01930875       0.010
   0.06155903  0.08782949  0.01930875       0.005
   0.08689371  0.09702419  0.01930875       0.010
  -0.06511433  0.04185595  0.01930875       0.010
  -0.03977965  0.05105066  0.01930875       0.010
  -0.01444498  0.06024536  0.01930875       0.010
   0.08689371  0.12397579  0.01930875       0.005
  -0.06511433  0.06880754  0.01930875       0.010
  -0.03977965  0.07800225  0.01930875       0.010
  -0.01444498  0.08719695  0.01930875       0.010
  -0.06511433 -0.09290201  0.01930875       0.005
  -0.03977965 -0.08370730  0.01930875       0.010
  -0.01444498 -0.07451259  0.01930875       0.010
  -0.03977965 -0.05675571  0.01930875       0.005
  -0.01444498 -0.04756100  0.01930875       0.010
  -0.01444498 -0.02060941  0.01930875       0.005
   0.02177938  0.03107378  0.03861749       0.005
   0.04711405  0.04026848  0.03861749       0.010
   0.07244872  0.04946319  0.03861749       0.010
   0.09778340  0.05865790  0.03861749       0.010
  -0.05422464  0.00348965  0.03861749       0.010
  -0.02888996  0.01268436  0.03861749       0.010
  -0.00355529  0.02187907  0.03861749       0.010
   0.04711405  0.06722008  0.03861749       0.005
   0.07244872  0.07641478  0.03861749       0.010
   0.09778340  0.08560949  0.03861749       0.010
  -0.05422464  0.03044125  0.03861749       0.010
  -0.02888996  0.03963595  0.03861749       0.010
  -0.00355529  0.04883066  0.03861749       0.010
   0.07244872  0.10336637  0.03861749       0.005
   0.09778340  0.11256108  0.03861749       0.010
  -0.05422464  0.05739284  0.03861749       0.010
  -0.02888996  0.06658754  0.03861749       0.010
  -0.00355529  0.07578225  0.03861749       0.010
   0.09778340  0.13951267  0.03861749       0.005
  -0.05422464  0.08434443  0.03861749       0.010
  -0.02888996  0.09353914  0.03861749       0.010
  -0.00355529  0.10273384  0.03861749       0.010
  -0.05422464 -0.07736512  0.03861749       0.005
  -0.02888996 -0.06817041  0.03861749       0.010
  -0.00355529 -0.05897570  0.03861749       0.010
  -0.02888996 -0.04121882  0.03861749       0.005
  -0.00355529 -0.03202411  0.03861749       0.010
  -0.00355529 -0.00507252  0.03861749       0.005
   0.03266907  0.04661067  0.05792624       0.005
   0.05800374  0.05580537  0.05792624       0.010
   0.08333841  0.06500008  0.05792624       0.010
   0.10867309  0.07419479  0.05792624       0.010
  -0.04333495  0.01902654  0.05792624       0.010
  -0.01800028  0.02822125  0.05792624       0.010
   0.00733440  0.03741596  0.05792624       0.010
   0.05800374  0.08275696  0.05792624       0.005
   0.08333841  0.09195167  0.05792624       0.010
   0.10867309  0.10114638  0.05792624       0.010
  -0.04333495  0.04597813  0.05792624       0.010
  -0.01800028  0.05517284  0.05792624       0.010
   0.00733440  0.06436755  0.05792624       0.010
   0.08333841  0.11890326  0.05792624       0.005
   0.10867309  0.12809797  0.05792624       0.010
  -0.04333495  0.07292973  0.05792624       0.010
  -0.01800028  0.08212443  0.05792624       0.010
   0.00733440  0.09131914  0.05792624       0.010
   0.10867309  0.15504956  0.05792624       0.005
  -0.04333495  0.09988132  0.05792624       0.010
  -0.01800028  0.10907602  0.05792624       0.010
   0.00733440  0.11827073  0.05792624       0.010
  -0.04333495 -0.06182823  0.05792624       0.005
  -0.01800028 -0.05263352  0.05792624       0.010
   0.00733440 -0.04343882  0.05792624       0.010
  -0.01800028 -0.02568193  0.05792624       0.005
   0.00733440 -0.01648722  0.05792624       0.010
   0.00733440  0.01046437  0.05792624       0.005
   0.04355876  0.06214755  0.07723499       0.003
   0.06889343  0.07134226  0.07723499       0.010
   0.09422810  0.08053697  0.07723499       0.010
   0.11956278  0.08973168  0.07723499       0.010
   0.06889343  0.09829385  0.07723499       0.005
   0.09422810  0.10748856  0.07723499       0.010
   0.11956278  0.11668327  0.07723499       0.010
  -0.03244526  0.06151502  0.07723499       0.010
  -0.00711059  0.07070973  0.07723499       0.010
   0.01822409  0.07990444  0.07723499       0.005
   0.09422810  0.13444015  0.07723499       0.005
   0.11956278  0.14363486  0.07723499       0.010
  -0.03244526  0.08846661  0.07723499       0.010
  -0.00711059  0.09766132  0.07723499       0.005
   0.11956278  0.17058645  0.07723499       0.005
  -0.03244526  0.11541821  0.07723499       0.005
 
 k-points in reciprocal lattice and weights: EA                                      
   0.00000000  0.00000000  0.00000000       0.003
   0.14285714  0.00000000  0.00000000       0.010
   0.28571429  0.00000000  0.00000000       0.010
   0.42857143  0.00000000  0.00000000       0.010
   0.14285714  0.14285714  0.00000000       0.005
   0.28571429  0.14285714  0.00000000       0.010
   0.42857143  0.14285714  0.00000000       0.010
  -0.42857143  0.14285714  0.00000000       0.010
  -0.28571429  0.14285714  0.00000000       0.010
  -0.14285714  0.14285714  0.00000000       0.005
   0.28571429  0.28571429  0.00000000       0.005
   0.42857143  0.28571429  0.00000000       0.010
  -0.42857143  0.28571429  0.00000000       0.010
  -0.28571429  0.28571429  0.00000000       0.005
   0.42857143  0.42857143  0.00000000       0.005
  -0.42857143  0.42857143  0.00000000       0.005
  -0.00000000  0.00000000  0.12500000       0.005
   0.14285714  0.00000000  0.12500000       0.010
   0.28571429  0.00000000  0.12500000       0.010
   0.42857143  0.00000000  0.12500000       0.010
  -0.42857143  0.00000000  0.12500000       0.010
  -0.28571429  0.00000000  0.12500000       0.010
  -0.14285714  0.00000000  0.12500000       0.010
   0.14285714  0.14285714  0.12500000       0.005
   0.28571429  0.14285714  0.12500000       0.010
   0.42857143  0.14285714  0.12500000       0.010
  -0.42857143  0.14285714  0.12500000       0.010
  -0.28571429  0.14285714  0.12500000       0.010
  -0.14285714  0.14285714  0.12500000       0.010
   0.28571429  0.28571429  0.12500000       0.005
   0.42857143  0.28571429  0.12500000       0.010
  -0.42857143  0.28571429  0.12500000       0.010
  -0.28571429  0.28571429  0.12500000       0.010
  -0.14285714  0.28571429  0.12500000       0.010
   0.42857143  0.42857143  0.12500000       0.005
  -0.42857143  0.42857143  0.12500000       0.010
  -0.28571429  0.42857143  0.12500000       0.010
  -0.14285714  0.42857143  0.12500000       0.010
  -0.42857143 -0.42857143  0.12500000       0.005
  -0.28571429 -0.42857143  0.12500000       0.010
  -0.14285714 -0.42857143  0.12500000       0.010
  -0.28571429 -0.28571429  0.12500000       0.005
  -0.14285714 -0.28571429  0.12500000       0.010
  -0.14285714 -0.14285714  0.12500000       0.005
  -0.00000000  0.00000000  0.25000000       0.005
   0.14285714  0.00000000  0.25000000       0.010
   0.28571429 -0.00000000  0.25000000       0.010
   0.42857143  0.00000000  0.25000000       0.010
  -0.42857143  0.00000000  0.25000000       0.010
  -0.28571429  0.00000000  0.25000000       0.010
  -0.14285714  0.00000000  0.25000000       0.010
   0.14285714  0.14285714  0.25000000       0.005
   0.28571429  0.14285714  0.25000000       0.010
   0.42857143  0.14285714  0.25000000       0.010
  -0.42857143  0.14285714  0.25000000       0.010
  -0.28571429  0.14285714  0.25000000       0.010
  -0.14285714  0.14285714  0.25000000       0.010
   0.28571429  0.28571429  0.25000000       0.005
   0.42857143  0.28571429  0.25000000       0.010
  -0.42857143  0.28571429  0.25000000       0.010
  -0.28571429  0.28571429  0.25000000       0.010
  -0.14285714  0.28571429  0.25000000       0.010
   0.42857143  0.42857143  0.25000000       0.005
  -0.42857143  0.42857143  0.25000000       0.010
  -0.28571429  0.42857143  0.25000000       0.010
  -0.14285714  0.42857143  0.25000000       0.010
  -0.42857143 -0.42857143  0.25000000       0.005
  -0.28571429 -0.42857143  0.25000000       0.010
  -0.14285714 -0.42857143  0.25000000       0.010
  -0.28571429 -0.28571429  0.25000000       0.005
  -0.14285714 -0.28571429  0.25000000       0.010
  -0.14285714 -0.14285714  0.25000000       0.005
  -0.00000000 -0.00000000  0.37500000       0.005
   0.14285714 -0.00000000  0.37500000       0.010
   0.28571429 -0.00000000  0.37500000       0.010
   0.42857143 -0.00000000  0.37500000       0.010
  -0.42857143 -0.00000000  0.37500000       0.010
  -0.28571429  0.00000000  0.37500000       0.010
  -0.14285714  0.00000000  0.37500000       0.010
   0.14285714  0.14285714  0.37500000       0.005
   0.28571429  0.14285714  0.37500000       0.010
   0.42857143  0.14285714  0.37500000       0.010
  -0.42857143  0.14285714  0.37500000       0.010
  -0.28571429  0.14285714  0.37500000       0.010
  -0.14285714  0.14285714  0.37500000       0.010
   0.28571429  0.28571429  0.37500000       0.005
   0.42857143  0.28571429  0.37500000       0.010
  -0.42857143  0.28571429  0.37500000       0.010
  -0.28571429  0.28571429  0.37500000       0.010
  -0.14285714  0.28571429  0.37500000       0.010
   0.42857143  0.42857143  0.37500000       0.005
  -0.42857143  0.42857143  0.37500000       0.010
  -0.28571429  0.42857143  0.37500000       0.010
  -0.14285714  0.42857143  0.37500000       0.010
  -0.42857143 -0.42857143  0.37500000       0.005
  -0.28571429 -0.42857143  0.37500000       0.010
  -0.14285714 -0.42857143  0.37500000       0.010
  -0.28571429 -0.28571429  0.37500000       0.005
  -0.14285714 -0.28571429  0.37500000       0.010
  -0.14285714 -0.14285714  0.37500000       0.005
  -0.00000000  0.00000000  0.50000000       0.003
   0.14285714  0.00000000  0.50000000       0.010
   0.28571429 -0.00000000  0.50000000       0.010
   0.42857143  0.00000000  0.50000000       0.010
   0.14285714  0.14285714  0.50000000       0.005
   0.28571429  0.14285714  0.50000000       0.010
   0.42857143  0.14285714  0.50000000       0.010
  -0.42857143  0.14285714  0.50000000       0.010
  -0.28571429  0.14285714  0.50000000       0.010
  -0.14285714  0.14285714  0.50000000       0.005
   0.28571429  0.28571429  0.50000000       0.005
   0.42857143  0.28571429  0.50000000       0.010
  -0.42857143  0.28571429  0.50000000       0.010
  -0.28571429  0.28571429  0.50000000       0.005
   0.42857143  0.42857143  0.50000000       0.005
  -0.42857143  0.42857143  0.50000000       0.005
 
 position of ions in fractional coordinates (direct lattice) 
   0.24213000  0.74213000  0.98426000
   0.75787000  0.25787000  0.01574000
   0.74213000  0.75787000  0.50000000
   0.25787000  0.24213000  0.50000000
   0.50000000  0.50000000  0.00000000
   0.00000000  0.50000000  0.50000000
   0.50000000  0.00000000  0.50000000
   0.00000000  0.00000000  0.00000000
   0.25000000  0.25000000  0.00000000
   0.75000000  0.75000000  0.00000000
 
 position of ions in cartesian coordinates  (Angst):
  -0.06232224  3.93366651  3.24175524
   3.77740939  1.36684217 -3.12831234
   2.72679839  4.01709652 -1.53335533
   0.98828876  1.28341217  1.64679822
   1.85754357  2.65025434 -3.18015355
  -0.96185629  2.65025434  1.64679822
   2.81939987  0.00000000  1.64679822
   0.00000000  0.00000000  0.00000000
   0.92877179  1.32512717 -1.59007678
   2.78631536  3.97538151 -4.77023033
 


--------------------------------------------------------------------------------------------------------


 k-point   1 :   0.0000 0.0000 0.0000  plane waves:    6455
 k-point   2 :   0.1429 0.0000 0.0000  plane waves:    6450
 k-point   3 :   0.2857 0.0000 0.0000  plane waves:    6455
 k-point   4 :   0.4286 0.0000 0.0000  plane waves:    6452
 k-point   5 :   0.1429 0.1429 0.0000  plane waves:    6442
 k-point   6 :   0.2857 0.1429 0.0000  plane waves:    6449
 k-point   7 :   0.4286 0.1429 0.0000  plane waves:    6456
 k-point   8 :  -0.4286 0.1429 0.0000  plane waves:    6457
 k-point   9 :  -0.2857 0.1429 0.0000  plane waves:    6443
 k-point  10 :  -0.1429 0.1429 0.0000  plane waves:    6425
 k-point  11 :   0.2857 0.2857 0.0000  plane waves:    6476
 k-point  12 :   0.4286 0.2857 0.0000  plane waves:    6473
 k-point  13 :  -0.4286 0.2857 0.0000  plane waves:    6457
 k-point  14 :  -0.2857 0.2857 0.0000  plane waves:    6434
 k-point  15 :   0.4286 0.4286 0.0000  plane waves:    6461
 k-point  16 :  -0.4286 0.4286 0.0000  plane waves:    6458
 k-point  17 :  -0.0000 0.0000 0.1250  plane waves:    6425
 k-point  18 :   0.1429 0.0000 0.1250  plane waves:    6444
 k-point  19 :   0.2857 0.0000 0.1250  plane waves:    6453
 k-point  20 :   0.4286 0.0000 0.1250  plane waves:    6451
 k-point  21 :  -0.4286 0.0000 0.1250  plane waves:    6451
 k-point  22 :  -0.2857 0.0000 0.1250  plane waves:    6445
 k-point  23 :  -0.1429 0.0000 0.1250  plane waves:    6442
 k-point  24 :   0.1429 0.1429 0.1250  plane waves:    6439
 k-point  25 :   0.2857 0.1429 0.1250  plane waves:    6462
 k-point  26 :   0.4286 0.1429 0.1250  plane waves:    6463
 k-point  27 :  -0.4286 0.1429 0.1250  plane waves:    6440
 k-point  28 :  -0.2857 0.1429 0.1250  plane waves:    6431
 k-point  29 :  -0.1429 0.1429 0.1250  plane waves:    6443
 k-point  30 :   0.2857 0.2857 0.1250  plane waves:    6474
 k-point  31 :   0.4286 0.2857 0.1250  plane waves:    6482
 k-point  32 :  -0.4286 0.2857 0.1250  plane waves:    6458
 k-point  33 :  -0.2857 0.2857 0.1250  plane waves:    6442
 k-point  34 :  -0.1429 0.2857 0.1250  plane waves:    6442
 k-point  35 :   0.4286 0.4286 0.1250  plane waves:    6459
 k-point  36 :  -0.4286 0.4286 0.1250  plane waves:    6471
 k-point  37 :  -0.2857 0.4286 0.1250  plane waves:    6459
 k-point  38 :  -0.1429 0.4286 0.1250  plane waves:    6447
 k-point  39 :  -0.4286-0.4286 0.1250  plane waves:    6484
 k-point  40 :  -0.2857-0.4286 0.1250  plane waves:    6478
 k-point  41 :  -0.1429-0.4286 0.1250  plane waves:    6453
 k-point  42 :  -0.2857-0.2857 0.1250  plane waves:    6469
 k-point  43 :  -0.1429-0.2857 0.1250  plane waves:    6461
 k-point  44 :  -0.1429-0.1429 0.1250  plane waves:    6442
 k-point  45 :  -0.0000 0.0000 0.2500  plane waves:    6418
 k-point  46 :   0.1429 0.0000 0.2500  plane waves:    6453
 k-point  47 :   0.2857-0.0000 0.2500  plane waves:    6461
 k-point  48 :   0.4286 0.0000 0.2500  plane waves:    6467
 k-point  49 :  -0.4286 0.0000 0.2500  plane waves:    6451
 k-point  50 :  -0.2857 0.0000 0.2500  plane waves:    6446
 k-point  51 :  -0.1429 0.0000 0.2500  plane waves:    6446
 k-point  52 :   0.1429 0.1429 0.2500  plane waves:    6466
 k-point  53 :   0.2857 0.1429 0.2500  plane waves:    6482
 k-point  54 :   0.4286 0.1429 0.2500  plane waves:    6469
 k-point  55 :  -0.4286 0.1429 0.2500  plane waves:    6454
 k-point  56 :  -0.2857 0.1429 0.2500  plane waves:    6443
 k-point  57 :  -0.1429 0.1429 0.2500  plane waves:    6439
 k-point  58 :   0.2857 0.2857 0.2500  plane waves:    6489
 k-point  59 :   0.4286 0.2857 0.2500  plane waves:    6471
 k-point  60 :  -0.4286 0.2857 0.2500  plane waves:    6457
 k-point  61 :  -0.2857 0.2857 0.2500  plane waves:    6452
 k-point  62 :  -0.1429 0.2857 0.2500  plane waves:    6449
 k-point  63 :   0.4286 0.4286 0.2500  plane waves:    6472
 k-point  64 :  -0.4286 0.4286 0.2500  plane waves:    6470
 k-point  65 :  -0.2857 0.4286 0.2500  plane waves:    6464
 k-point  66 :  -0.1429 0.4286 0.2500  plane waves:    6472
 k-point  67 :  -0.4286-0.4286 0.2500  plane waves:    6480
 k-point  68 :  -0.2857-0.4286 0.2500  plane waves:    6456
 k-point  69 :  -0.1429-0.4286 0.2500  plane waves:    6460
 k-point  70 :  -0.2857-0.2857 0.2500  plane waves:    6460
 k-point  71 :  -0.1429-0.2857 0.2500  plane waves:    6455
 k-point  72 :  -0.1429-0.1429 0.2500  plane waves:    6440
 k-point  73 :  -0.0000-0.0000 0.3750  plane waves:    6468
 k-point  74 :   0.1429-0.0000 0.3750  plane waves:    6469
 k-point  75 :   0.2857-0.0000 0.3750  plane waves:    6476
 k-point  76 :   0.4286-0.0000 0.3750  plane waves:    6468
 k-point  77 :  -0.4286-0.0000 0.3750  plane waves:    6451
 k-point  78 :  -0.2857 0.0000 0.3750  plane waves:    6451
 k-point  79 :  -0.1429 0.0000 0.3750  plane waves:    6453
 k-point  80 :   0.1429 0.1429 0.3750  plane waves:    6492
 k-point  81 :   0.2857 0.1429 0.3750  plane waves:    6472
 k-point  82 :   0.4286 0.1429 0.3750  plane waves:    6453
 k-point  83 :  -0.4286 0.1429 0.3750  plane waves:    6449
 k-point  84 :  -0.2857 0.1429 0.3750  plane waves:    6454
 k-point  85 :  -0.1429 0.1429 0.3750  plane waves:    6472
 k-point  86 :   0.2857 0.2857 0.3750  plane waves:    6476
 k-point  87 :   0.4286 0.2857 0.3750  plane waves:    6475
 k-point  88 :  -0.4286 0.2857 0.3750  plane waves:    6468
 k-point  89 :  -0.2857 0.2857 0.3750  plane waves:    6463
 k-point  90 :  -0.1429 0.2857 0.3750  plane waves:    6468
 k-point  91 :   0.4286 0.4286 0.3750  plane waves:    6482
 k-point  92 :  -0.4286 0.4286 0.3750  plane waves:    6467
 k-point  93 :  -0.2857 0.4286 0.3750  plane waves:    6474
 k-point  94 :  -0.1429 0.4286 0.3750  plane waves:    6480
 k-point  95 :  -0.4286-0.4286 0.3750  plane waves:    6453
 k-point  96 :  -0.2857-0.4286 0.3750  plane waves:    6446
 k-point  97 :  -0.1429-0.4286 0.3750  plane waves:    6459
 k-point  98 :  -0.2857-0.2857 0.3750  plane waves:    6452
 k-point  99 :  -0.1429-0.2857 0.3750  plane waves:    6452
 k-point 100 :  -0.1429-0.1429 0.3750  plane waves:    6434
 k-point 101 :  -0.0000 0.0000 0.5000  plane waves:    6438
 k-point 102 :   0.1429 0.0000 0.5000  plane waves:    6471
 k-point 103 :   0.2857-0.0000 0.5000  plane waves:    6462
 k-point 104 :   0.4286 0.0000 0.5000  plane waves:    6445
 k-point 105 :   0.1429 0.1429 0.5000  plane waves:    6474
 k-point 106 :   0.2857 0.1429 0.5000  plane waves:    6450
 k-point 107 :   0.4286 0.1429 0.5000  plane waves:    6455
 k-point 108 :  -0.4286 0.1429 0.5000  plane waves:    6464
 k-point 109 :  -0.2857 0.1429 0.5000  plane waves:    6465
 k-point 110 :  -0.1429 0.1429 0.5000  plane waves:    6452
 k-point 111 :   0.2857 0.2857 0.5000  plane waves:    6462
 k-point 112 :   0.4286 0.2857 0.5000  plane waves:    6459
 k-point 113 :  -0.4286 0.2857 0.5000  plane waves:    6469
 k-point 114 :  -0.2857 0.2857 0.5000  plane waves:    6484
 k-point 115 :   0.4286 0.4286 0.5000  plane waves:    6458
 k-point 116 :  -0.4286 0.4286 0.5000  plane waves:    6476

 maximum and minimum number of plane-waves per node :      3253     3202

 maximum number of plane-waves:      6492
 maximum index in each direction: 
   IXMAX=   13   IYMAX=   13   IZMAX=   12
   IXMIN=  -13   IYMIN=  -13   IZMIN=  -13


 parallel 3D FFT for wavefunctions:
    minimum data exchange during FFTs selected (reduces bandwidth)
 parallel 3D FFT for charge:
    minimum data exchange during FFTs selected (reduces bandwidth)


 total amount of memory used by VASP MPI-rank0   372213. kBytes
=======================================================================

   base      :      30000. kBytes
   nonl-proj :     163484. kBytes
   fftplans  :      17766. kBytes
   grid      :      13358. kBytes
   one-center:         77. kBytes
   wavefun   :     147528. kBytes
 
     INWAV:  cpu time    0.0002: real time    0.0010
 Broyden mixing: mesh for mixing (old mesh)
   NGX = 25   NGY = 25   NGZ = 25
  (NGX  =108   NGY  =108   NGZ  =108)
  gives a total of  15625 points

 initial charge density was supplied:
 charge density of overlapping atoms calculated
 number of electron      76.0000000 magnetization 
 keeping initial charge density in first step


--------------------------------------------------------------------------------------------------------


 Maximum index for augmentation-charges        23139 (set IRDMAX)


--------------------------------------------------------------------------------------------------------


 First call to EWALD:  gamma=   0.306
 Maximum number of real-space cells 3x 3x 3
 Maximum number of reciprocal cells 3x 3x 3

    FEWALD:  cpu time    0.0365: real time    0.0369


--------------------------------------- Iteration      1(   1)  ---------------------------------------


    POTLOK:  cpu time    0.1822: real time    0.1838
    SETDIJ:  cpu time    0.5994: real time    0.6038
    TRIAL :  cpu time   23.5422: real time   23.8064
    CORREC:  cpu time    0.0016: real time    0.0016
    --------------------------------------------
      LOOP:  cpu time   24.4158: real time   24.6911

 eigenvalue-minimisations  : 12528
 total energy-change (2. order) : 0.5949753E+03  (-0.4770198E+04)
 number of electron      76.0000000 magnetization 
 augmentation part       76.0000000 magnetization 

 Free energy of the ion-electron system (eV)
  ---------------------------------------------------
  alpha Z        PSCENC =       249.45349781
  Ewald energy   TEWEN  =     -5068.68465421
  -Hartree energ DENC   =     -2509.73922877
  -exchange      EXHF   =         0.00000000
  -V(xc)+E(xc)   XCENC  =       322.28244396
  PAW double counting   =      6278.15209018    -6244.81064237
  entropy T*S    EENTRO =        -0.00094852
  eigenvalues    EBANDS =      -371.61886945
  atomic energy  EATOM  =      7939.94160518
  ---------------------------------------------------
  free energy    TOTEN  =       594.97529381 eV

  energy without entropy =      594.97624233  energy(sigma->0) =      594.97576807


--------------------------------------------------------------------------------------------------------




--------------------------------------- Iteration      1(   2)  ---------------------------------------


    TRIAL :  cpu time   25.8677: real time   26.1454
    CORREC:  cpu time    0.0015: real time    0.0016
    --------------------------------------------
      LOOP:  cpu time   25.8721: real time   26.1506

 eigenvalue-minimisations  : 12804
 total energy-change (2. order) :-0.7361528E+03  (-0.7141410E+03)
 number of electron      76.0000000 magnetization 
 augmentation part       76.0000000 magnetization 

 Free energy of the ion-electron system (eV)
  ---------------------------------------------------
  alpha Z        PSCENC =       249.45349781
  Ewald energy   TEWEN  =     -5068.68465421
  -Hartree energ DENC   =     -2509.73922877
  -exchange      EXHF   =         0.00000000
  -V(xc)+E(xc)   XCENC  =       322.28244396
  PAW double counting   =      6278.15209018    -6244.81064237
  entropy T*S    EENTRO =        -0.00096464
  eigenvalues    EBANDS =     -1107.77166126
  atomic energy  EATOM  =      7939.94160518
  ---------------------------------------------------
  free energy    TOTEN  =      -141.17751411 eV

  energy without entropy =     -141.17654947  energy(sigma->0) =     -141.17703179


--------------------------------------------------------------------------------------------------------




--------------------------------------- Iteration      1(   3)  ---------------------------------------


    TRIAL :  cpu time   28.8566: real time   29.1617
    CORREC:  cpu time    0.0016: real time    0.0016
    --------------------------------------------
      LOOP:  cpu time   28.8597: real time   29.1661

 eigenvalue-minimisations  : 15312
 total energy-change (2. order) :-0.3334406E+02  (-0.3261208E+02)
 number of electron      76.0000000 magnetization 
 augmentation part       76.0000000 magnetization 

 Free energy of the ion-electron system (eV)
  ---------------------------------------------------
  alpha Z        PSCENC =       249.45349781
  Ewald energy   TEWEN  =     -5068.68465421
  -Hartree energ DENC   =     -2509.73922877
  -exchange      EXHF   =         0.00000000
  -V(xc)+E(xc)   XCENC  =       322.28244396
  PAW double counting   =      6278.15209018    -6244.81064237
  entropy T*S    EENTRO =        -0.00138031
  eigenvalues    EBANDS =     -1141.11530077
  atomic energy  EATOM  =      7939.94160518
  ---------------------------------------------------
  free energy    TOTEN  =      -174.52156929 eV

  energy without entropy =     -174.52018898  energy(sigma->0) =     -174.52087914


--------------------------------------------------------------------------------------------------------




--------------------------------------- Iteration      1(   4)  ---------------------------------------


    TRIAL :  cpu time   27.3135: real time   27.6078
    CORREC:  cpu time    0.0015: real time    0.0015
    --------------------------------------------
      LOOP:  cpu time   27.3166: real time   27.6125

 eigenvalue-minimisations  : 14016
 total energy-change (2. order) :-0.7337625E+00  (-0.7273333E+00)
 number of electron      76.0000000 magnetization 
 augmentation part       76.0000000 magnetization 

 Free energy of the ion-electron system (eV)
  ---------------------------------------------------
  alpha Z        PSCENC =       249.45349781
  Ewald energy   TEWEN  =     -5068.68465421
  -Hartree energ DENC   =     -2509.73922877
  -exchange      EXHF   =         0.00000000
  -V(xc)+E(xc)   XCENC  =       322.28244396
  PAW double counting   =      6278.15209018    -6244.81064237
  entropy T*S    EENTRO =        -0.00094827
  eigenvalues    EBANDS =     -1141.84949528
  atomic energy  EATOM  =      7939.94160518
  ---------------------------------------------------
  free energy    TOTEN  =      -175.25533177 eV

  energy without entropy =     -175.25438350  energy(sigma->0) =     -175.25485763


--------------------------------------------------------------------------------------------------------




--------------------------------------- Iteration      1(   5)  ---------------------------------------


    TRIAL :  cpu time   29.3908: real time   29.7061
    CORREC:  cpu time    0.0014: real time    0.0015
    CHARGE:  cpu time    1.8587: real time    1.8740
    --------------------------------------------
      LOOP:  cpu time   31.2520: real time   31.5845

 eigenvalue-minimisations  : 15672
 total energy-change (2. order) :-0.2297518E-01  (-0.2294418E-01)
 number of electron      76.0000000 magnetization 
 augmentation part        7.6398276 magnetization 

 Free energy of the ion-electron system (eV)
  ---------------------------------------------------
  alpha Z        PSCENC =       249.45349781
  Ewald energy   TEWEN  =     -5068.68465421
  -Hartree energ DENC   =     -2509.73922877
  -exchange      EXHF   =         0.00000000
  -V(xc)+E(xc)   XCENC  =       322.28244396
  PAW double counting   =      6278.15209018    -6244.81064237
  entropy T*S    EENTRO =        -0.00090377
  eigenvalues    EBANDS =     -1141.87251497
  atomic energy  EATOM  =      7939.94160518
  ---------------------------------------------------
  free energy    TOTEN  =      -175.27830695 eV

  energy without entropy =     -175.27740318  energy(sigma->0) =     -175.27785507


--------------------------------------------------------------------------------------------------------




--------------------------------------- Iteration      1(   6)  ---------------------------------------


    POTLOK:  cpu time    0.1633: real time    0.1644
    SETDIJ:  cpu time    0.6129: real time    0.6174
    TRIAL :  cpu time   20.3333: real time   20.6013
    CORREC:  cpu time    7.5639: real time    7.6303
    CHARGE:  cpu time    2.4159: real time    2.4327
    --------------------------------------------
      LOOP:  cpu time   31.0912: real time   31.4496

 eigenvalue-minimisations  :     0
 total energy-change (2. order) : 0.6375150E+02  (-0.2207280E+02)
 number of electron      76.0000001 magnetization 
 augmentation part        9.1488675 magnetization 

 Free energy of the ion-electron system (eV)
  ---------------------------------------------------
  alpha Z        PSCENC =       249.45349781
  Ewald energy   TEWEN  =     -5068.68465421
  -Hartree energ DENC   =     -2228.75750853
  -exchange      EXHF   =         0.00000000
  -V(xc)+E(xc)   XCENC  =       319.29401777
  PAW double counting   =      8246.04729614    -8244.18132685
  entropy T*S    EENTRO =        -0.00169004
  eigenvalues    EBANDS =     -1324.63883302
  atomic energy  EATOM  =      7939.94160518
  ---------------------------------------------------
  free energy    TOTEN  =      -111.52680947 eV

  energy without entropy =     -111.52511944  energy(sigma->0) =     -111.52596446


--------------------------------------------------------------------------------------------------------




--------------------------------------- Iteration      1(   7)  ---------------------------------------


    POTLOK:  cpu time    0.1452: real time    0.1461
    SETDIJ:  cpu time    0.6653: real time    0.6708
    TRIAL :  cpu time   21.5046: real time   21.7118
    CORREC:  cpu time    8.1864: real time    8.2553
    CHARGE:  cpu time    1.8303: real time    1.8456
    --------------------------------------------
      LOOP:  cpu time   32.3510: real time   32.6500

 eigenvalue-minimisations  :     0
 total energy-change (2. order) :-0.2298020E+02  (-0.4070957E+01)
 number of electron      76.0000001 magnetization 
 augmentation part        9.2338101 magnetization 

 Free energy of the ion-electron system (eV)
  ---------------------------------------------------
  alpha Z        PSCENC =       249.45349781
  Ewald energy   TEWEN  =     -5068.68465421
  -Hartree energ DENC   =     -2396.57705212
  -exchange      EXHF   =         0.00000000
  -V(xc)+E(xc)   XCENC  =       326.55664486
  PAW double counting   =      8005.70418815    -7992.89924395
  entropy T*S    EENTRO =        -0.00155491
  eigenvalues    EBANDS =     -1198.00030845
  atomic energy  EATOM  =      7939.94160518
  ---------------------------------------------------
  free energy    TOTEN  =      -134.50701277 eV

  energy without entropy =     -134.50545786  energy(sigma->0) =     -134.50623531


--------------------------------------------------------------------------------------------------------




--------------------------------------- Iteration      1(   8)  ---------------------------------------


    POTLOK:  cpu time    0.1486: real time    0.1496
    SETDIJ:  cpu time    0.6172: real time    0.6215
    TRIAL :  cpu time   22.6295: real time   22.8490
    CORREC:  cpu time    7.8788: real time    7.9492
    CHARGE:  cpu time    2.5583: real time    2.5764
    --------------------------------------------
      LOOP:  cpu time   33.8798: real time   34.1944

 eigenvalue-minimisations  :     0
 total energy-change (2. order) :-0.4033778E+01  (-0.1242502E+01)
 number of electron      76.0000001 magnetization 
 augmentation part        9.1920522 magnetization 

 Free energy of the ion-electron system (eV)
  ---------------------------------------------------
  alpha Z        PSCENC =       249.45349781
  Ewald energy   TEWEN  =     -5068.68465421
  -Hartree energ DENC   =     -2437.62577437
  -exchange      EXHF   =         0.00000000
  -V(xc)+E(xc)   XCENC  =       328.12858994
  PAW double counting   =      7865.58640655    -7848.95636946
  entropy T*S    EENTRO =        -0.00146260
  eigenvalues    EBANDS =     -1166.38253773
  atomic energy  EATOM  =      7939.94160518
  ---------------------------------------------------
  free energy    TOTEN  =      -138.54079120 eV

  energy without entropy =     -138.53932861  energy(sigma->0) =     -138.54005990


--------------------------------------------------------------------------------------------------------




--------------------------------------- Iteration      1(   9)  ---------------------------------------


    POTLOK:  cpu time    0.1536: real time    0.1549
    SETDIJ:  cpu time    0.6433: real time    0.6481
    TRIAL :  cpu time   22.3372: real time   22.5619
    CORREC:  cpu time    6.3342: real time    6.3979
    CHARGE:  cpu time    1.8295: real time    1.8444
    --------------------------------------------
      LOOP:  cpu time   31.2993: real time   31.6090

 eigenvalue-minimisations  :     0
 total energy-change (2. order) :-0.1246048E+01  (-0.4708706E+00)
 number of electron      76.0000001 magnetization 
 augmentation part        9.1652243 magnetization 

 Free energy of the ion-electron system (eV)
  ---------------------------------------------------
  alpha Z        PSCENC =       249.45349781
  Ewald energy   TEWEN  =     -5068.68465421
  -Hartree energ DENC   =     -2442.72749740
  -exchange      EXHF   =         0.00000000
  -V(xc)+E(xc)   XCENC  =       328.27942524
  PAW double counting   =      7768.80388100    -7750.45873100
  entropy T*S    EENTRO =        -0.00159283
  eigenvalues    EBANDS =     -1164.39290316
  atomic energy  EATOM  =      7939.94160518
  ---------------------------------------------------
  free energy    TOTEN  =      -139.78683912 eV

  energy without entropy =     -139.78524629  energy(sigma->0) =     -139.78604271


--------------------------------------------------------------------------------------------------------




--------------------------------------- Iteration      1(  10)  ---------------------------------------


    POTLOK:  cpu time    0.1448: real time    0.1458
    SETDIJ:  cpu time    0.9043: real time    0.9102
    TRIAL :  cpu time   23.3982: real time   23.6122
    CORREC:  cpu time    7.1120: real time    7.1731
    CHARGE:  cpu time    2.4099: real time    2.4263
    --------------------------------------------
      LOOP:  cpu time   34.2620: real time   34.5625

 eigenvalue-minimisations  :     0
 total energy-change (2. order) :-0.4719087E+00  (-0.1717323E+00)
 number of electron      76.0000001 magnetization 
 augmentation part        9.1534466 magnetization 

 Free energy of the ion-electron system (eV)
  ---------------------------------------------------
  alpha Z        PSCENC =       249.45349781
  Ewald energy   TEWEN  =     -5068.68465421
  -Hartree energ DENC   =     -2441.57519147
  -exchange      EXHF   =         0.00000000
  -V(xc)+E(xc)   XCENC  =       328.28978267
  PAW double counting   =      7731.31336788    -7711.90568409
  entropy T*S    EENTRO =        -0.00163858
  eigenvalues    EBANDS =     -1167.08987878
  atomic energy  EATOM  =      7939.94160518
  ---------------------------------------------------
  free energy    TOTEN  =      -140.25874784 eV

  energy without entropy =     -140.25710926  energy(sigma->0) =     -140.25792855


--------------------------------------------------------------------------------------------------------




--------------------------------------- Iteration      1(  11)  ---------------------------------------


    POTLOK:  cpu time    0.1462: real time    0.1471
    SETDIJ:  cpu time    0.6503: real time    0.6545
    TRIAL :  cpu time   25.3945: real time   25.6267
    CORREC:  cpu time    7.4559: real time    7.5204
    CHARGE:  cpu time    2.2151: real time    2.2323
    --------------------------------------------
      LOOP:  cpu time   35.8720: real time   36.1922

 eigenvalue-minimisations  :     0
 total energy-change (2. order) :-0.1722279E+00  (-0.1183965E+00)
 number of electron      76.0000001 magnetization 
 augmentation part        9.1505084 magnetization 

 Free energy of the ion-electron system (eV)
  ---------------------------------------------------
  alpha Z        PSCENC =       249.45349781
  Ewald energy   TEWEN  =     -5068.68465421
  -Hartree energ DENC   =     -2441.11337444
  -exchange      EXHF   =         0.00000000
  -V(xc)+E(xc)   XCENC  =       328.31621837
[...]
     16     -30.9343      2.00000
     17      -3.8811      2.00000
     18      -3.5233      2.00000
     19      -2.1655      2.00000
     20      -1.9977      2.00000
     21      -1.7374      2.00000
     22      -1.4090      2.00000
     23       0.9093      2.00000
     24       1.3799      2.00000
     25       1.4683      2.00000
     26       1.5875      2.00000
     27       1.8126      2.00000
     28       1.8958      2.00000
     29       2.1322      2.00000
     30       2.4431      2.00000
     31       2.5155      2.00000
     32       2.7451      2.00000
     33       2.8523      2.00000
     34       3.2798      2.00000
     35       3.4115      2.00000
     36       3.6801      2.00000
     37       4.1942      2.00000
     38       4.4481      2.00000
     39       4.5784      1.99614
     40       4.8862      0.00000
     41       5.0698      0.00000
     42       5.2019      0.00000
     43       6.7825      0.00000
     44       6.8583      0.00000
     45       7.2318      0.00000
     46       7.2706      0.00000
     47       7.3058      0.00000
     48       7.4346      0.00000

 k-point   108 :      -0.4286    0.1429    0.5000
  band No.  band energies     occupation 
      1     -58.4542      2.00000
      2     -58.4466      2.00000
      3     -57.6257      2.00000
      4     -57.6251      2.00000
      5     -31.9112      2.00000
      6     -31.9029      2.00000
      7     -31.7477      2.00000
      8     -31.7374      2.00000
      9     -31.6914      2.00000
     10     -31.6878      2.00000
     11     -31.3374      2.00000
     12     -31.3270      2.00000
     13     -30.9482      2.00000
     14     -30.9454      2.00000
     15     -30.9371      2.00000
     16     -30.9343      2.00000
     17      -3.7668      2.00000
     18      -3.5862      2.00000
     19      -2.1919      2.00000
     20      -1.9948      2.00000
     21      -1.7645      2.00000
     22      -1.4526      2.00000
     23       0.9168      2.00000
     24       1.1548      2.00000
     25       1.4270      2.00000
     26       1.6886      2.00000
     27       1.8560      2.00000
     28       2.0439      2.00000
     29       2.0878      2.00000
     30       2.3896      2.00000
     31       2.4952      2.00000
     32       2.6250      2.00000
     33       2.7409      2.00000
     34       3.4439      2.00000
     35       3.6873      2.00000
     36       3.8632      2.00000
     37       4.1096      2.00000
     38       4.2881      2.00000
     39       4.8209      0.00000
     40       4.9658      0.00000
     41       5.1306      0.00000
     42       5.2915      0.00000
     43       6.5765      0.00000
     44       6.7568      0.00000
     45       6.9369      0.00000
     46       7.0085      0.00000
     47       7.0719      0.00000
     48       7.2848      0.00000

 k-point   109 :      -0.2857    0.1429    0.5000
  band No.  band energies     occupation 
      1     -58.4542      2.00000
      2     -58.4465      2.00000
      3     -57.6258      2.00000
      4     -57.6250      2.00000
      5     -31.9112      2.00000
      6     -31.9027      2.00000
      7     -31.7454      2.00000
      8     -31.7350      2.00000
      9     -31.6893      2.00000
     10     -31.6858      2.00000
     11     -31.3397      2.00000
     12     -31.3248      2.00000
     13     -30.9480      2.00000
     14     -30.9460      2.00000
     15     -30.9417      2.00000
     16     -30.9392      2.00000
     17      -3.9164      2.00000
     18      -3.1837      2.00000
     19      -2.2314      2.00000
     20      -2.1005      2.00000
     21      -1.8250      2.00000
     22      -1.4228      2.00000
     23       0.9097      2.00000
     24       1.0811      2.00000
     25       1.3417      2.00000
     26       1.4127      2.00000
     27       2.0964      2.00000
     28       2.2273      2.00000
     29       2.2741      2.00000
     30       2.3320      2.00000
     31       2.5096      2.00000
     32       2.5927      2.00000
     33       2.7029      2.00000
     34       3.1984      2.00000
     35       3.4249      2.00000
     36       3.7259      2.00000
     37       4.0152      2.00000
     38       4.3577      2.00000
     39       4.7084      0.00000
     40       5.0638      0.00000
     41       5.0727      0.00000
     42       5.7105      0.00000
     43       6.2407      0.00000
     44       6.5417      0.00000
     45       7.0263      0.00000
     46       7.2291      0.00000
     47       7.4517      0.00000
     48       7.5434      0.00000

 k-point   110 :      -0.1429    0.1429    0.5000
  band No.  band energies     occupation 
      1     -58.4542      2.00000
      2     -58.4465      2.00000
      3     -57.6258      2.00000
      4     -57.6250      2.00000
      5     -31.9112      2.00000
      6     -31.9027      2.00000
      7     -31.7426      2.00000
      8     -31.7322      2.00000
      9     -31.6865      2.00000
     10     -31.6830      2.00000
     11     -31.3406      2.00000
     12     -31.3240      2.00000
     13     -30.9481      2.00000
     14     -30.9480      2.00000
     15     -30.9468      2.00000
     16     -30.9445      2.00000
     17      -4.0043      2.00000
     18      -2.7699      2.00000
     19      -2.2783      2.00000
     20      -2.2200      2.00000
     21      -1.8258      2.00000
     22      -1.4362      2.00000
     23       0.8211      2.00000
     24       1.0434      2.00000
     25       1.3404      2.00000
     26       1.4671      2.00000
     27       1.8206      2.00000
     28       2.4187      2.00000
     29       2.4799      2.00000
     30       2.5380      2.00000
     31       2.5460      2.00000
     32       2.5990      2.00000
     33       2.6942      2.00000
     34       2.7526      2.00000
     35       3.2989      2.00000
     36       3.5329      2.00000
     37       3.7251      2.00000
     38       4.3007      2.00000
     39       4.5288      2.00000
     40       4.8730      0.00000
     41       5.1521      0.00000
     42       6.1064      0.00000
     43       6.1270      0.00000
     44       6.5598      0.00000
     45       7.1576      0.00000
     46       7.5294      0.00000
     47       7.8219      0.00000
     48       8.0943      0.00000

 k-point   111 :       0.2857    0.2857    0.5000
  band No.  band energies     occupation 
      1     -58.4542      2.00000
      2     -58.4466      2.00000
      3     -57.6255      2.00000
      4     -57.6252      2.00000
      5     -31.9111      2.00000
      6     -31.9030      2.00000
      7     -31.7478      2.00000
      8     -31.7375      2.00000
      9     -31.6923      2.00000
     10     -31.6889      2.00000
     11     -31.3341      2.00000
     12     -31.3303      2.00000
     13     -30.9441      2.00000
     14     -30.9411      2.00000
     15     -30.9394      2.00000
     16     -30.9377      2.00000
     17      -4.0093      2.00000
     18      -3.3561      2.00000
     19      -2.2517      2.00000
     20      -2.0639      2.00000
     21      -1.6721      2.00000
     22      -1.2237      2.00000
     23       0.8978      2.00000
     24       0.9089      2.00000
     25       1.4752      2.00000
     26       1.5309      2.00000
     27       1.6589      2.00000
     28       1.9954      2.00000
     29       2.2989      2.00000
     30       2.3511      2.00000
     31       2.5274      2.00000
     32       2.8183      2.00000
     33       2.8739      2.00000
     34       3.3111      2.00000
     35       3.6574      2.00000
     36       3.8104      2.00000
     37       4.1810      2.00000
     38       4.4839      2.00000
     39       4.6845      0.00000
     40       4.8416      0.00000
     41       5.0966      0.00000
     42       5.1007      0.00000
     43       6.8723      0.00000
     44       7.1328      0.00000
     45       7.1620      0.00000
     46       7.2414      0.00000
     47       7.3388      0.00000
     48       7.5115      0.00000

 k-point   112 :       0.4286    0.2857    0.5000
  band No.  band energies     occupation 
      1     -58.4542      2.00000
      2     -58.4466      2.00000
      3     -57.6257      2.00000
      4     -57.6250      2.00000
      5     -31.9113      2.00000
      6     -31.9029      2.00000
      7     -31.7500      2.00000
      8     -31.7398      2.00000
      9     -31.6945      2.00000
     10     -31.6911      2.00000
     11     -31.3374      2.00000
     12     -31.3269      2.00000
     13     -30.9433      2.00000
     14     -30.9386      2.00000
     15     -30.9375      2.00000
     16     -30.9331      2.00000
     17      -3.8673      2.00000
     18      -3.5501      2.00000
     19      -2.2999      2.00000
     20      -2.1483      2.00000
     21      -1.5017      2.00000
     22      -1.2120      2.00000
     23       0.5631      2.00000
     24       0.8320      2.00000
     25       1.2068      2.00000
     26       1.7314      2.00000
     27       1.8400      2.00000
     28       2.0143      2.00000
     29       2.0898      2.00000
     30       2.2375      2.00000
     31       2.3342      2.00000
     32       2.7744      2.00000
     33       3.2606      2.00000
     34       3.7511      2.00000
     35       4.0062      2.00000
     36       4.1512      2.00000
     37       4.4210      2.00000
     38       4.5223      2.00000
     39       4.8623      0.00000
     40       4.9623      0.00000
     41       5.2436      0.00000
     42       5.3173      0.00000
     43       6.5236      0.00000
     44       6.5491      0.00000
     45       6.5646      0.00000
     46       6.6415      0.00000
     47       7.1393      0.00000
     48       7.2157      0.00000

 k-point   113 :      -0.4286    0.2857    0.5000
  band No.  band energies     occupation 
      1     -58.4542      2.00000
      2     -58.4466      2.00000
      3     -57.6258      2.00000
      4     -57.6249      2.00000
      5     -31.9114      2.00000
      6     -31.9028      2.00000
      7     -31.7500      2.00000
      8     -31.7397      2.00000
      9     -31.6945      2.00000
     10     -31.6910      2.00000
     11     -31.3397      2.00000
     12     -31.3246      2.00000
     13     -30.9432      2.00000
     14     -30.9388      2.00000
     15     -30.9375      2.00000
     16     -30.9330      2.00000
     17      -3.7104      2.00000
     18      -3.6332      2.00000
     19      -2.3635      2.00000
     20      -2.1356      2.00000
     21      -1.5397      2.00000
     22      -1.2481      2.00000
     23       0.5554      2.00000
     24       0.8306      2.00000
     25       0.9381      2.00000
     26       1.8795      2.00000
     27       1.9355      2.00000
     28       2.0660      2.00000
     29       2.1284      2.00000
     30       2.1974      2.00000
     31       2.2734      2.00000
     32       2.7685      2.00000
     33       3.2474      2.00000
     34       3.7726      2.00000
     35       3.8869      2.00000
     36       4.3992      2.00000
     37       4.4736      2.00000
     38       4.7559      0.00000
     39       4.9355      0.00000
     40       5.0440      0.00000
     41       5.3564      0.00000
     42       5.5439      0.00000
     43       6.1305      0.00000
     44       6.1842      0.00000
     45       6.3300      0.00000
     46       6.5223      0.00000
     47       6.9921      0.00000
     48       7.2099      0.00000

 k-point   114 :      -0.2857    0.2857    0.5000
  band No.  band energies     occupation 
      1     -58.4542      2.00000
      2     -58.4466      2.00000
      3     -57.6258      2.00000
      4     -57.6249      2.00000
      5     -31.9114      2.00000
      6     -31.9027      2.00000
      7     -31.7479      2.00000
      8     -31.7375      2.00000
      9     -31.6923      2.00000
     10     -31.6889      2.00000
     11     -31.3405      2.00000
     12     -31.3238      2.00000
     13     -30.9435      2.00000
     14     -30.9416      2.00000
     15     -30.9401      2.00000
     16     -30.9372      2.00000
     17      -3.8244      2.00000
     18      -3.3701      2.00000
     19      -2.3568      2.00000
     20      -2.0692      2.00000
     21      -1.7784      2.00000
     22      -1.2929      2.00000
     23       0.8339      2.00000
     24       0.8802      2.00000
     25       0.9108      2.00000
     26       1.5812      2.00000
     27       2.1445      2.00000
     28       2.2387      2.00000
     29       2.2593      2.00000
     30       2.2677      2.00000
     31       2.3611      2.00000
     32       2.7714      2.00000
     33       2.8249      2.00000
     34       3.6557      2.00000
     35       3.7346      2.00000
     36       3.8638      2.00000
     37       4.1405      2.00000
     38       4.7427      0.00000
     39       4.8237      0.00000
     40       5.1487      0.00000
     41       5.2251      0.00000
     42       5.9498      0.00000
     43       6.0400      0.00000
     44       6.1904      0.00000
     45       6.5943      0.00000
     46       6.8462      0.00000
     47       6.9048      0.00000
     48       7.6756      0.00000

 k-point   115 :       0.4286    0.4286    0.5000
  band No.  band energies     occupation 
      1     -58.4542      2.00000
      2     -58.4466      2.00000
      3     -57.6258      2.00000
      4     -57.6248      2.00000
      5     -31.9115      2.00000
      6     -31.9028      2.00000
      7     -31.7520      2.00000
      8     -31.7418      2.00000
      9     -31.6968      2.00000
     10     -31.6934      2.00000
     11     -31.3396      2.00000
     12     -31.3245      2.00000
     13     -30.9400      2.00000
     14     -30.9375      2.00000
     15     -30.9337      2.00000
     16     -30.9315      2.00000
     17      -3.7951      2.00000
     18      -3.6099      2.00000
     19      -2.4171      2.00000
     20      -2.2361      2.00000
     21      -1.2197      2.00000
     22      -1.1146      2.00000
     23       0.2457      2.00000
     24       0.4748      2.00000
     25       0.9425      2.00000
     26       1.8162      2.00000
     27       1.9651      2.00000
     28       1.9795      2.00000
     29       2.0922      2.00000
     30       2.1623      2.00000
     31       2.2615      2.00000
     32       2.7963      2.00000
     33       3.8064      2.00000
     34       3.9426      2.00000
     35       3.9743      2.00000
     36       4.7609      0.00000
     37       4.9489      0.00000
     38       4.9914      0.00000
     39       5.0144      0.00000
     40       5.2050      0.00000
     41       5.3944      0.00000
     42       5.4659      0.00000
     43       5.8577      0.00000
     44       6.0079      0.00000
     45       6.0117      0.00000
     46       6.0901      0.00000
     47       7.3474      0.00000
     48       7.5601      0.00000

 k-point   116 :      -0.4286    0.4286    0.5000
  band No.  band energies     occupation 
      1     -58.4542      2.00000
      2     -58.4466      2.00000
      3     -57.6258      2.00000
      4     -57.6248      2.00000
      5     -31.9116      2.00000
      6     -31.9027      2.00000
      7     -31.7520      2.00000
      8     -31.7418      2.00000
      9     -31.6968      2.00000
     10     -31.6934      2.00000
     11     -31.3405      2.00000
     12     -31.3237      2.00000
     13     -30.9399      2.00000
     14     -30.9375      2.00000
     15     -30.9338      2.00000
     16     -30.9314      2.00000
     17      -3.7027      2.00000
     18      -3.6655      2.00000
     19      -2.4521      2.00000
     20      -2.2312      2.00000
     21      -1.2354      2.00000
     22      -1.1280      2.00000
     23       0.2394      2.00000
     24       0.4749      2.00000
     25       0.8432      2.00000
     26       1.8246      2.00000
     27       2.0318      2.00000
     28       2.0555      2.00000
     29       2.0769      2.00000
     30       2.1580      2.00000
     31       2.2414      2.00000
     32       2.7981      2.00000
     33       3.8137      2.00000
     34       3.9335      2.00000
     35       3.9497      2.00000
     36       4.7594      0.00000
     37       4.9526      0.00000
     38       5.0783      0.00000
     39       5.2121      0.00000
     40       5.2700      0.00000
     41       5.4574      0.00000
     42       5.6607      0.00000
     43       5.7478      0.00000
     44       5.8114      0.00000
     45       5.8240      0.00000
     46       6.0449      0.00000
     47       7.3419      0.00000
     48       7.5348      0.00000


--------------------------------------------------------------------------------------------------------


 soft charge-density along one line, spin component           1
         0         1         2         3         4         5         6         7         8         9
 total charge-density along one line
 
 pseudopotential strength for first ion, spin component:           1
  6.203   9.421   0.001   0.001   0.000   0.001   0.002   0.001
  9.421  14.302   0.001   0.001   0.001   0.002   0.003   0.002
  0.001   0.001  -2.108   0.002  -0.002  -3.551   0.002  -0.002
  0.001   0.001   0.002  -2.109   0.002   0.002  -3.553   0.002
  0.000   0.001  -0.002   0.002  -2.106  -0.002   0.002  -3.550
  0.001   0.002  -3.551   0.002  -0.002  -5.775   0.000  -0.002
  0.002   0.003   0.002  -3.553   0.002   0.000  -5.777   0.000
  0.001   0.002  -0.002   0.002  -3.550  -0.002   0.000  -5.774
 total augmentation occupancy for first ion, spin component:           1
  2.958  -0.583  -0.048  -0.059  -0.034   0.014   0.017   0.010
 -0.583   0.123   0.009   0.012   0.007  -0.003  -0.004  -0.002
 -0.048   0.009   1.818   0.512  -0.284  -0.422  -0.116   0.064
 -0.059   0.012   0.512   1.641   0.359  -0.116  -0.382  -0.081
 -0.034   0.007  -0.284   0.359   2.024   0.064  -0.081  -0.469
  0.014  -0.003  -0.422  -0.116   0.064   0.100   0.027  -0.015
  0.017  -0.004  -0.116  -0.382  -0.081   0.027   0.091   0.019
  0.010  -0.002   0.064  -0.081  -0.469  -0.015   0.019   0.111


------------------------ aborting loop because EDIFF is reached ----------------------------------------




--------------------------------------------------------------------------------------------------------



  FREE ENERGIE OF THE ION-ELECTRON SYSTEM (eV)
  ---------------------------------------------------
  free  energy   TOTEN  =      -140.70447025 eV

  energy  without entropy=     -140.70319979  energy(sigma->0) =     -140.70383502
 


--------------------------------------------------------------------------------------------------------


    POTLOK:  cpu time    0.8272: real time    0.8339


--------------------------------------------------------------------------------------------------------


 writing wavefunctions
     LOOP+:  cpu time 1464.2469: real time 1477.8607
    4ORBIT:  cpu time    0.0000: real time    0.0000

 total amount of memory used by VASP MPI-rank0   372213. kBytes
=======================================================================

   base      :      30000. kBytes
   nonl-proj :     163484. kBytes
   fftplans  :      17766. kBytes
   grid      :      13358. kBytes
   one-center:         77. kBytes
   wavefun   :     147528. kBytes
 
  
  
 General timing and accounting informations for this job:
 ========================================================
  
                  Total CPU time used (sec):     1471.750
                            User time (sec):     1458.241
                          System time (sec):       13.509
                         Elapsed time (sec):     1489.134
  
                   Maximum memory used (kb):      583252.
                   Average memory used (kb):          N/A
  
                          Minor page faults:      1964140
                          Major page faults:           22
                 Voluntary context switches:        10791
