<?xml version="1.0" encoding="ISO-8859-1"?>
<modeling>
 <generator>
  <i name="program" type="string">vasp </i>
  <i name="version" type="string">6.2.0  </i>
  <i name="subversion" type="string">18Jan21 (build Jan 05 2022 15:41:44) complex                          parallel </i>
  <i name="platform" type="string">LinuxIFC </i>
  <i name="date" type="string">2025 05 07 </i>
  <i name="time" type="string">17:58:24 </i>
 </generator>
 <incar>
  <i type="string" name="SYSTEM">routine with relax: pwdword</i>
  <i type="string" name="PREC">Acc</i>
  <i type="int" name="IALGO">    38</i>
  <i type="string" name="ALGO">A</i>
  <i type="logical" name="ADDGRID"> T  </i>
  <i type="int" name="ICHARG">     2</i>
  <i type="int" name="NELM">   100</i>
  <i type="int" name="NELMIN">     6</i>
  <i name="EDIFF">      0.00000000</i>
  <i type="int" name="NSW">     0</i>
  <i type="int" name="ISIF">    -1</i>
  <i name="ENCUT">    600.00000000</i>
  <i type="logical" name="LREAL"> F  </i>
  <i type="int" name="ISMEAR">     0</i>
  <i name="SIGMA">      0.02000000</i>
  <i type="logical" name="LASPH"> T  </i>
  <i type="string" name="METAGGA">R2SCAN</i>
  <i type="logical" name="LMIXTAU"> F  </i>
 </incar>
 <primitive_cell>
  <structure name="primitive_cell" >
   <crystal>
    <varray name="basis" >
     <v>      -3.64089993       2.56717745       0.00000000 </v>
     <v>       1.81010195       2.56717745       3.15900913 </v>
     <v>       1.81010195       2.56717745      -3.12346087 </v>
    </varray>
    <i name="volume">     87.91493195 </i>
    <varray name="rec_basis" >
     <v>      -0.18345251       0.12935131       0.00000000 </v>
     <v>       0.09120724       0.12935469       0.15917306 </v>
     <v>       0.09224527       0.13082688      -0.15917306 </v>
    </varray>
   </crystal>
   <varray name="positions" >
    <v>       0.50000000       1.00000000       0.50000000 </v>
    <v>       0.00000000       0.50000000       0.50000000 </v>
    <v>       0.50000000       0.50000000       0.50000000 </v>
    <v>       0.00000000       0.00000000       0.00000000 </v>
    <v>       1.00000000       1.00000000       0.50000000 </v>
   </varray>
  </structure>
  <varray name="primitive_index" >
   <v type="int" >        1 </v>
   <v type="int" >        2 </v>
   <v type="int" >        5 </v>
   <v type="int" >        6 </v>
   <v type="int" >        9 </v>
  </varray>
 </primitive_cell>
 <kpoints>
  <generation param="Gamma">
   <v type="int" name="divisions">       7        7        8 </v>
   <v name="usershift">      0.00000000       0.00000000       0.00000000 </v>
   <v name="genvec1">      0.14285714      -0.00000000       0.00000000 </v>
   <v name="genvec2">      0.00000000       0.14285714       0.00000000 </v>
   <v name="genvec3">     -0.00000000       0.00000000       0.12500000 </v>
   <v name="shift">      0.00000000       0.00000000       0.00000000 </v>
  </generation>
  <varray name="kpointlist" >
   <v>       0.00000000       0.00000000       0.00000000 </v>
   <v>       0.14285714       0.00000000       0.00000000 </v>
   <v>       0.28571429       0.00000000       0.00000000 </v>
   <v>       0.42857143      -0.00000000       0.00000000 </v>
   <v>       0.14285714       0.14285714       0.00000000 </v>
   <v>       0.28571429       0.14285714       0.00000000 </v>
   <v>       0.42857143       0.14285714       0.00000000 </v>
   <v>      -0.42857143       0.14285714       0.00000000 </v>
   <v>      -0.28571429       0.14285714       0.00000000 </v>
   <v>      -0.14285714       0.14285714       0.00000000 </v>
   <v>       0.28571429       0.28571429       0.00000000 </v>
   <v>       0.42857143       0.28571429       0.00000000 </v>
   <v>      -0.42857143       0.28571429       0.00000000 </v>
   <v>      -0.28571429       0.28571429       0.00000000 </v>
   <v>       0.42857143       0.42857143       0.00000000 </v>
   <v>      -0.42857143       0.42857143       0.00000000 </v>
   <v>      -0.00000000       0.00000000       0.12500000 </v>
   <v>       0.14285714      -0.00000000       0.12500000 </v>
   <v>       0.28571429       0.00000000       0.12500000 </v>
   <v>       0.42857143       0.00000000       0.12500000 </v>
   <v>      -0.42857143       0.00000000       0.12500000 </v>
   <v>      -0.28571429       0.00000000       0.12500000 </v>
   <v>      -0.14285714      -0.00000000       0.12500000 </v>
   <v>       0.14285714       0.14285714       0.12500000 </v>
   <v>       0.28571429       0.14285714       0.12500000 </v>
   <v>       0.42857143       0.14285714       0.12500000 </v>
   <v>      -0.42857143       0.14285714       0.12500000 </v>
   <v>      -0.28571429       0.14285714       0.12500000 </v>
   <v>      -0.14285714       0.14285714       0.12500000 </v>
   <v>       0.28571429       0.28571429       0.12500000 </v>
   <v>       0.42857143       0.28571429       0.12500000 </v>
   <v>      -0.42857143       0.28571429       0.12500000 </v>
   <v>      -0.28571429       0.28571429       0.12500000 </v>
   <v>      -0.14285714       0.28571429       0.12500000 </v>
   <v>       0.42857143       0.42857143       0.12500000 </v>
   <v>      -0.42857143       0.42857143       0.12500000 </v>
   <v>      -0.28571429       0.42857143       0.12500000 </v>
   <v>      -0.14285714       0.42857143       0.12500000 </v>
   <v>      -0.42857143      -0.42857143       0.12500000 </v>
   <v>      -0.28571429      -0.42857143       0.12500000 </v>
   <v>      -0.14285714      -0.42857143       0.12500000 </v>
   <v>      -0.28571429      -0.28571429       0.12500000 </v>
   <v>      -0.14285714      -0.28571429       0.12500000 </v>
   <v>      -0.14285714      -0.14285714       0.12500000 </v>
   <v>      -0.00000000       0.00000000       0.25000000 </v>
   <v>       0.14285714      -0.00000000       0.25000000 </v>
   <v>       0.28571429      -0.00000000       0.25000000 </v>
   <v>       0.42857143      -0.00000000       0.25000000 </v>
   <v>      -0.42857143       0.00000000       0.25000000 </v>
   <v>      -0.28571429      -0.00000000       0.25000000 </v>
   <v>      -0.14285714       0.00000000       0.25000000 </v>
   <v>       0.14285714       0.14285714       0.25000000 </v>
   <v>       0.28571429       0.14285714       0.25000000 </v>
   <v>       0.42857143       0.14285714       0.25000000 </v>
   <v>      -0.42857143       0.14285714       0.25000000 </v>
   <v>      -0.28571429       0.14285714       0.25000000 </v>
   <v>      -0.14285714       0.14285714       0.25000000 </v>
   <v>       0.28571429       0.28571429       0.25000000 </v>
   <v>       0.42857143       0.28571429       0.25000000 </v>
   <v>      -0.42857143       0.28571429       0.25000000 </v>
   <v>      -0.28571429       0.28571429       0.25000000 </v>
   <v>      -0.14285714       0.28571429       0.25000000 </v>
   <v>       0.42857143       0.42857143       0.25000000 </v>
   <v>      -0.42857143       0.42857143       0.25000000 </v>
   <v>      -0.28571429       0.42857143       0.25000000 </v>
   <v>      -0.14285714       0.42857143       0.25000000 </v>
   <v>      -0.42857143      -0.42857143       0.25000000 </v>
   <v>      -0.28571429      -0.42857143       0.25000000 </v>
   <v>      -0.14285714      -0.42857143       0.25000000 </v>
   <v>      -0.28571429      -0.28571429       0.25000000 </v>
   <v>      -0.14285714      -0.28571429       0.25000000 </v>
   <v>      -0.14285714      -0.14285714       0.25000000 </v>
   <v>      -0.00000000       0.00000000       0.37500000 </v>
   <v>       0.14285714      -0.00000000       0.37500000 </v>
   <v>       0.28571429       0.00000000       0.37500000 </v>
   <v>       0.42857143      -0.00000000       0.37500000 </v>
   <v>      -0.42857143       0.00000000       0.37500000 </v>
   <v>      -0.28571429       0.00000000       0.37500000 </v>
   <v>      -0.14285714      -0.00000000       0.37500000 </v>
   <v>       0.14285714       0.14285714       0.37500000 </v>
   <v>       0.28571429       0.14285714       0.37500000 </v>
   <v>       0.42857143       0.14285714       0.37500000 </v>
   <v>      -0.42857143       0.14285714       0.37500000 </v>
   <v>      -0.28571429       0.14285714       0.37500000 </v>
   <v>      -0.14285714       0.14285714       0.37500000 </v>
   <v>       0.28571429       0.28571429       0.37500000 </v>
   <v>       0.42857143       0.28571429       0.37500000 </v>
   <v>      -0.42857143       0.28571429       0.37500000 </v>
   <v>      -0.28571429       0.28571429       0.37500000 </v>
   <v>      -0.14285714       0.28571429       0.37500000 </v>
   <v>       0.42857143       0.42857143       0.37500000 </v>
   <v>      -0.42857143       0.42857143       0.37500000 </v>
   <v>      -0.28571429       0.42857143       0.37500000 </v>
   <v>      -0.14285714       0.42857143       0.37500000 </v>
   <v>      -0.42857143      -0.42857143       0.37500000 </v>
   <v>      -0.28571429      -0.42857143       0.37500000 </v>
   <v>      -0.14285714      -0.42857143       0.37500000 </v>
   <v>      -0.28571429      -0.28571429       0.37500000 </v>
   <v>      -0.14285714      -0.28571429       0.37500000 </v>
   <v>      -0.14285714      -0.14285714       0.37500000 </v>
   <v>      -0.00000000       0.00000000       0.50000000 </v>
   <v>       0.14285714       0.00000000       0.50000000 </v>
   <v>       0.28571429       0.00000000       0.50000000 </v>
   <v>       0.42857143      -0.00000000       0.50000000 </v>
   <v>       0.14285714       0.14285714       0.50000000 </v>
   <v>       0.28571429       0.14285714       0.50000000 </v>
   <v>       0.42857143       0.14285714       0.50000000 </v>
   <v>      -0.42857143       0.14285714       0.50000000 </v>
   <v>      -0.28571429       0.14285714       0.50000000 </v>
   <v>      -0.14285714       0.14285714       0.50000000 </v>
   <v>       0.28571429       0.28571429       0.50000000 </v>
   <v>       0.42857143       0.28571429       0.50000000 </v>
   <v>      -0.42857143       0.28571429       0.50000000 </v>
   <v>      -0.28571429       0.28571429       0.50000000 </v>
   <v>       0.42857143       0.42857143       0.50000000 </v>
   <v>      -0.42857143       0.42857143       0.50000000 </v>
  </varray>
  <varray name="weights" >
   <v>       0.00255102 </v>
   <v>       0.01020408 </v>
   <v>       0.01020408 </v>
   <v>       0.01020408 </v>
   <v>       0.00510204 </v>
   <v>       0.01020408 </v>
   <v>       0.01020408 </v>
   <v>       0.01020408 </v>
   <v>       0.01020408 </v>
   <v>       0.00510204 </v>
   <v>       0.00510204 </v>
   <v>       0.01020408 </v>
   <v>       0.01020408 </v>
   <v>       0.00510204 </v>
   <v>       0.00510204 </v>
   <v>       0.00510204 </v>
   <v>       0.00510204 </v>
   <v>       0.01020408 </v>
   <v>       0.01020408 </v>
   <v>       0.01020408 </v>
   <v>       0.01020408 </v>
   <v>       0.01020408 </v>
   <v>       0.01020408 </v>
   <v>       0.00510204 </v>
   <v>       0.01020408 </v>
   <v>       0.01020408 </v>
   <v>       0.01020408 </v>
   <v>       0.01020408 </v>
   <v>       0.01020408 </v>
   <v>       0.00510204 </v>
   <v>       0.01020408 </v>
   <v>       0.01020408 </v>
   <v>       0.01020408 </v>
   <v>       0.01020408 </v>
   <v>       0.00510204 </v>
   <v>       0.01020408 </v>
   <v>       0.01020408 </v>
   <v>       0.01020408 </v>
   <v>       0.00510204 </v>
   <v>       0.01020408 </v>
   <v>       0.01020408 </v>
   <v>       0.00510204 </v>
   <v>       0.01020408 </v>
   <v>       0.00510204 </v>
   <v>       0.00510204 </v>
   <v>       0.01020408 </v>
   <v>       0.01020408 </v>
   <v>       0.01020408 </v>
   <v>       0.01020408 </v>
   <v>       0.01020408 </v>
   <v>       0.01020408 </v>
   <v>       0.00510204 </v>
   <v>       0.01020408 </v>
   <v>       0.01020408 </v>
   <v>       0.01020408 </v>
   <v>       0.01020408 </v>
   <v>       0.01020408 </v>
   <v>       0.00510204 </v>
   <v>       0.01020408 </v>
   <v>       0.01020408 </v>
   <v>       0.01020408 </v>
   <v>       0.01020408 </v>
   <v>       0.00510204 </v>
   <v>       0.01020408 </v>
   <v>       0.01020408 </v>
   <v>       0.01020408 </v>
   <v>       0.00510204 </v>
   <v>       0.01020408 </v>
   <v>       0.01020408 </v>
   <v>       0.00510204 </v>
   <v>       0.01020408 </v>
   <v>       0.00510204 </v>
   <v>       0.00510204 </v>
   <v>       0.01020408 </v>
   <v>       0.01020408 </v>
   <v>       0.01020408 </v>
   <v>       0.01020408 </v>
   <v>       0.01020408 </v>
   <v>       0.01020408 </v>
   <v>       0.00510204 </v>
   <v>       0.01020408 </v>
   <v>       0.01020408 </v>
   <v>       0.01020408 </v>
   <v>       0.01020408 </v>
   <v>       0.01020408 </v>
   <v>       0.00510204 </v>
   <v>       0.01020408 </v>
   <v>       0.01020408 </v>
   <v>       0.01020408 </v>
   <v>       0.01020408 </v>
   <v>       0.00510204 </v>
   <v>       0.01020408 </v>
   <v>       0.01020408 </v>
   <v>       0.01020408 </v>
   <v>       0.00510204 </v>
   <v>       0.01020408 </v>
   <v>       0.01020408 </v>
   <v>       0.00510204 </v>
   <v>       0.01020408 </v>
   <v>       0.00510204 </v>
   <v>       0.00255102 </v>
   <v>       0.01020408 </v>
   <v>       0.01020408 </v>
   <v>       0.01020408 </v>
   <v>       0.00510204 </v>
   <v>       0.01020408 </v>
   <v>       0.01020408 </v>
   <v>       0.01020408 </v>
   <v>       0.01020408 </v>
   <v>       0.00510204 </v>
   <v>       0.00510204 </v>
   <v>       0.01020408 </v>
   <v>       0.01020408 </v>
   <v>       0.00510204 </v>
   <v>       0.00510204 </v>
   <v>       0.00510204 </v>
  </varray>
 </kpoints>
 <parameters>
  <separator name="general" >
   <i type="string" name="SYSTEM">routine with relax: pwdword</i>
   <i type="logical" name="LCOMPAT"> F  </i>
  </separator>
  <separator name="electronic" >
   <i type="string" name="PREC">acc</i>
   <i name="ENMAX">    600.00000000</i>
   <i name="ENAUG">    535.51400000</i>
   <i name="EDIFF">      0.00000000</i>
   <i type="int" name="IALGO">    58</i>
   <i type="int" name="IWAVPR">    10</i>
   <i type="int" name="NBANDS">    48</i>
   <i type="int" name="NBANDSLOW">    -1</i>
   <i type="int" name="NBANDSHIGH">    -1</i>
   <i name="NELECT">     76.00000000</i>
   <i type="int" name="TURBO">     0</i>
   <i type="int" name="IRESTART">     0</i>
   <i type="int" name="NREBOOT">     0</i>
   <i type="int" name="NMIN">     0</i>
   <i name="EREF">      0.00000000</i>
   <separator name="electronic smearing" >
    <i type="int" name="ISMEAR">     0</i>
    <i name="SIGMA">      0.02000000</i>
    <i name="KSPACING">      0.50000000</i>
    <i type="logical" name="KGAMMA"> T  </i>
    <i type="logical" name="KBLOWUP"> F  </i>
   </separator>
   <separator name="electronic projectors" >
    <i type="logical" name="LREAL"> F  </i>
    <v name="ROPT">      0.00000000      0.00000000      0.00000000</v>
    <i type="int" name="LMAXPAW">  -100</i>
    <i type="int" name="LMAXMIX">     2</i>
    <i type="logical" name="NLSPLINE"> F  </i>
   </separator>
   <separator name="electronic startup" >
    <i type="int" name="ISTART">     0</i>
    <i type="int" name="ICHARG">     2</i>
    <i type="int" name="INIWAV">     1</i>
   </separator>
   <separator name="electronic spin" >
    <i type="int" name="ISPIN">     1</i>
    <i type="logical" name="LNONCOLLINEAR"> F  </i>
    <v name="MAGMOM">      1.00000000      1.00000000      1.00000000      1.00000000      1.00000000      1.00000000      1.00000000      1.00000000      1.00000000      1.00000000</v>
    <i name="NUPDOWN">     -1.00000000</i>
    <i type="logical" name="LSORBIT"> F  </i>
    <v name="SAXIS">      0.00000000      0.00000000      1.00000000</v>
    <i type="logical" name="LSPIRAL"> F  </i>
    <v name="QSPIRAL">      0.00000000      0.00000000      0.00000000</v>
    <i type="logical" name="LZEROZ"> F  </i>
   </separator>
   <separator name="electronic exchange-correlation" >
    <i type="logical" name="LASPH"> T  </i>
    <i type="logical" name="LMETAGGA"> F  </i>
   </separator>
   <separator name="electronic convergence" >
    <i type="int" name="NELM">   100</i>
    <i type="int" name="NELMDL">    -5</i>
    <i type="int" name="NELMIN">     6</i>
    <i name="ENINI">    600.00000000</i>
    <separator name="electronic convergence detail" >
     <i type="logical" name="LDIAG"> T  </i>
     <i type="logical" name="LSUBROT"> F  </i>
     <i name="WEIMIN">      0.00000000</i>
     <i name="EBREAK">      0.00000000</i>
     <i name="DEPER">      0.30000000</i>
     <i type="int" name="NRMM">     4</i>
     <i name="TIME">      0.40000000</i>
    </separator>
   </separator>
   <separator name="electronic mixer" >
    <i name="AMIX">      0.40000000</i>
    <i name="BMIX">      1.00000000</i>
    <i name="AMIN">      0.10000000</i>
    <i name="AMIX_MAG">      1.60000000</i>
    <i name="BMIX_MAG">      1.00000000</i>
    <separator name="electronic mixer details" >
     <i type="int" name="IMIX">     4</i>
     <i type="logical" name="MIXFIRST"> F  </i>
     <i type="int" name="MAXMIX">   -45</i>
     <i name="WC">    100.00000000</i>
     <i type="int" name="INIMIX">     1</i>
     <i type="int" name="MIXPRE">     1</i>
     <i type="int" name="MREMOVE">     5</i>
    </separator>
   </separator>
   <separator name="electronic dipolcorrection" >
    <i type="logical" name="LDIPOL"> F  </i>
    <i type="logical" name="LMONO"> F  </i>
    <i type="int" name="IDIPOL">     0</i>
    <i name="EPSILON">      1.00000000</i>
    <v name="DIPOL">   -100.00000000   -100.00000000   -100.00000000</v>
    <i name="EFIELD">      0.00000000</i>
   </separator>
  </separator>
  <separator name="grids" >
   <i type="int" name="NGX">    50</i>
   <i type="int" name="NGY">    50</i>
   <i type="int" name="NGZ">    50</i>
   <i type="int" name="NGXF">   100</i>
   <i type="int" name="NGYF">   100</i>
   <i type="int" name="NGZF">   100</i>
   <i type="logical" name="ADDGRID"> T  </i>
  </separator>
  <separator name="ionic" >
   <i type="int" name="NSW">     0</i>
   <i type="int" name="IBRION">    -1</i>
   <i type="int" name="MDALGO">     0</i>
   <i type="int" name="ISIF">    -1</i>
   <i name="PSTRESS">      0.00000000</i>
   <i name="EDIFFG">      0.00000001</i>
   <i type="int" name="NFREE">     0</i>
   <i name="POTIM">      0.50000000</i>
   <i name="SMASS">     -3.00000000</i>
   <i name="SCALEE">      1.00000000</i>
  </separator>
  <separator name="ionic md" >
   <i name="TEBEG">      0.00010000</i>
   <i name="TEEND">      0.00010000</i>
   <i type="int" name="NBLOCK">     1</i>
   <i type="int" name="KBLOCK">     1</i>
   <i type="int" name="NPACO">   256</i>
   <i name="APACO">     16.00000000</i>
  </separator>
  <separator name="symmetry" >
   <i type="int" name="ISYM">     2</i>
   <i name="SYMPREC">      0.00001000</i>
  </separator>
  <separator name="dos" >
   <i type="int" name="LORBIT">     0</i>
   <v name="RWIGS">     -1.00000000     -1.00000000     -1.00000000</v>
   <i type="int" name="NEDOS">   301</i>
   <i name="EMIN">     10.00000000</i>
   <i name="EMAX">    -10.00000000</i>
   <i name="EFERMI">      0.00000000</i>
  </separator>
  <separator name="writing" >
   <i type="int" name="NWRITE">     2</i>
   <i type="logical" name="LWAVE"> T  </i>
   <i type="logical" name="LDOWNSAMPLE"> F  </i>
   <i type="logical" name="LCHARG"> T  </i>
   <i type="logical" name="LPARD"> F  </i>
   <i type="logical" name="LVTOT"> F  </i>
   <i type="logical" name="LVHAR"> F  </i>
   <i type="logical" name="LELF"> F  </i>
   <i type="logical" name="LOPTICS"> F  </i>
   <v name="STM">      0.00000000      0.00000000      0.00000000      0.00000000      0.00000000      0.00000000      0.00000000</v>
  </separator>
  <separator name="performance" >
   <i type="int" name="NPAR">     6</i>
   <i type="int" name="NSIM">     4</i>
   <i type="int" name="NBLK">    -1</i>
   <i type="logical" name="LPLANE"> T  </i>
   <i type="logical" name="LSCALAPACK"> T  </i>
   <i type="logical" name="LSCAAWARE"> F  </i>
   <i type="logical" name="LSCALU"> F  </i>
   <i type="logical" name="LASYNC"> F  </i>
   <i type="logical" name="LORBITALREAL"> F  </i>
  </separator>
  <separator name="miscellaneous" >
   <i type="int" name="IDIOT">     3</i>
   <i type="int" name="PHON_NSTRUCT">    -1</i>
   <i type="logical" name="LMUSIC"> F  </i>
   <v name="POMASS">     10.81100000     95.94000000     28.08500000</v>
   <v name="DARWINR">      0.00000000      0.00000000      0.00000000</v>
   <v name="DARWINV">      1.00000000      1.00000000      1.00000000</v>
   <i type="logical" name="LCORR"> T  </i>
  </separator>
  <i type="logical" name="GGA_COMPAT"> T  </i>
  <i type="logical" name="LBERRY"> F  </i>
  <i type="int" name="ICORELEVEL">     0</i>
  <i type="logical" name="LDAU"> F  </i>
  <i type="int" name="I_CONSTRAINED_M">     0</i>
  <separator name="electronic exchange-correlation" >
   <i type="string" name="GGA">--</i>
   <i type="int" name="VOSKOWN">     0</i>
   <i type="logical" name="LHFCALC"> F  </i>
   <i type="string" name="PRECFOCK"></i>
   <i type="logical" name="LSYMGRAD"> F  </i>
   <i type="logical" name="LHFONE"> F  </i>
   <i type="logical" name="LRHFCALC"> F  </i>
   <i type="logical" name="LTHOMAS"> F  </i>
   <i type="logical" name="LMODELHF"> F  </i>
   <i type="logical" name="LFOCKACE"> F  </i>
   <i name="ENCUT4O">     -1.00000000</i>
   <i type="int" name="EXXOEP">     0</i>
   <i type="int" name="FOURORBIT">     0</i>
   <i name="AEXX">      0.00000000</i>
   <i name="HFALPHA">      0.00000000</i>
   <i name="MCALPHA">      0.00000000</i>
   <i name="ALDAX">      1.00000000</i>
   <i name="AGGAX">      1.00000000</i>
   <i name="ALDAC">      1.00000000</i>
   <i name="AGGAC">      1.00000000</i>
   <i type="int" name="NKREDX">     1</i>
   <i type="int" name="NKREDY">     1</i>
   <i type="int" name="NKREDZ">     1</i>
   <i type="logical" name="SHIFTRED"> F  </i>
   <i type="logical" name="ODDONLY"> F  </i>
   <i type="logical" name="EVENONLY"> F  </i>
   <i type="int" name="LMAXFOCK">     0</i>
   <i type="int" name="NMAXFOCKAE">     0</i>
   <i type="logical" name="LFOCKAEDFT"> F  </i>
   <i name="HFSCREEN">      0.00000000</i>
   <i name="HFSCREENC">      0.00000000</i>
   <i type="int" name="NBANDSGWLOW">     0</i>
  </separator>
  <separator name="vdW DFT" >
   <i type="logical" name="LUSE_VDW"> F  </i>
   <i name="Zab_VDW">     -0.84910000</i>
   <i name="PARAM1">      0.12340000</i>
   <i name="PARAM2">      1.00000000</i>
   <i name="PARAM3">      0.00000000</i>
  </separator>
  <separator name="model GW" >
   <i type="int" name="MODEL_GW">     0</i>
   <i name="MODEL_EPS0">     10.54979183</i>
   <i name="MODEL_ALPHA">      1.00000000</i>
  </separator>
  <separator name="linear response parameters" >
   <i type="logical" name="LEPSILON"> F  </i>
   <i type="logical" name="LRPA"> F  </i>
   <i type="logical" name="LNABLA"> F  </i>
   <i type="logical" name="LVEL"> F  </i>
   <i type="int" name="KINTER">     0</i>
   <i name="CSHIFT">      0.10000000</i>
   <i name="OMEGAMAX">     -1.00000000</i>
   <i name="DEG_THRESHOLD">      0.00200000</i>
   <i name="RTIME">     -0.10000000</i>
   <i name="WPLASMAI">      0.00000000</i>
   <v name="DFIELD">      0.00000000      0.00000000      0.00000000</v>
   <v name="WPLASMA">      0.00000000      0.00000000      0.00000000      0.00000000      0.00000000      0.00000000      0.00000000      0.00000000      0.00000000</v>
  </separator>
  <separator name="orbital magnetization" >
   <i type="logical" name="NUCIND"> F  </i>
   <v name="MAGPOS">      0.00000000      0.00000000      0.00000000</v>
   <i type="logical" name="LNICSALL"> T  </i>
   <i type="logical" name="ORBITALMAG"> F  </i>
   <i type="logical" name="LMAGBLOCH"> F  </i>
   <i type="logical" name="LCHIMAG"> F  </i>
   <i type="logical" name="LGAUGE"> T  </i>
   <i type="int" name="MAGATOM">     0</i>
   <v name="MAGDIPOL">      0.00000000      0.00000000      0.00000000</v>
   <v name="AVECCONST">      0.00000000      0.00000000      0.00000000</v>
  </separator>
  <separator name="response functions" >
   <i type="logical" name="LFINITE_TEMPERATURE"> F  </i>
   <i type="logical" name="LADDER"> F  </i>
   <i type="logical" name="LRPAFORCE"> F  </i>
   <i type="logical" name="LFXC"> F  </i>
   <i type="logical" name="LHARTREE"> T  </i>
   <i type="int" name="IBSE">     0</i>
   <v type="int" name="KPOINT">    -1     0     0     0</v>
   <i type="logical" name="LTCTC"> F  </i>
   <i type="logical" name="LTCTE"> F  </i>
   <i type="logical" name="LTETE"> F  </i>
   <i type="logical" name="LTRIPLET"> F  </i>
   <i type="logical" name="LFXCEPS"> F  </i>
   <i type="logical" name="LFXHEG"> F  </i>
   <i type="int" name="NATURALO">     2</i>
   <i type="logical" name="LHOLEGF"> F  </i>
   <i type="logical" name="L2ORDER"> F  </i>
   <i type="logical" name="LDMP1"> F  </i>
   <i type="logical" name="LMP2LT"> F  </i>
   <i type="logical" name="LSMP2LT"> F  </i>
   <i type="logical" name="LGWLF"> F  </i>
   <i name="ENCUTGW">     -2.00000000</i>
   <i name="ENCUTGWSOFT">     -2.00000000</i>
   <i name="ENCUTLF">     -1.00000000</i>
   <i type="logical" name="LESF_SPLINES"> F  </i>
   <i type="int" name="LMAXMP2">    -1</i>
   <i name="SCISSOR">      0.00000000</i>
   <i type="int" name="NOMEGA">     0</i>
   <i type="int" name="NOMEGAR">     0</i>
   <i type="int" name="NBANDSGW">    -1</i>
   <i type="int" name="NBANDSO">    -1</i>
   <i type="int" name="NBANDSV">    -1</i>
   <i type="int" name="NELM">   100</i>
   <i type="int" name="NELMHF">     1</i>
   <i type="int" name="DIM">     3</i>
   <i type="int" name="IESPILON">     4</i>
   <i type="int" name="ANTIRES">     0</i>
   <i name="OMEGAMAX">    -30.00000000</i>
   <i name="OMEGAMIN">    -30.00000000</i>
   <i name="OMEGATL">   -200.00000000</i>
   <i type="int" name="OMEGAGRID">     0</i>
   <i name="CSHIFT">     -0.10000000</i>
   <i type="logical" name="LSELFENERGY"> F  </i>
   <i type="logical" name="LSPECTRAL"> F  </i>
   <i type="logical" name="LSPECTRALGW"> F  </i>
   <i type="logical" name="LSINGLES"> F  </i>
   <i type="logical" name="LFERMIGW"> F  </i>
   <i type="logical" name="ODDONLYGW"> F  </i>
   <i type="logical" name="EVENONLYGW"> F  </i>
   <i type="int" name="NKREDLFX">     1</i>
   <i type="int" name="NKREDLFY">     1</i>
   <i type="int" name="NKREDLFZ">     1</i>
   <i type="int" name="MAXMEM">  2800</i>
   <i type="int" name="TELESCOPE">     0</i>
   <i type="int" name="NTAUPAR">    -1</i>
   <i type="int" name="NOMEGAPAR">    -1</i>
   <i name="DAMP_NEWTON">      0.80000001</i>
   <i name="LAMBDA">      1.00000000</i>
  </separator>
  <separator name="External order field" >
   <i name="OFIELD_KAPPA">      0.00000000</i>
   <v name="OFIELD_K">      0.00000000      0.00000000      0.00000000</v>
   <i name="OFIELD_Q6_NEAR">      0.00000000</i>
   <i name="OFIELD_Q6_FAR">      0.00000000</i>
   <i name="OFIELD_A">      0.00000000</i>
  </separator>
 </parameters>
 <atominfo>
  <atoms>      10 </atoms>
  <types>       3 </types>
  <array name="atoms" >
   <dimension dim="1">ion</dimension>
   <field type="string">element</field>
   <field type="int">atomtype</field>
   <set>
    <rc><c>B </c><c>   1</c></rc>
    <rc><c>B </c><c>   1</c></rc>
    <rc><c>B </c><c>   1</c></rc>
    <rc><c>B </c><c>   1</c></rc>
    <rc><c>Mo</c><c>   2</c></rc>
    <rc><c>Mo</c><c>   2</c></rc>
    <rc><c>Mo</c><c>   2</c></rc>
    <rc><c>Mo</c><c>   2</c></rc>
    <rc><c>Si</c><c>   3</c></rc>
    <rc><c>Si</c><c>   3</c></rc>
   </set>
  </array>
  <array name="atomtypes" >
   <dimension dim="1">type</dimension>
   <field type="int">atomspertype</field>
   <field type="string">element</field>
   <field>mass</field>
   <field>valence</field>
   <field type="string">pseudopotential</field>
   <set>
    <rc><c>   4</c><c>B </c><c>     10.81100000</c><c>      3.00000000</c><c>  PAW_PBE B 06Sep2000                   </c></rc>
    <rc><c>   4</c><c>Mo</c><c>     95.94000000</c><c>     14.00000000</c><c>  PAW_PBE Mo_sv 02Feb2006               </c></rc>
    <rc><c>   2</c><c>Si</c><c>     28.08500000</c><c>      4.00000000</c><c>  PAW_PBE Si 05Jan2001                  </c></rc>
   </set>
  </array>
 </atominfo>
 <structure name="initialpos" >
  <crystal>
   <varray name="basis" >
    <v>       5.45100188       0.00000000      -3.12346087 </v>
    <v>      -1.83079798       5.13435490      -3.12346087 </v>
    <v>       0.00000000       0.00000000       6.28247000 </v>
   </varray>
   <i name="volume">    175.82986389 </i>
   <varray name="rec_basis" >
    <v>       0.18345251       0.06541513       0.00000000 </v>
    <v>       0.00000000       0.19476644       0.00000000 </v>
    <v>       0.09120724       0.12935469       0.15917306 </v>
   </varray>
  </crystal>
  <varray name="positions" >
   <v>       0.50000000       0.00000000       0.00000000 </v>
   <v>       0.00000000       0.00000000       0.50000000 </v>
   <v>       0.00000000       0.50000000       0.00000000 </v>
   <v>       0.50000000       0.50000000       0.50000000 </v>
   <v>       0.25000000       0.75000000       0.50000000 </v>
   <v>       0.00000000       0.00000000       0.00000000 </v>
   <v>       0.75000000       0.25000000       0.50000000 </v>
   <v>       0.50000000       0.50000000       0.00000000 </v>
   <v>       0.25000000       0.25000000       0.00000000 </v>
   <v>       0.75000000       0.75000000       0.00000000 </v>
  </varray>
 </structure>
 <calculation>
  <scstep>
   <time name="total">   16.36   16.48</time>
   <energy>
    <i name="alphaZ">    274.50932576 </i>
    <i name="ewald">  -5596.96602601 </i>
    <i name="hartreedc">  -2085.92926335 </i>
    <i name="XCdc">    323.79802445 </i>
    <i name="pawpsdc">   6278.15209018 </i>
    <i name="pawaedc">  -6244.81064237 </i>
    <i name="eentropy">     -0.00117941 </i>
    <i name="bandstr">   -280.84145915 </i>
    <i name="atom">   7939.94160518 </i>
    <i name="e_fr_energy">    607.85247528 </i>
    <i name="e_wo_entrp">    607.85365469 </i>
    <i name="e_0_energy">    607.85306498 </i>
   </energy>
  </scstep>
  <scstep>
   <time name="total">   15.77   15.89</time>
   <energy>
    <i name="e_fr_energy">   -134.01537114 </i>
    <i name="e_wo_entrp">   -134.01437694 </i>
    <i name="e_0_energy">   -134.01487404 </i>
   </energy>
  </scstep>
  <scstep>
   <time name="total">   17.84   17.97</time>
   <energy>
    <i name="e_fr_energy">   -167.55210297 </i>
    <i name="e_wo_entrp">   -167.55092220 </i>
    <i name="e_0_energy">   -167.55151259 </i>
   </energy>
  </scstep>
  <scstep>
   <time name="total">   16.92   17.04</time>
   <energy>
    <i name="e_fr_energy">   -168.42427769 </i>
    <i name="e_wo_entrp">   -168.42325795 </i>
    <i name="e_0_energy">   -168.42376782 </i>
   </energy>
  </scstep>
  <scstep>
   <time name="total">   19.39   19.54</time>
   <energy>
    <i name="e_fr_energy">   -168.45376409 </i>
    <i name="e_wo_entrp">   -168.45270899 </i>
    <i name="e_0_energy">   -168.45323654 </i>
   </energy>
  </scstep>
  <scstep>
   <time name="total">   17.58   17.70</time>
   <energy>
    <i name="e_fr_energy">    -96.36544773 </i>
    <i name="e_wo_entrp">    -96.36366922 </i>
    <i name="e_0_energy">    -96.36455848 </i>
   </energy>
  </scstep>
  <scstep>
   <time name="total">   17.48   17.61</time>
   <energy>
    <i name="e_fr_energy">   -125.27743240 </i>
    <i name="e_wo_entrp">   -125.27543418 </i>
    <i name="e_0_energy">   -125.27643329 </i>
   </energy>
  </scstep>
  <scstep>
   <time name="total">   17.54   17.67</time>
   <energy>
    <i name="e_fr_energy">   -130.91216716 </i>
    <i name="e_wo_entrp">   -130.91008318 </i>
    <i name="e_0_energy">   -130.91112517 </i>
   </energy>
  </scstep>
  <scstep>
   <time name="total">   17.51   17.63</time>
   <energy>
    <i name="e_fr_energy">   -132.29131587 </i>
    <i name="e_wo_entrp">   -132.28914660 </i>
    <i name="e_0_energy">   -132.29023124 </i>
   </energy>
  </scstep>
  <scstep>
   <time name="total">   17.59   17.71</time>
   <energy>
    <i name="e_fr_energy">   -132.87551251 </i>
    <i name="e_wo_entrp">   -132.87376290 </i>
    <i name="e_0_energy">   -132.87463771 </i>
   </energy>
  </scstep>
  <scstep>
   <time name="total">   17.55   17.67</time>
   <energy>
    <i name="e_fr_energy">   -133.05396389 </i>
    <i name="e_wo_entrp">   -133.05188065 </i>
    <i name="e_0_energy">   -133.05292227 </i>
   </energy>
  </scstep>
  <scstep>
   <time name="total">   17.60   17.73</time>
   <energy>
    <i name="e_fr_energy">   -133.13496367 </i>
    <i name="e_wo_entrp">   -133.13296457 </i>
    <i name="e_0_energy">   -133.13396412 </i>
   </energy>
  </scstep>
  <scstep>
   <time name="total">   17.52   17.65</time>
   <energy>
    <i name="e_fr_energy">   -133.18291123 </i>
    <i name="e_wo_entrp">   -133.18093053 </i>
    <i name="e_0_energy">   -133.18192088 </i>
   </energy>
  </scstep>
  <scstep>
   <time name="total">   17.55   17.68</time>
   <energy>
    <i name="e_fr_energy">   -133.21204264 </i>
    <i name="e_wo_entrp">   -133.21018667 </i>
    <i name="e_0_energy">   -133.21111465 </i>
   </energy>
  </scstep>
  <scstep>
   <time name="total">   17.52   17.65</time>
   <energy>
    <i name="e_fr_energy">   -133.22630387 </i>
    <i name="e_wo_entrp">   -133.22422086 </i>
    <i name="e_0_energy">   -133.22526237 </i>
   </energy>
  </scstep>
  <scstep>
   <time name="total">   17.58   17.70</time>
   <energy>
    <i name="e_fr_energy">   -133.23564852 </i>
    <i name="e_wo_entrp">   -133.23349796 </i>
    <i name="e_0_energy">   -133.23457324 </i>
   </energy>
  </scstep>
  <scstep>
   <time name="total">   17.49   17.60</time>
   <energy>
    <i name="e_fr_energy">   -133.24261814 </i>
    <i name="e_wo_entrp">   -133.24035452 </i>
    <i name="e_0_energy">   -133.24148633 </i>
   </energy>
  </scstep>
  <scstep>
   <time name="total">   17.55   17.68</time>
   <energy>
    <i name="e_fr_energy">   -133.24604499 </i>
    <i name="e_wo_entrp">   -133.24381063 </i>
    <i name="e_0_energy">   -133.24492781 </i>
   </energy>
  </scstep>
  <scstep>
   <time name="total">   17.52   17.65</time>
   <energy>
    <i name="e_fr_energy">   -133.24720531 </i>
    <i name="e_wo_entrp">   -133.24494751 </i>
    <i name="e_0_energy">   -133.24607641 </i>
   </energy>
  </scstep>
  <scstep>
   <time name="total">   17.55   17.68</time>
   <energy>
    <i name="e_fr_energy">   -133.24842136 </i>
    <i name="e_wo_entrp">   -133.24620543 </i>
    <i name="e_0_energy">   -133.24731340 </i>
   </energy>
  </scstep>
  <scstep>
   <time name="total">   17.57   17.69</time>
   <energy>
    <i name="e_fr_energy">   -133.24914758 </i>
    <i name="e_wo_entrp">   -133.24692700 </i>
    <i name="e_0_energy">   -133.24803729 </i>
   </energy>
  </scstep>
  <scstep>
   <time name="total">   17.62   17.74</time>
   <energy>
    <i name="e_fr_energy">   -133.24944058 </i>
    <i name="e_wo_entrp">   -133.24726056 </i>
    <i name="e_0_energy">   -133.24835057 </i>
   </energy>
  </scstep>
  <scstep>
   <time name="total">   17.54   17.66</time>
   <energy>
    <i name="e_fr_energy">   -133.24973461 </i>
    <i name="e_wo_entrp">   -133.24756015 </i>
    <i name="e_0_energy">   -133.24864738 </i>
   </energy>
  </scstep>
  <scstep>
   <time name="total">   17.58   17.71</time>
   <energy>
    <i name="e_fr_energy">   -133.24988286 </i>
    <i name="e_wo_entrp">   -133.24772489 </i>
    <i name="e_0_energy">   -133.24880387 </i>
   </energy>
  </scstep>
  <scstep>
   <time name="total">   17.50   17.63</time>
   <energy>
    <i name="e_fr_energy">   -133.24993300 </i>
    <i name="e_wo_entrp">   -133.24777498 </i>
    <i name="e_0_energy">   -133.24885399 </i>
   </energy>
  </scstep>
  <scstep>
   <time name="total">   17.60   17.73</time>
   <energy>
    <i name="e_fr_energy">   -133.24998469 </i>
    <i name="e_wo_entrp">   -133.24783422 </i>
    <i name="e_0_energy">   -133.24890945 </i>
   </energy>
  </scstep>
  <scstep>
   <time name="total">   17.58   17.71</time>
   <energy>
    <i name="e_fr_energy">   -133.25001019 </i>
    <i name="e_wo_entrp">   -133.24785508 </i>
    <i name="e_0_energy">   -133.24893264 </i>
   </energy>
  </scstep>
  <scstep>
   <time name="total">   17.54   17.67</time>
   <energy>
    <i name="e_fr_energy">   -133.25002229 </i>
    <i name="e_wo_entrp">   -133.24786943 </i>
    <i name="e_0_energy">   -133.24894586 </i>
   </energy>
  </scstep>
  <scstep>
   <time name="total">   17.51   17.63</time>
   <energy>
    <i name="e_fr_energy">   -133.25003381 </i>
    <i name="e_wo_entrp">   -133.24787720 </i>
    <i name="e_0_energy">   -133.24895550 </i>
   </energy>
  </scstep>
  <scstep>
   <time name="total">   17.63   17.75</time>
   <energy>
    <i name="e_fr_energy">   -133.25003969 </i>
    <i name="e_wo_entrp">   -133.24788478 </i>
    <i name="e_0_energy">   -133.24896224 </i>
   </energy>
  </scstep>
  <scstep>
   <time name="total">   17.66   17.79</time>
   <energy>
    <i name="e_fr_energy">   -133.25004252 </i>
    <i name="e_wo_entrp">   -133.24788544 </i>
    <i name="e_0_energy">   -133.24896398 </i>
   </energy>
  </scstep>
  <scstep>
   <time name="total">   17.57   17.69</time>
   <energy>
    <i name="e_fr_energy">   -133.25004522 </i>
    <i name="e_wo_entrp">   -133.24788854 </i>
    <i name="e_0_energy">   -133.24896688 </i>
   </energy>
  </scstep>
  <scstep>
   <time name="total">   17.57   17.70</time>
   <energy>
    <i name="e_fr_energy">   -133.25004621 </i>
    <i name="e_wo_entrp">   -133.24788827 </i>
    <i name="e_0_energy">   -133.24896724 </i>
   </energy>
  </scstep>
  <scstep>
   <time name="total">   17.64   17.77</time>
   <energy>
    <i name="e_fr_energy">   -133.25004677 </i>
    <i name="e_wo_entrp">   -133.24788944 </i>
    <i name="e_0_energy">   -133.24896810 </i>
   </energy>
  </scstep>
  <scstep>
   <time name="total">   17.58   17.71</time>
   <energy>
    <i name="e_fr_energy">   -133.25004725 </i>
    <i name="e_wo_entrp">   -133.24788937 </i>
    <i name="e_0_energy">   -133.24896831 </i>
   </energy>
  </scstep>
  <scstep>
   <time name="total">   17.51   17.64</time>
   <energy>
    <i name="e_fr_energy">   -133.25004758 </i>
    <i name="e_wo_entrp">   -133.24789027 </i>
    <i name="e_0_energy">   -133.24896893 </i>
   </energy>
  </scstep>
  <scstep>
   <time name="total">   17.40   17.53</time>
   <energy>
    <i name="e_fr_energy">   -133.25004771 </i>
    <i name="e_wo_entrp">   -133.24788993 </i>
    <i name="e_0_energy">   -133.24896882 </i>
   </energy>
  </scstep>
  <scstep>
   <time name="total">   17.59   17.74</time>
   <energy>
    <i name="e_fr_energy">   -133.25004789 </i>
    <i name="e_wo_entrp">   -133.24789056 </i>
    <i name="e_0_energy">   -133.24896923 </i>
   </energy>
  </scstep>
  <scstep>
   <time name="total">   30.43   30.65</time>
   <energy>
    <i name="e_fr_energy">   -133.25004796 </i>
    <i name="e_wo_entrp">   -133.24789146 </i>
    <i name="e_0_energy">   -133.24896971 </i>
   </energy>
  </scstep>
  <scstep>
   <time name="total">   17.59   17.71</time>
   <energy>
    <i name="e_fr_energy">   -133.25004723 </i>
    <i name="e_wo_entrp">   -133.24788939 </i>
    <i name="e_0_energy">   -133.24896831 </i>
   </energy>
  </scstep>
  <scstep>
   <time name="total">   17.57   17.70</time>
   <energy>
    <i name="e_fr_energy">   -133.25004785 </i>
    <i name="e_wo_entrp">   -133.24789057 </i>
    <i name="e_0_energy">   -133.24896921 </i>
   </energy>
  </scstep>
  <scstep>
   <time name="total">   17.54   17.67</time>
   <energy>
    <i name="e_fr_energy">   -133.25004804 </i>
    <i name="e_wo_entrp">   -133.24789081 </i>
    <i name="e_0_energy">   -133.24896943 </i>
   </energy>
  </scstep>
  <scstep>
   <time name="total">   17.47   17.60</time>
   <energy>
    <i name="e_fr_energy">   -133.25004807 </i>
    <i name="e_wo_entrp">   -133.24789070 </i>
    <i name="e_0_energy">   -133.24896939 </i>
   </energy>
  </scstep>
  <scstep>
   <time name="total">   17.57   17.70</time>
   <energy>
    <i name="e_fr_energy">   -133.25004808 </i>
    <i name="e_wo_entrp">   -133.24789075 </i>
    <i name="e_0_energy">   -133.24896941 </i>
   </energy>
  </scstep>
  <scstep>
   <time name="total">   17.58   17.71</time>
   <energy>
    <i name="e_fr_energy">   -133.25004808 </i>
    <i name="e_wo_entrp">   -133.24789079 </i>
    <i name="e_0_energy">   -133.24896943 </i>
   </energy>
  </scstep>
  <scstep>
   <time name="total">   17.66   17.79</time>
   <energy>
    <i name="e_fr_energy">   -133.25004808 </i>
    <i name="e_wo_entrp">   -133.24789071 </i>
    <i name="e_0_energy">   -133.24896940 </i>
   </energy>
  </scstep>
  <scstep>
   <time name="total">   17.55   17.68</time>
   <energy>
    <i name="e_fr_energy">   -133.25004808 </i>
    <i name="e_wo_entrp">   -133.24789061 </i>
    <i name="e_0_energy">   -133.24896935 </i>
   </energy>
  </scstep>
  <scstep>
   <time name="total">   17.56   17.68</time>
   <energy>
    <i name="e_fr_energy">   -133.25004809 </i>
    <i name="e_wo_entrp">   -133.24789070 </i>
    <i name="e_0_energy">   -133.24896939 </i>
   </energy>
  </scstep>
  <scstep>
   <time name="total">   20.10   20.24</time>
   <energy>
    <i name="alphaZ">    274.50932576 </i>
    <i name="ewald">  -5596.96602601 </i>
    <i name="hartreedc">  -2004.73842872 </i>
    <i name="XCdc">    330.58864024 </i>
    <i name="pawpsdc">   8530.41050861 </i>
    <i name="pawaedc">  -8504.84473698 </i>
    <i name="eentropy">     -0.00215738 </i>
    <i name="bandstr">  -1102.14877878 </i>
    <i name="atom">   7939.94160518 </i>
    <i name="e_fr_energy">   -133.25004809 </i>
    <i name="e_wo_entrp">   -133.24789071 </i>
    <i name="e_0_energy">   -133.24896940 </i>
   </energy>
  </scstep>
  <structure>
   <crystal>
    <varray name="basis" >
     <v>       5.45100188       0.00000000      -3.12346087 </v>
     <v>      -1.83079798       5.13435490      -3.12346087 </v>
     <v>       0.00000000       0.00000000       6.28247000 </v>
    </varray>
    <i name="volume">    175.82986389 </i>
    <varray name="rec_basis" >
     <v>       0.18345251       0.06541513       0.00000000 </v>
     <v>       0.00000000       0.19476644       0.00000000 </v>
     <v>       0.09120724       0.12935469       0.15917306 </v>
    </varray>
   </crystal>
   <varray name="positions" >
    <v>       0.50000000       0.00000000       0.00000000 </v>
    <v>       0.00000000       0.00000000       0.50000000 </v>
    <v>       0.00000000       0.50000000       0.00000000 </v>
    <v>       0.50000000       0.50000000       0.50000000 </v>
    <v>       0.25000000       0.75000000       0.50000000 </v>
    <v>       0.00000000       0.00000000       0.00000000 </v>
    <v>       0.75000000       0.25000000       0.50000000 </v>
    <v>       0.50000000       0.50000000       0.00000000 </v>
    <v>       0.25000000       0.25000000       0.00000000 </v>
    <v>       0.75000000       0.75000000       0.00000000 </v>
   </varray>
  </structure>
  <varray name="forces" >
   <v>       0.00000000       0.00000000       0.00000000 </v>
   <v>       0.00000000       0.00000000       0.00000000 </v>
   <v>       0.00000000       0.00000000       0.00000000 </v>
   <v>       0.00000000       0.00000000       0.00000000 </v>
   <v>       0.00000000       0.00000000       0.00000000 </v>
   <v>       0.00000000       0.00000000       0.00000000 </v>
   <v>       0.00000000       0.00000000       0.00000000 </v>
   <v>       0.00000000       0.00000000       0.00000000 </v>
   <v>       0.00000000       0.00000000       0.00000000 </v>
   <v>       0.00000000       0.00000000       0.00000000 </v>
  </varray>
  <varray name="stress" >
   <v>       0.00000000       0.00000000       0.00000000 </v>
   <v>       0.00000000       0.00000000       0.00000000 </v>
   <v>       0.00000000       0.00000000       0.00000000 </v>
  </varray>
  <energy>
   <i name="e_fr_energy">   -133.25004809 </i>
   <i name="e_wo_entrp">   -133.24789071 </i>
   <i name="e_0_energy">   -133.24896940 </i>
  </energy>
  <time name="totalsc">  876.87  883.26</time>
  <eigenvalues>
   <array>
    <dimension dim="1">band</dimension>
    <dimension dim="2">kpoint</dimension>
    <dimension dim="3">spin</dimension>
    <field>eigene</field>
    <field>occ</field>
    <set>
     <set comment="spin 1">
      <set comment="kpoint 1">
       <r>  -57.1719    1.0000 </r>
       <r>  -57.1697    1.0000 </r>
       <r>  -57.1648    1.0000 </r>
       <r>  -57.1638    1.0000 </r>
       <r>  -30.7200    1.0000 </r>
       <r>  -30.6990    1.0000 </r>
       <r>  -30.5876    1.0000 </r>
       <r>  -30.5861    1.0000 </r>
       <r>  -30.5757    1.0000 </r>
       <r>  -30.5737    1.0000 </r>
       <r>  -30.5665    1.0000 </r>
       <r>  -30.5658    1.0000 </r>
       <r>  -30.5509    1.0000 </r>
       <r>  -30.5498    1.0000 </r>
       <r>  -30.4648    1.0000 </r>
       <r>  -30.4610    1.0000 </r>
       <r>   -6.0642    1.0000 </r>
       <r>   -3.3695    1.0000 </r>
       <r>   -1.9214    1.0000 </r>
       <r>   -1.9176    1.0000 </r>
       <r>   -1.1455    1.0000 </r>
       <r>    1.2647    1.0000 </r>
       <r>    1.4039    1.0000 </r>
       <r>    1.4055    1.0000 </r>
       <r>    1.5417    1.0000 </r>
       <r>    1.6406    1.0000 </r>
       <r>    2.3689    1.0000 </r>
       <r>    2.9672    1.0000 </r>
       <r>    2.9697    1.0000 </r>
       <r>    3.5740    1.0000 </r>
       <r>    4.2126    1.0000 </r>
       <r>    4.2873    1.0000 </r>
       <r>    4.2876    1.0000 </r>
       <r>    4.4676    1.0000 </r>
       <r>    4.8542    1.0000 </r>
       <r>    5.6147    1.0000 </r>
       <r>    6.1413    0.0000 </r>
       <r>    6.1430    0.0000 </r>
       <r>    6.1702    0.0000 </r>
       <r>    6.2771    0.0000 </r>
       <r>    6.2777    0.0000 </r>
       <r>    6.4512    0.0000 </r>
       <r>    6.4614    0.0000 </r>
       <r>    7.1113    0.0000 </r>
       <r>    7.4088    0.0000 </r>
       <r>    7.6550    0.0000 </r>
       <r>    7.6615    0.0000 </r>
       <r>    7.8133    0.0000 </r>
      </set>
      <set comment="kpoint 2">
       <r>  -57.1718    1.0000 </r>
       <r>  -57.1697    1.0000 </r>
       <r>  -57.1648    1.0000 </r>
       <r>  -57.1639    1.0000 </r>
       <r>  -30.7194    1.0000 </r>
       <r>  -30.6999    1.0000 </r>
       <r>  -30.5870    1.0000 </r>
       <r>  -30.5844    1.0000 </r>
       <r>  -30.5776    1.0000 </r>
       <r>  -30.5760    1.0000 </r>
       <r>  -30.5640    1.0000 </r>
       <r>  -30.5635    1.0000 </r>
       <r>  -30.5529    1.0000 </r>
       <r>  -30.5504    1.0000 </r>
       <r>  -30.4644    1.0000 </r>
       <r>  -30.4613    1.0000 </r>
       <r>   -5.9625    1.0000 </r>
       <r>   -3.5598    1.0000 </r>
       <r>   -1.8958    1.0000 </r>
       <r>   -1.8913    1.0000 </r>
       <r>   -1.2042    1.0000 </r>
       <r>    0.5925    1.0000 </r>
       <r>    1.3277    1.0000 </r>
       <r>    1.5062    1.0000 </r>
       <r>    1.8863    1.0000 </r>
       <r>    2.2020    1.0000 </r>
       <r>    2.4124    1.0000 </r>
       <r>    2.9980    1.0000 </r>
       <r>    3.0237    1.0000 </r>
       <r>    3.2429    1.0000 </r>
       <r>    4.2395    1.0000 </r>
       <r>    4.3770    1.0000 </r>
       <r>    4.4802    1.0000 </r>
       <r>    4.5785    1.0000 </r>
       <r>    4.8450    1.0000 </r>
       <r>    5.4790    1.0000 </r>
       <r>    5.9230    0.8755 </r>
       <r>    6.1045    0.0000 </r>
       <r>    6.1508    0.0000 </r>
       <r>    6.2635    0.0000 </r>
       <r>    6.3590    0.0000 </r>
       <r>    6.3748    0.0000 </r>
       <r>    6.4588    0.0000 </r>
       <r>    7.2318    0.0000 </r>
       <r>    7.3585    0.0000 </r>
       <r>    7.4399    0.0000 </r>
       <r>    7.4955    0.0000 </r>
       <r>    8.1323    0.0000 </r>
      </set>
      <set comment="kpoint 3">
       <r>  -57.1713    1.0000 </r>
       <r>  -57.1699    1.0000 </r>
       <r>  -57.1648    1.0000 </r>
       <r>  -57.1642    1.0000 </r>
       <r>  -30.7173    1.0000 </r>
       <r>  -30.7030    1.0000 </r>
       <r>  -30.5866    1.0000 </r>
       <r>  -30.5810    1.0000 </r>
       <r>  -30.5788    1.0000 </r>
       <r>  -30.5774    1.0000 </r>
       <r>  -30.5621    1.0000 </r>
       <r>  -30.5593    1.0000 </r>
       <r>  -30.5590    1.0000 </r>
       <r>  -30.5513    1.0000 </r>
       <r>  -30.4634    1.0000 </r>
       <r>  -30.4619    1.0000 </r>
       <r>   -5.6670    1.0000 </r>
       <r>   -4.0407    1.0000 </r>
       <r>   -1.8200    1.0000 </r>
       <r>   -1.7613    1.0000 </r>
       <r>   -1.3512    1.0000 </r>
       <r>   -0.2541    1.0000 </r>
       <r>    1.5095    1.0000 </r>
       <r>    1.7743    1.0000 </r>
       <r>    2.4759    1.0000 </r>
       <r>    2.4981    1.0000 </r>
       <r>    2.5372    1.0000 </r>
       <r>    2.8857    1.0000 </r>
       <r>    3.1045    1.0000 </r>
       <r>    3.1465    1.0000 </r>
       <r>    4.0295    1.0000 </r>
       <r>    4.4227    1.0000 </r>
       <r>    4.6638    1.0000 </r>
       <r>    4.8399    1.0000 </r>
       <r>    4.9233    1.0000 </r>
       <r>    5.3282    1.0000 </r>
       <r>    5.5419    1.0000 </r>
       <r>    5.9217    0.8945 </r>
       <r>    6.1000    0.0000 </r>
       <r>    6.2263    0.0000 </r>
       <r>    6.2921    0.0000 </r>
       <r>    6.5533    0.0000 </r>
       <r>    6.5750    0.0000 </r>
       <r>    6.9235    0.0000 </r>
       <r>    6.9893    0.0000 </r>
       <r>    7.2324    0.0000 </r>
       <r>    7.3367    0.0000 </r>
       <r>    7.4395    0.0000 </r>
      </set>
      <set comment="kpoint 4">
       <r>  -57.1707    1.0000 </r>
       <r>  -57.1702    1.0000 </r>
       <r>  -57.1647    1.0000 </r>
       <r>  -57.1645    1.0000 </r>
       <r>  -30.7132    1.0000 </r>
       <r>  -30.7079    1.0000 </r>
       <r>  -30.5857    1.0000 </r>
       <r>  -30.5839    1.0000 </r>
       <r>  -30.5752    1.0000 </r>
       <r>  -30.5732    1.0000 </r>
       <r>  -30.5649    1.0000 </r>
       <r>  -30.5635    1.0000 </r>
       <r>  -30.5556    1.0000 </r>
       <r>  -30.5529    1.0000 </r>
       <r>  -30.4627    1.0000 </r>
       <r>  -30.4623    1.0000 </r>
       <r>   -5.2073    1.0000 </r>
       <r>   -4.6363    1.0000 </r>
       <r>   -1.6951    1.0000 </r>
       <r>   -1.5302    1.0000 </r>
       <r>   -1.4597    1.0000 </r>
       <r>   -0.9554    1.0000 </r>
       <r>    1.7980    1.0000 </r>
       <r>    2.1161    1.0000 </r>
       <r>    2.1786    1.0000 </r>
       <r>    2.3932    1.0000 </r>
       <r>    3.0537    1.0000 </r>
       <r>    3.0943    1.0000 </r>
       <r>    3.3363    1.0000 </r>
       <r>    3.3767    1.0000 </r>
       <r>    3.6780    1.0000 </r>
       <r>    4.0231    1.0000 </r>
       <r>    4.8723    1.0000 </r>
       <r>    4.8849    1.0000 </r>
       <r>    5.1717    1.0000 </r>
       <r>    5.3073    1.0000 </r>
       <r>    5.3306    1.0000 </r>
       <r>    5.5605    1.0000 </r>
       <r>    6.0315    0.0000 </r>
       <r>    6.0660    0.0000 </r>
       <r>    6.3910    0.0000 </r>
       <r>    6.5739    0.0000 </r>
       <r>    6.6766    0.0000 </r>
       <r>    6.8739    0.0000 </r>
       <r>    6.8800    0.0000 </r>
       <r>    7.0920    0.0000 </r>
       <r>    7.2888    0.0000 </r>
       <r>    7.3804    0.0000 </r>
      </set>
      <set comment="kpoint 5">
       <r>  -57.1714    1.0000 </r>
       <r>  -57.1699    1.0000 </r>
       <r>  -57.1648    1.0000 </r>
       <r>  -57.1640    1.0000 </r>
       <r>  -30.7166    1.0000 </r>
       <r>  -30.7031    1.0000 </r>
       <r>  -30.5848    1.0000 </r>
       <r>  -30.5828    1.0000 </r>
       <r>  -30.5812    1.0000 </r>
       <r>  -30.5794    1.0000 </r>
       <r>  -30.5607    1.0000 </r>
       <r>  -30.5595    1.0000 </r>
       <r>  -30.5545    1.0000 </r>
       <r>  -30.5527    1.0000 </r>
       <r>  -30.4637    1.0000 </r>
       <r>  -30.4619    1.0000 </r>
       <r>   -5.7980    1.0000 </r>
       <r>   -3.8148    1.0000 </r>
       <r>   -2.1957    1.0000 </r>
       <r>   -1.5391    1.0000 </r>
       <r>   -1.3226    1.0000 </r>
       <r>    0.5676    1.0000 </r>
       <r>    1.1025    1.0000 </r>
       <r>    1.6411    1.0000 </r>
       <r>    1.9584    1.0000 </r>
       <r>    2.4275    1.0000 </r>
       <r>    2.5674    1.0000 </r>
       <r>    2.8361    1.0000 </r>
       <r>    3.0248    1.0000 </r>
       <r>    3.0451    1.0000 </r>
       <r>    4.2761    1.0000 </r>
       <r>    4.5967    1.0000 </r>
       <r>    4.6439    1.0000 </r>
       <r>    4.8027    1.0000 </r>
       <r>    4.8331    1.0000 </r>
       <r>    5.3692    1.0000 </r>
       <r>    5.6460    1.0000 </r>
       <r>    6.0848    0.0000 </r>
       <r>    6.1189    0.0000 </r>
       <r>    6.2275    0.0000 </r>
       <r>    6.2444    0.0000 </r>
       <r>    6.4572    0.0000 </r>
       <r>    6.4588    0.0000 </r>
       <r>    6.8849    0.0000 </r>
       <r>    7.0035    0.0000 </r>
       <r>    7.3946    0.0000 </r>
       <r>    7.5406    0.0000 </r>
       <r>    7.7790    0.0000 </r>
      </set>
      <set comment="kpoint 6">
       <r>  -57.1709    1.0000 </r>
       <r>  -57.1701    1.0000 </r>
       <r>  -57.1648    1.0000 </r>
       <r>  -57.1643    1.0000 </r>
       <r>  -30.7127    1.0000 </r>
       <r>  -30.7080    1.0000 </r>
       <r>  -30.5838    1.0000 </r>
       <r>  -30.5830    1.0000 </r>
       <r>  -30.5799    1.0000 </r>
       <r>  -30.5776    1.0000 </r>
       <r>  -30.5601    1.0000 </r>
       <r>  -30.5597    1.0000 </r>
       <r>  -30.5563    1.0000 </r>
       <r>  -30.5547    1.0000 </r>
       <r>  -30.4627    1.0000 </r>
       <r>  -30.4625    1.0000 </r>
       <r>   -5.4514    1.0000 </r>
       <r>   -4.2584    1.0000 </r>
       <r>   -2.3156    1.0000 </r>
       <r>   -1.6212    1.0000 </r>
       <r>   -1.2210    1.0000 </r>
       <r>    0.0673    1.0000 </r>
       <r>    1.2776    1.0000 </r>
       <r>    1.9624    1.0000 </r>
       <r>    2.1238    1.0000 </r>
       <r>    2.1555    1.0000 </r>
       <r>    2.9280    1.0000 </r>
       <r>    2.9702    1.0000 </r>
       <r>    3.0978    1.0000 </r>
       <r>    3.2116    1.0000 </r>
       <r>    4.0099    1.0000 </r>
       <r>    4.6137    1.0000 </r>
       <r>    4.7932    1.0000 </r>
       <r>    4.9408    1.0000 </r>
       <r>    5.0377    1.0000 </r>
       <r>    5.2789    1.0000 </r>
       <r>    5.3920    1.0000 </r>
       <r>    5.7651    1.0000 </r>
       <r>    6.0775    0.0000 </r>
       <r>    6.1021    0.0000 </r>
       <r>    6.2637    0.0000 </r>
       <r>    6.3093    0.0000 </r>
       <r>    6.5392    0.0000 </r>
       <r>    6.9959    0.0000 </r>
       <r>    7.0555    0.0000 </r>
       <r>    7.4208    0.0000 </r>
       <r>    7.6679    0.0000 </r>
       <r>    7.8866    0.0000 </r>
      </set>
      <set comment="kpoint 7">
       <r>  -57.1705    1.0000 </r>
       <r>  -57.1704    1.0000 </r>
       <r>  -57.1647    1.0000 </r>
       <r>  -57.1646    1.0000 </r>
       <r>  -30.7139    1.0000 </r>
       <r>  -30.7077    1.0000 </r>
       <r>  -30.5855    1.0000 </r>
       <r>  -30.5813    1.0000 </r>
       <r>  -30.5764    1.0000 </r>
       <r>  -30.5725    1.0000 </r>
       <r>  -30.5655    1.0000 </r>
       <r>  -30.5627    1.0000 </r>
       <r>  -30.5569    1.0000 </r>
       <r>  -30.5539    1.0000 </r>
       <r>  -30.4627    1.0000 </r>
       <r>  -30.4621    1.0000 </r>
       <r>   -4.9599    1.0000 </r>
       <r>   -4.7966    1.0000 </r>
       <r>   -2.2142    1.0000 </r>
       <r>   -1.9516    1.0000 </r>
       <r>   -0.8852    1.0000 </r>
       <r>   -0.4849    1.0000 </r>
       <r>    1.5360    1.0000 </r>
       <r>    1.8902    1.0000 </r>
       <r>    2.1716    1.0000 </r>
       <r>    2.3423    1.0000 </r>
       <r>    3.1465    1.0000 </r>
       <r>    3.1562    1.0000 </r>
       <r>    3.2182    1.0000 </r>
       <r>    3.6303    1.0000 </r>
       <r>    3.6687    1.0000 </r>
       <r>    4.2810    1.0000 </r>
       <r>    4.8132    1.0000 </r>
       <r>    5.0196    1.0000 </r>
       <r>    5.0961    1.0000 </r>
       <r>    5.1976    1.0000 </r>
       <r>    5.3540    1.0000 </r>
       <r>    5.3642    1.0000 </r>
       <r>    5.9592    0.0796 </r>
       <r>    6.0512    0.0000 </r>
       <r>    6.3403    0.0000 </r>
       <r>    6.3538    0.0000 </r>
       <r>    6.6895    0.0000 </r>
       <r>    6.8412    0.0000 </r>
       <r>    7.2600    0.0000 </r>
       <r>    7.3399    0.0000 </r>
       <r>    7.4973    0.0000 </r>
       <r>    7.5924    0.0000 </r>
      </set>
      <set comment="kpoint 8">
       <r>  -57.1710    1.0000 </r>
       <r>  -57.1700    1.0000 </r>
       <r>  -57.1647    1.0000 </r>
       <r>  -57.1645    1.0000 </r>
       <r>  -30.7188    1.0000 </r>
       <r>  -30.7028    1.0000 </r>
       <r>  -30.5862    1.0000 </r>
       <r>  -30.5790    1.0000 </r>
       <r>  -30.5741    1.0000 </r>
       <r>  -30.5736    1.0000 </r>
       <r>  -30.5651    1.0000 </r>
       <r>  -30.5646    1.0000 </r>
       <r>  -30.5597    1.0000 </r>
       <r>  -30.5526    1.0000 </r>
       <r>  -30.4629    1.0000 </r>
       <r>  -30.4618    1.0000 </r>
       <r>   -5.3068    1.0000 </r>
       <r>   -4.3883    1.0000 </r>
       <r>   -2.2145    1.0000 </r>
       <r>   -1.9542    1.0000 </r>
       <r>   -0.9080    1.0000 </r>
       <r>   -0.4610    1.0000 </r>
       <r>    1.2547    1.0000 </r>
       <r>    1.9079    1.0000 </r>
       <r>    2.1863    1.0000 </r>
       <r>    2.7299    1.0000 </r>
       <r>    3.1481    1.0000 </r>
       <r>    3.1781    1.0000 </r>
       <r>    3.3512    1.0000 </r>
       <r>    3.5676    1.0000 </r>
       <r>    3.7268    1.0000 </r>
       <r>    4.1693    1.0000 </r>
       <r>    4.7390    1.0000 </r>
       <r>    4.9139    1.0000 </r>
       <r>    4.9497    1.0000 </r>
       <r>    4.9716    1.0000 </r>
       <r>    5.1232    1.0000 </r>
       <r>    5.7708    1.0000 </r>
       <r>    6.0357    0.0000 </r>
       <r>    6.0924    0.0000 </r>
       <r>    6.2744    0.0000 </r>
       <r>    6.4182    0.0000 </r>
       <r>    6.7218    0.0000 </r>
       <r>    6.9299    0.0000 </r>
       <r>    7.0967    0.0000 </r>
       <r>    7.3846    0.0000 </r>
       <r>    7.4792    0.0000 </r>
       <r>    7.5163    0.0000 </r>
      </set>
      <set comment="kpoint 9">
       <r>  -57.1714    1.0000 </r>
       <r>  -57.1698    1.0000 </r>
       <r>  -57.1648    1.0000 </r>
       <r>  -57.1642    1.0000 </r>
       <r>  -30.7213    1.0000 </r>
       <r>  -30.6995    1.0000 </r>
       <r>  -30.5860    1.0000 </r>
       <r>  -30.5801    1.0000 </r>
       <r>  -30.5761    1.0000 </r>
       <r>  -30.5744    1.0000 </r>
       <r>  -30.5657    1.0000 </r>
       <r>  -30.5629    1.0000 </r>
       <r>  -30.5581    1.0000 </r>
       <r>  -30.5521    1.0000 </r>
       <r>  -30.4635    1.0000 </r>
       <r>  -30.4614    1.0000 </r>
       <r>   -5.7015    1.0000 </r>
       <r>   -3.8519    1.0000 </r>
       <r>   -2.3352    1.0000 </r>
       <r>   -1.6304    1.0000 </r>
       <r>   -1.2400    1.0000 </r>
       <r>    0.0834    1.0000 </r>
       <r>    1.0775    1.0000 </r>
       <r>    1.4953    1.0000 </r>
       <r>    2.1887    1.0000 </r>
       <r>    3.0022    1.0000 </r>
       <r>    3.0503    1.0000 </r>
       <r>    3.1223    1.0000 </r>
       <r>    3.1780    1.0000 </r>
       <r>    3.2501    1.0000 </r>
       <r>    3.8738    1.0000 </r>
       <r>    4.4591    1.0000 </r>
       <r>    4.5368    1.0000 </r>
       <r>    4.6970    1.0000 </r>
       <r>    4.8893    1.0000 </r>
       <r>    5.1203    1.0000 </r>
       <r>    5.1787    1.0000 </r>
       <r>    6.0493    0.0000 </r>
       <r>    6.1104    0.0000 </r>
       <r>    6.1406    0.0000 </r>
       <r>    6.2747    0.0000 </r>
       <r>    6.5448    0.0000 </r>
       <r>    6.6253    0.0000 </r>
       <r>    6.8204    0.0000 </r>
       <r>    7.0273    0.0000 </r>
       <r>    7.4752    0.0000 </r>
       <r>    7.6035    0.0000 </r>
       <r>    7.6205    0.0000 </r>
      </set>
      <set comment="kpoint 10">
       <r>  -57.1718    1.0000 </r>
       <r>  -57.1697    1.0000 </r>
       <r>  -57.1648    1.0000 </r>
       <r>  -57.1639    1.0000 </r>
       <r>  -30.7212    1.0000 </r>
       <r>  -30.6987    1.0000 </r>
       <r>  -30.5859    1.0000 </r>
       <r>  -30.5850    1.0000 </r>
       <r>  -30.5748    1.0000 </r>
       <r>  -30.5734    1.0000 </r>
       <r>  -30.5672    1.0000 </r>
       <r>  -30.5651    1.0000 </r>
       <r>  -30.5524    1.0000 </r>
       <r>  -30.5520    1.0000 </r>
       <r>  -30.4643    1.0000 </r>
       <r>  -30.4611    1.0000 </r>
       <r>   -5.9288    1.0000 </r>
       <r>   -3.5438    1.0000 </r>
       <r>   -2.2192    1.0000 </r>
       <r>   -1.5545    1.0000 </r>
       <r>   -1.3411    1.0000 </r>
       <r>    0.5693    1.0000 </r>
       <r>    1.1075    1.0000 </r>
       <r>    1.2859    1.0000 </r>
       <r>    2.0050    1.0000 </r>
       <r>    2.5888    1.0000 </r>
       <r>    2.6276    1.0000 </r>
       <r>    3.0479    1.0000 </r>
       <r>    3.0932    1.0000 </r>
       <r>    3.4735    1.0000 </r>
       <r>    4.0971    1.0000 </r>
       <r>    4.3439    1.0000 </r>
       <r>    4.3631    1.0000 </r>
       <r>    4.5496    1.0000 </r>
       <r>    4.8775    1.0000 </r>
       <r>    5.4191    1.0000 </r>
       <r>    5.6203    1.0000 </r>
       <r>    6.1251    0.0000 </r>
       <r>    6.1485    0.0000 </r>
       <r>    6.2010    0.0000 </r>
       <r>    6.3788    0.0000 </r>
       <r>    6.4550    0.0000 </r>
       <r>    6.5141    0.0000 </r>
       <r>    6.9798    0.0000 </r>
       <r>    7.2408    0.0000 </r>
       <r>    7.5179    0.0000 </r>
       <r>    7.7032    0.0000 </r>
       <r>    8.1764    0.0000 </r>
      </set>
      <set comment="kpoint 11">
       <r>  -57.1704    1.0000 </r>
       <r>  -57.1704    1.0000 </r>
       <r>  -57.1648    1.0000 </r>
       <r>  -57.1645    1.0000 </r>
       <r>  -30.7141    1.0000 </r>
       <r>  -30.7077    1.0000 </r>
       <r>  -30.5831    1.0000 </r>
       <r>  -30.5810    1.0000 </r>
       <r>  -30.5777    1.0000 </r>
       <r>  -30.5758    1.0000 </r>
       <r>  -30.5628    1.0000 </r>
       <r>  -30.5590    1.0000 </r>
       <r>  -30.5587    1.0000 </r>
       <r>  -30.5565    1.0000 </r>
       <r>  -30.4627    1.0000 </r>
       <r>  -30.4620    1.0000 </r>
       <r>   -5.0783    1.0000 </r>
       <r>   -4.5269    1.0000 </r>
       <r>   -2.6623    1.0000 </r>
       <r>   -2.0749    1.0000 </r>
       <r>   -0.6818    1.0000 </r>
       <r>    0.5915    1.0000 </r>
       <r>    0.7316    1.0000 </r>
       <r>    1.6686    1.0000 </r>
       <r>    2.0663    1.0000 </r>
       <r>    2.3515    1.0000 </r>
       <r>    2.9513    1.0000 </r>
       <r>    3.1185    1.0000 </r>
       <r>    3.1450    1.0000 </r>
       <r>    3.6766    1.0000 </r>
       <r>    3.8284    1.0000 </r>
       <r>    4.7805    1.0000 </r>
       <r>    4.8034    1.0000 </r>
       <r>    5.0072    1.0000 </r>
       <r>    5.0287    1.0000 </r>
       <r>    5.1877    1.0000 </r>
       <r>    5.2208    1.0000 </r>
       <r>    5.4832    1.0000 </r>
       <r>    5.9565    0.1124 </r>
       <r>    5.9713    0.0119 </r>
       <r>    6.2885    0.0000 </r>
       <r>    6.3266    0.0000 </r>
       <r>    6.6088    0.0000 </r>
       <r>    6.9496    0.0000 </r>
       <r>    7.3662    0.0000 </r>
       <r>    7.4910    0.0000 </r>
       <r>    7.8112    0.0000 </r>
       <r>    8.0022    0.0000 </r>
      </set>
      <set comment="kpoint 12">
       <r>  -57.1707    1.0000 </r>
       <r>  -57.1700    1.0000 </r>
       <r>  -57.1648    1.0000 </r>
       <r>  -57.1647    1.0000 </r>
       <r>  -30.7200    1.0000 </r>
       <r>  -30.7026    1.0000 </r>
       <r>  -30.5828    1.0000 </r>
       <r>  -30.5769    1.0000 </r>
       <r>  -30.5756    1.0000 </r>
       <r>  -30.5720    1.0000 </r>
       <r>  -30.5669    1.0000 </r>
       <r>  -30.5626    1.0000 </r>
       <r>  -30.5610    1.0000 </r>
       <r>  -30.5565    1.0000 </r>
       <r>  -30.4625    1.0000 </r>
       <r>  -30.4617    1.0000 </r>
       <r>   -4.8834    1.0000 </r>
       <r>   -4.5974    1.0000 </r>
       <r>   -2.7109    1.0000 </r>
       <r>   -2.4720    1.0000 </r>
       <r>   -0.1873    1.0000 </r>
       <r>    0.0986    1.0000 </r>
       <r>    1.0073    1.0000 </r>
       <r>    1.6351    1.0000 </r>
       <r>    1.9947    1.0000 </r>
       <r>    2.6448    1.0000 </r>
       <r>    2.8190    1.0000 </r>
       <r>    3.1022    1.0000 </r>
       <r>    3.2737    1.0000 </r>
       <r>    3.7103    1.0000 </r>
       <r>    4.1856    1.0000 </r>
       <r>    4.3555    1.0000 </r>
       <r>    4.7239    1.0000 </r>
       <r>    4.8255    1.0000 </r>
       <r>    4.9840    1.0000 </r>
       <r>    5.1266    1.0000 </r>
       <r>    5.1612    1.0000 </r>
       <r>    5.5927    1.0000 </r>
       <r>    5.9334    0.6654 </r>
       <r>    6.0279    0.0000 </r>
       <r>    6.3151    0.0000 </r>
       <r>    6.4244    0.0000 </r>
       <r>    6.7367    0.0000 </r>
       <r>    6.8359    0.0000 </r>
       <r>    7.3647    0.0000 </r>
       <r>    7.4516    0.0000 </r>
       <r>    7.7766    0.0000 </r>
       <r>    8.0298    0.0000 </r>
      </set>
      <set comment="kpoint 13">
       <r>  -57.1710    1.0000 </r>
       <r>  -57.1698    1.0000 </r>
       <r>  -57.1647    1.0000 </r>
       <r>  -57.1646    1.0000 </r>
       <r>  -30.7236    1.0000 </r>
       <r>  -30.6990    1.0000 </r>
       <r>  -30.5823    1.0000 </r>
       <r>  -30.5750    1.0000 </r>
       <r>  -30.5739    1.0000 </r>
       <r>  -30.5720    1.0000 </r>
       <r>  -30.5681    1.0000 </r>
       <r>  -30.5642    1.0000 </r>
       <r>  -30.5624    1.0000 </r>
       <r>  -30.5566    1.0000 </r>
       <r>  -30.4625    1.0000 </r>
       <r>  -30.4616    1.0000 </r>
       <r>   -5.2612    1.0000 </r>
       <r>   -4.1029    1.0000 </r>
       <r>   -2.7356    1.0000 </r>
       <r>   -2.4855    1.0000 </r>
       <r>   -0.3328    1.0000 </r>
       <r>    0.2896    1.0000 </r>
       <r>    0.8207    1.0000 </r>
       <r>    1.4874    1.0000 </r>
       <r>    2.0470    1.0000 </r>
       <r>    2.9194    1.0000 </r>
       <r>    3.1064    1.0000 </r>
       <r>    3.1162    1.0000 </r>
       <r>    3.4730    1.0000 </r>
       <r>    3.6161    1.0000 </r>
       <r>    3.9798    1.0000 </r>
       <r>    4.4481    1.0000 </r>
       <r>    4.5059    1.0000 </r>
       <r>    4.6879    1.0000 </r>
       <r>    4.7562    1.0000 </r>
       <r>    4.8994    1.0000 </r>
       <r>    5.0971    1.0000 </r>
       <r>    5.9395    0.4968 </r>
       <r>    5.9447    0.3529 </r>
       <r>    6.0704    0.0000 </r>
       <r>    6.2629    0.0000 </r>
       <r>    6.4812    0.0000 </r>
       <r>    6.8752    0.0000 </r>
       <r>    6.9761    0.0000 </r>
       <r>    7.2408    0.0000 </r>
       <r>    7.2561    0.0000 </r>
       <r>    7.7609    0.0000 </r>
       <r>    8.0758    0.0000 </r>
      </set>
      <set comment="kpoint 14">
       <r>  -57.1713    1.0000 </r>
       <r>  -57.1697    1.0000 </r>
       <r>  -57.1648    1.0000 </r>
       <r>  -57.1644    1.0000 </r>
       <r>  -30.7238    1.0000 </r>
       <r>  -30.6980    1.0000 </r>
       <r>  -30.5815    1.0000 </r>
       <r>  -30.5811    1.0000 </r>
       <r>  -30.5727    1.0000 </r>
       <r>  -30.5726    1.0000 </r>
       <r>  -30.5688    1.0000 </r>
       <r>  -30.5636    1.0000 </r>
       <r>  -30.5579    1.0000 </r>
       <r>  -30.5567    1.0000 </r>
       <r>  -30.4630    1.0000 </r>
       <r>  -30.4614    1.0000 </r>
       <r>   -5.5563    1.0000 </r>
       <r>   -3.8041    1.0000 </r>
       <r>   -2.7229    1.0000 </r>
       <r>   -2.0884    1.0000 </r>
       <r>   -0.7531    1.0000 </r>
       <r>    0.5889    1.0000 </r>
       <r>    0.8184    1.0000 </r>
       <r>    1.0513    1.0000 </r>
       <r>    2.1130    1.0000 </r>
       <r>    3.1577    1.0000 </r>
       <r>    3.1657    1.0000 </r>
       <r>    3.3056    1.0000 </r>
       <r>    3.4349    1.0000 </r>
       <r>    3.7099    1.0000 </r>
       <r>    3.7690    1.0000 </r>
       <r>    4.3537    1.0000 </r>
       <r>    4.4899    1.0000 </r>
       <r>    4.6261    1.0000 </r>
       <r>    4.6536    1.0000 </r>
       <r>    4.8878    1.0000 </r>
       <r>    4.9772    1.0000 </r>
       <r>    6.0106    0.0000 </r>
       <r>    6.0788    0.0000 </r>
       <r>    6.0998    0.0000 </r>
       <r>    6.2754    0.0000 </r>
       <r>    6.5737    0.0000 </r>
       <r>    6.7498    0.0000 </r>
       <r>    6.9568    0.0000 </r>
       <r>    7.1123    0.0000 </r>
       <r>    7.5715    0.0000 </r>
       <r>    7.8303    0.0000 </r>
       <r>    8.0188    0.0000 </r>
      </set>
      <set comment="kpoint 15">
       <r>  -57.1708    1.0000 </r>
       <r>  -57.1698    1.0000 </r>
       <r>  -57.1648    1.0000 </r>
       <r>  -57.1647    1.0000 </r>
       <r>  -30.7246    1.0000 </r>
       <r>  -30.6988    1.0000 </r>
       <r>  -30.5768    1.0000 </r>
       <r>  -30.5767    1.0000 </r>
       <r>  -30.5720    1.0000 </r>
       <r>  -30.5716    1.0000 </r>
       <r>  -30.5694    1.0000 </r>
       <r>  -30.5640    1.0000 </r>
       <r>  -30.5622    1.0000 </r>
       <r>  -30.5615    1.0000 </r>
       <r>  -30.4620    1.0000 </r>
       <r>  -30.4616    1.0000 </r>
       <r>   -4.9716    1.0000 </r>
       <r>   -4.1953    1.0000 </r>
       <r>   -2.9550    1.0000 </r>
       <r>   -2.8826    1.0000 </r>
       <r>    0.2689    1.0000 </r>
       <r>    0.4567    1.0000 </r>
       <r>    0.7008    1.0000 </r>
       <r>    1.8255    1.0000 </r>
       <r>    1.9548    1.0000 </r>
       <r>    2.0767    1.0000 </r>
       <r>    2.9761    1.0000 </r>
       <r>    3.0924    1.0000 </r>
       <r>    3.3161    1.0000 </r>
       <r>    3.6206    1.0000 </r>
       <r>    3.8866    1.0000 </r>
       <r>    4.5474    1.0000 </r>
       <r>    4.7257    1.0000 </r>
       <r>    4.7992    1.0000 </r>
       <r>    4.8560    1.0000 </r>
       <r>    5.2015    1.0000 </r>
       <r>    5.2832    1.0000 </r>
       <r>    5.8091    1.0000 </r>
       <r>    5.8327    1.0000 </r>
       <r>    6.0642    0.0000 </r>
       <r>    6.2959    0.0000 </r>
       <r>    6.4851    0.0000 </r>
       <r>    6.7449    0.0000 </r>
       <r>    6.9804    0.0000 </r>
       <r>    7.2607    0.0000 </r>
       <r>    7.5146    0.0000 </r>
       <r>    7.8173    0.0000 </r>
       <r>    7.9081    0.0000 </r>
      </set>
      <set comment="kpoint 16">
       <r>  -57.1709    1.0000 </r>
       <r>  -57.1698    1.0000 </r>
       <r>  -57.1648    1.0000 </r>
       <r>  -57.1647    1.0000 </r>
       <r>  -30.7259    1.0000 </r>
       <r>  -30.6974    1.0000 </r>
       <r>  -30.5765    1.0000 </r>
       <r>  -30.5754    1.0000 </r>
       <r>  -30.5719    1.0000 </r>
       <r>  -30.5710    1.0000 </r>
       <r>  -30.5701    1.0000 </r>
       <r>  -30.5649    1.0000 </r>
       <r>  -30.5624    1.0000 </r>
       <r>  -30.5621    1.0000 </r>
       <r>  -30.4620    1.0000 </r>
       <r>  -30.4616    1.0000 </r>
       <r>   -5.1181    1.0000 </r>
       <r>   -3.9547    1.0000 </r>
       <r>   -3.0350    1.0000 </r>
       <r>   -2.8600    1.0000 </r>
       <r>    0.0659    1.0000 </r>
       <r>    0.6257    1.0000 </r>
       <r>    0.8877    1.0000 </r>
       <r>    1.2548    1.0000 </r>
       <r>    2.0945    1.0000 </r>
       <r>    2.4135    1.0000 </r>
       <r>    3.1928    1.0000 </r>
       <r>    3.2024    1.0000 </r>
       <r>    3.2402    1.0000 </r>
       <r>    3.4019    1.0000 </r>
       <r>    3.8555    1.0000 </r>
       <r>    4.6391    1.0000 </r>
       <r>    4.6797    1.0000 </r>
       <r>    4.7605    1.0000 </r>
       <r>    4.7789    1.0000 </r>
       <r>    5.0329    1.0000 </r>
       <r>    5.2150    1.0000 </r>
       <r>    5.8261    1.0000 </r>
       <r>    6.0001    0.0000 </r>
       <r>    6.0626    0.0000 </r>
       <r>    6.2337    0.0000 </r>
       <r>    6.4947    0.0000 </r>
       <r>    6.8261    0.0000 </r>
       <r>    7.0635    0.0000 </r>
       <r>    7.2288    0.0000 </r>
       <r>    7.5077    0.0000 </r>
       <r>    7.8256    0.0000 </r>
       <r>    7.8415    0.0000 </r>
      </set>
      <set comment="kpoint 17">
       <r>  -57.1718    1.0000 </r>
       <r>  -57.1697    1.0000 </r>
       <r>  -57.1648    1.0000 </r>
       <r>  -57.1639    1.0000 </r>
       <r>  -30.7209    1.0000 </r>
       <r>  -30.6987    1.0000 </r>
       <r>  -30.5867    1.0000 </r>
       <r>  -30.5848    1.0000 </r>
       <r>  -30.5754    1.0000 </r>
       <r>  -30.5730    1.0000 </r>
       <r>  -30.5664    1.0000 </r>
       <r>  -30.5659    1.0000 </r>
       <r>  -30.5526    1.0000 </r>
       <r>  -30.5510    1.0000 </r>
       <r>  -30.4644    1.0000 </r>
       <r>  -30.4611    1.0000 </r>
       <r>   -5.9601    1.0000 </r>
       <r>   -3.5095    1.0000 </r>
       <r>   -2.1620    1.0000 </r>
       <r>   -1.6297    1.0000 </r>
       <r>   -1.2864    1.0000 </r>
       <r>    0.6375    1.0000 </r>
       <r>    1.1406    1.0000 </r>
       <r>    1.3098    1.0000 </r>
       <r>    1.9564    1.0000 </r>
       <r>    2.4973    1.0000 </r>
       <r>    2.5108    1.0000 </r>
       <r>    3.0344    1.0000 </r>
       <r>    3.0622    1.0000 </r>
       <r>    3.4942    1.0000 </r>
       <r>    4.1384    1.0000 </r>
       <r>    4.3289    1.0000 </r>
       <r>    4.3307    1.0000 </r>
       <r>    4.5339    1.0000 </r>
       <r>    4.8729    1.0000 </r>
       <r>    5.4716    1.0000 </r>
       <r>    5.7429    1.0000 </r>
       <r>    6.1276    0.0000 </r>
       <r>    6.1533    0.0000 </r>
       <r>    6.2189    0.0000 </r>
       <r>    6.3952    0.0000 </r>
       <r>    6.4123    0.0000 </r>
       <r>    6.4879    0.0000 </r>
       <r>    7.0795    0.0000 </r>
       <r>    7.2324    0.0000 </r>
       <r>    7.4870    0.0000 </r>
       <r>    7.7178    0.0000 </r>
       <r>    8.0725    0.0000 </r>
      </set>
      <set comment="kpoint 18">
       <r>  -57.1715    1.0000 </r>
       <r>  -57.1698    1.0000 </r>
       <r>  -57.1648    1.0000 </r>
       <r>  -57.1641    1.0000 </r>
       <r>  -30.7210    1.0000 </r>
       <r>  -30.6996    1.0000 </r>
       <r>  -30.5865    1.0000 </r>
       <r>  -30.5805    1.0000 </r>
       <r>  -30.5769    1.0000 </r>
       <r>  -30.5739    1.0000 </r>
       <r>  -30.5653    1.0000 </r>
       <r>  -30.5632    1.0000 </r>
       <r>  -30.5575    1.0000 </r>
       <r>  -30.5515    1.0000 </r>
       <r>  -30.4637    1.0000 </r>
       <r>  -30.4614    1.0000 </r>
       <r>   -5.7469    1.0000 </r>
       <r>   -3.8128    1.0000 </r>
       <r>   -2.2780    1.0000 </r>
       <r>   -1.5376    1.0000 </r>
       <r>   -1.3397    1.0000 </r>
       <r>    0.0943    1.0000 </r>
       <r>    1.1142    1.0000 </r>
       <r>    1.5090    1.0000 </r>
       <r>    2.1945    1.0000 </r>
       <r>    2.9052    1.0000 </r>
       <r>    2.9192    1.0000 </r>
       <r>    3.1091    1.0000 </r>
       <r>    3.1881    1.0000 </r>
       <r>    3.2028    1.0000 </r>
       <r>    3.9267    1.0000 </r>
       <r>    4.4448    1.0000 </r>
       <r>    4.5270    1.0000 </r>
       <r>    4.6888    1.0000 </r>
       <r>    4.8837    1.0000 </r>
       <r>    5.2327    1.0000 </r>
       <r>    5.2604    1.0000 </r>
       <r>    6.0572    0.0000 </r>
       <r>    6.1167    0.0000 </r>
       <r>    6.1625    0.0000 </r>
       <r>    6.2839    0.0000 </r>
       <r>    6.5496    0.0000 </r>
       <r>    6.5955    0.0000 </r>
       <r>    6.8113    0.0000 </r>
       <r>    7.0145    0.0000 </r>
       <r>    7.4363    0.0000 </r>
       <r>    7.5710    0.0000 </r>
       <r>    7.5833    0.0000 </r>
      </set>
      <set comment="kpoint 19">
       <r>  -57.1710    1.0000 </r>
       <r>  -57.1700    1.0000 </r>
       <r>  -57.1647    1.0000 </r>
       <r>  -57.1645    1.0000 </r>
       <r>  -30.7186    1.0000 </r>
       <r>  -30.7028    1.0000 </r>
       <r>  -30.5865    1.0000 </r>
       <r>  -30.5796    1.0000 </r>
       <r>  -30.5743    1.0000 </r>
       <r>  -30.5737    1.0000 </r>
       <r>  -30.5648    1.0000 </r>
       <r>  -30.5642    1.0000 </r>
       <r>  -30.5597    1.0000 </r>
       <r>  -30.5521    1.0000 </r>
       <r>  -30.4630    1.0000 </r>
       <r>  -30.4618    1.0000 </r>
       <r>   -5.3611    1.0000 </r>
       <r>   -4.3496    1.0000 </r>
       <r>   -2.1703    1.0000 </r>
       <r>   -1.8433    1.0000 </r>
       <r>   -1.0283    1.0000 </r>
       <r>   -0.4874    1.0000 </r>
       <r>    1.2869    1.0000 </r>
       <r>    1.9060    1.0000 </r>
       <r>    2.2404    1.0000 </r>
       <r>    2.7228    1.0000 </r>
       <r>    3.1269    1.0000 </r>
       <r>    3.1825    1.0000 </r>
       <r>    3.2924    1.0000 </r>
       <r>    3.5830    1.0000 </r>
       <r>    3.6307    1.0000 </r>
       <r>    4.1921    1.0000 </r>
       <r>    4.7293    1.0000 </r>
       <r>    4.9149    1.0000 </r>
       <r>    4.9484    1.0000 </r>
       <r>    5.0453    1.0000 </r>
       <r>    5.1415    1.0000 </r>
       <r>    5.7904    1.0000 </r>
       <r>    6.0423    0.0000 </r>
       <r>    6.1086    0.0000 </r>
       <r>    6.2713    0.0000 </r>
       <r>    6.4366    0.0000 </r>
       <r>    6.7020    0.0000 </r>
       <r>    6.9460    0.0000 </r>
       <r>    7.0532    0.0000 </r>
       <r>    7.3904    0.0000 </r>
       <r>    7.4353    0.0000 </r>
       <r>    7.4601    0.0000 </r>
      </set>
      <set comment="kpoint 20">
       <r>  -57.1705    1.0000 </r>
       <r>  -57.1703    1.0000 </r>
       <r>  -57.1647    1.0000 </r>
       <r>  -57.1646    1.0000 </r>
       <r>  -30.7138    1.0000 </r>
       <r>  -30.7078    1.0000 </r>
       <r>  -30.5857    1.0000 </r>
       <r>  -30.5818    1.0000 </r>
       <r>  -30.5758    1.0000 </r>
       <r>  -30.5724    1.0000 </r>
       <r>  -30.5655    1.0000 </r>
       <r>  -30.5632    1.0000 </r>
       <r>  -30.5567    1.0000 </r>
       <r>  -30.5536    1.0000 </r>
       <r>  -30.4627    1.0000 </r>
       <r>  -30.4621    1.0000 </r>
       <r>   -4.9291    1.0000 </r>
       <r>   -4.8508    1.0000 </r>
       <r>   -2.1122    1.0000 </r>
       <r>   -1.9228    1.0000 </r>
       <r>   -0.9284    1.0000 </r>
       <r>   -0.6222    1.0000 </r>
       <r>    1.5859    1.0000 </r>
       <r>    1.9647    1.0000 </r>
       <r>    2.1774    1.0000 </r>
       <r>    2.3384    1.0000 </r>
       <r>    3.1509    1.0000 </r>
       <r>    3.1680    1.0000 </r>
       <r>    3.2645    1.0000 </r>
       <r>    3.5902    1.0000 </r>
       <r>    3.6822    1.0000 </r>
       <r>    4.1678    1.0000 </r>
       <r>    4.8180    1.0000 </r>
       <r>    5.0016    1.0000 </r>
       <r>    5.1164    1.0000 </r>
       <r>    5.2211    1.0000 </r>
       <r>    5.3303    1.0000 </r>
       <r>    5.3887    1.0000 </r>
       <r>    5.9657    0.0309 </r>
       <r>    6.0559    0.0000 </r>
       <r>    6.3504    0.0000 </r>
       <r>    6.3721    0.0000 </r>
       <r>    6.7104    0.0000 </r>
       <r>    6.8228    0.0000 </r>
       <r>    7.2160    0.0000 </r>
       <r>    7.2442    0.0000 </r>
       <r>    7.4056    0.0000 </r>
       <r>    7.5088    0.0000 </r>
      </set>
[...]
       <r>  -57.1646    1.0000 </r>
       <r>  -30.7200    1.0000 </r>
       <r>  -30.6981    1.0000 </r>
       <r>  -30.5941    1.0000 </r>
       <r>  -30.5932    1.0000 </r>
       <r>  -30.5757    1.0000 </r>
       <r>  -30.5739    1.0000 </r>
       <r>  -30.5624    1.0000 </r>
       <r>  -30.5613    1.0000 </r>
       <r>  -30.5479    1.0000 </r>
       <r>  -30.5474    1.0000 </r>
       <r>  -30.4657    1.0000 </r>
       <r>  -30.4612    1.0000 </r>
       <r>   -5.2735    1.0000 </r>
       <r>   -4.5595    1.0000 </r>
       <r>   -1.8394    1.0000 </r>
       <r>   -1.6537    1.0000 </r>
       <r>   -1.0179    1.0000 </r>
       <r>    0.4125    1.0000 </r>
       <r>    0.6271    1.0000 </r>
       <r>    0.6807    1.0000 </r>
       <r>    1.4673    1.0000 </r>
       <r>    2.3908    1.0000 </r>
       <r>    2.7274    1.0000 </r>
       <r>    2.7363    1.0000 </r>
       <r>    3.1354    1.0000 </r>
       <r>    3.9167    1.0000 </r>
       <r>    4.2940    1.0000 </r>
       <r>    4.4604    1.0000 </r>
       <r>    4.8247    1.0000 </r>
       <r>    4.8922    1.0000 </r>
       <r>    5.2259    1.0000 </r>
       <r>    5.3675    1.0000 </r>
       <r>    5.5526    1.0000 </r>
       <r>    6.0168    0.0000 </r>
       <r>    6.0263    0.0000 </r>
       <r>    6.2862    0.0000 </r>
       <r>    6.5937    0.0000 </r>
       <r>    6.6688    0.0000 </r>
       <r>    6.9507    0.0000 </r>
       <r>    6.9553    0.0000 </r>
       <r>    7.3578    0.0000 </r>
       <r>    7.8169    0.0000 </r>
       <r>    7.8754    0.0000 </r>
       <r>    8.1430    0.0000 </r>
      </set>
      <set comment="kpoint 116">
       <r>  -57.1708    1.0000 </r>
       <r>  -57.1698    1.0000 </r>
       <r>  -57.1649    1.0000 </r>
       <r>  -57.1647    1.0000 </r>
       <r>  -30.7211    1.0000 </r>
       <r>  -30.6969    1.0000 </r>
       <r>  -30.5947    1.0000 </r>
       <r>  -30.5938    1.0000 </r>
       <r>  -30.5746    1.0000 </r>
       <r>  -30.5725    1.0000 </r>
       <r>  -30.5631    1.0000 </r>
       <r>  -30.5629    1.0000 </r>
       <r>  -30.5473    1.0000 </r>
       <r>  -30.5469    1.0000 </r>
       <r>  -30.4660    1.0000 </r>
       <r>  -30.4610    1.0000 </r>
       <r>   -5.2248    1.0000 </r>
       <r>   -4.6046    1.0000 </r>
       <r>   -1.8261    1.0000 </r>
       <r>   -1.6479    1.0000 </r>
       <r>   -1.0092    1.0000 </r>
       <r>    0.3323    1.0000 </r>
       <r>    0.5998    1.0000 </r>
       <r>    0.6347    1.0000 </r>
       <r>    1.4523    1.0000 </r>
       <r>    2.3918    1.0000 </r>
       <r>    2.7153    1.0000 </r>
       <r>    2.7231    1.0000 </r>
       <r>    3.2631    1.0000 </r>
       <r>    4.0395    1.0000 </r>
       <r>    4.2504    1.0000 </r>
       <r>    4.4422    1.0000 </r>
       <r>    4.6909    1.0000 </r>
       <r>    4.9264    1.0000 </r>
       <r>    5.2309    1.0000 </r>
       <r>    5.3790    1.0000 </r>
       <r>    5.5313    1.0000 </r>
       <r>    5.9876    0.0003 </r>
       <r>    6.0490    0.0000 </r>
       <r>    6.3000    0.0000 </r>
       <r>    6.6526    0.0000 </r>
       <r>    6.6624    0.0000 </r>
       <r>    6.9929    0.0000 </r>
       <r>    7.0126    0.0000 </r>
       <r>    7.6846    0.0000 </r>
       <r>    7.9231    0.0000 </r>
       <r>    8.0027    0.0000 </r>
       <r>    8.1963    0.0000 </r>
      </set>
     </set>
    </set>
   </array>
  </eigenvalues>
  <separator name="orbital magnetization" >
   <v name="MAGDIPOLOUT">      0.00000000      0.00000000      0.00000000</v>
  </separator>
  <dos>
   <i name="efermi">      5.93936495 </i>
   <total>
    <array>
     <dimension dim="1">gridpoints</dimension>
     <dimension dim="2">spin</dimension>
     <field>energy</field>
     <field>total</field>
     <field>integrated</field>
     <set>
      <set comment="spin 1">
       <r>   -60.4680     0.0000     0.0000 </r>
       <r>   -60.2263     0.0000     0.0000 </r>
       <r>   -59.9846     0.0000     0.0000 </r>
       <r>   -59.7429     0.0000     0.0000 </r>
       <r>   -59.5012     0.0000     0.0000 </r>
       <r>   -59.2594     0.0000     0.0000 </r>
       <r>   -59.0177     0.0000     0.0000 </r>
       <r>   -58.7760     0.0000     0.0000 </r>
       <r>   -58.5343     0.0000     0.0000 </r>
       <r>   -58.2926     0.0000     0.0000 </r>
       <r>   -58.0509     0.0000     0.0000 </r>
       <r>   -57.8092     0.0000     0.0000 </r>
       <r>   -57.5675     0.0000     0.0000 </r>
       <r>   -57.3258     0.0000     0.0000 </r>
       <r>   -57.0840    33.0972     8.0000 </r>
       <r>   -56.8423     0.0000     8.0000 </r>
       <r>   -56.6006     0.0000     8.0000 </r>
       <r>   -56.3589     0.0000     8.0000 </r>
       <r>   -56.1172     0.0000     8.0000 </r>
       <r>   -55.8755     0.0000     8.0000 </r>
       <r>   -55.6338     0.0000     8.0000 </r>
       <r>   -55.3921     0.0000     8.0000 </r>
       <r>   -55.1503     0.0000     8.0000 </r>
       <r>   -54.9086     0.0000     8.0000 </r>
       <r>   -54.6669     0.0000     8.0000 </r>
       <r>   -54.4252     0.0000     8.0000 </r>
       <r>   -54.1835     0.0000     8.0000 </r>
       <r>   -53.9418     0.0000     8.0000 </r>
       <r>   -53.7001     0.0000     8.0000 </r>
       <r>   -53.4584     0.0000     8.0000 </r>
       <r>   -53.2166     0.0000     8.0000 </r>
       <r>   -52.9749     0.0000     8.0000 </r>
       <r>   -52.7332     0.0000     8.0000 </r>
       <r>   -52.4915     0.0000     8.0000 </r>
       <r>   -52.2498     0.0000     8.0000 </r>
       <r>   -52.0081     0.0000     8.0000 </r>
       <r>   -51.7664     0.0000     8.0000 </r>
       <r>   -51.5247     0.0000     8.0000 </r>
       <r>   -51.2829     0.0000     8.0000 </r>
       <r>   -51.0412     0.0000     8.0000 </r>
       <r>   -50.7995     0.0000     8.0000 </r>
       <r>   -50.5578     0.0000     8.0000 </r>
       <r>   -50.3161     0.0000     8.0000 </r>
       <r>   -50.0744     0.0000     8.0000 </r>
       <r>   -49.8327     0.0000     8.0000 </r>
       <r>   -49.5910     0.0000     8.0000 </r>
       <r>   -49.3492     0.0000     8.0000 </r>
       <r>   -49.1075     0.0000     8.0000 </r>
       <r>   -48.8658     0.0000     8.0000 </r>
       <r>   -48.6241     0.0000     8.0000 </r>
       <r>   -48.3824     0.0000     8.0000 </r>
       <r>   -48.1407     0.0000     8.0000 </r>
       <r>   -47.8990     0.0000     8.0000 </r>
       <r>   -47.6573     0.0000     8.0000 </r>
       <r>   -47.4156     0.0000     8.0000 </r>
       <r>   -47.1738     0.0000     8.0000 </r>
       <r>   -46.9321     0.0000     8.0000 </r>
       <r>   -46.6904     0.0000     8.0000 </r>
       <r>   -46.4487     0.0000     8.0000 </r>
       <r>   -46.2070     0.0000     8.0000 </r>
       <r>   -45.9653     0.0000     8.0000 </r>
       <r>   -45.7236     0.0000     8.0000 </r>
       <r>   -45.4819     0.0000     8.0000 </r>
       <r>   -45.2401     0.0000     8.0000 </r>
       <r>   -44.9984     0.0000     8.0000 </r>
       <r>   -44.7567     0.0000     8.0000 </r>
       <r>   -44.5150     0.0000     8.0000 </r>
       <r>   -44.2733     0.0000     8.0000 </r>
       <r>   -44.0316     0.0000     8.0000 </r>
       <r>   -43.7899     0.0000     8.0000 </r>
       <r>   -43.5482     0.0000     8.0000 </r>
       <r>   -43.3064     0.0000     8.0000 </r>
       <r>   -43.0647     0.0000     8.0000 </r>
       <r>   -42.8230     0.0000     8.0000 </r>
       <r>   -42.5813     0.0000     8.0000 </r>
       <r>   -42.3396     0.0000     8.0000 </r>
       <r>   -42.0979     0.0000     8.0000 </r>
       <r>   -41.8562     0.0000     8.0000 </r>
       <r>   -41.6145     0.0000     8.0000 </r>
       <r>   -41.3727     0.0000     8.0000 </r>
       <r>   -41.1310     0.0000     8.0000 </r>
       <r>   -40.8893     0.0000     8.0000 </r>
       <r>   -40.6476     0.0000     8.0000 </r>
       <r>   -40.4059     0.0000     8.0000 </r>
       <r>   -40.1642     0.0000     8.0000 </r>
       <r>   -39.9225     0.0000     8.0000 </r>
       <r>   -39.6808     0.0000     8.0000 </r>
       <r>   -39.4391     0.0000     8.0000 </r>
       <r>   -39.1973     0.0000     8.0000 </r>
       <r>   -38.9556     0.0000     8.0000 </r>
       <r>   -38.7139     0.0000     8.0000 </r>
       <r>   -38.4722     0.0000     8.0000 </r>
       <r>   -38.2305     0.0000     8.0000 </r>
       <r>   -37.9888     0.0000     8.0000 </r>
       <r>   -37.7471     0.0000     8.0000 </r>
       <r>   -37.5054     0.0000     8.0000 </r>
       <r>   -37.2636     0.0000     8.0000 </r>
       <r>   -37.0219     0.0000     8.0000 </r>
       <r>   -36.7802     0.0000     8.0000 </r>
       <r>   -36.5385     0.0000     8.0000 </r>
       <r>   -36.2968     0.0000     8.0000 </r>
       <r>   -36.0551     0.0000     8.0000 </r>
       <r>   -35.8134     0.0000     8.0000 </r>
       <r>   -35.5717     0.0000     8.0000 </r>
       <r>   -35.3299     0.0000     8.0000 </r>
       <r>   -35.0882     0.0000     8.0000 </r>
       <r>   -34.8465     0.0000     8.0000 </r>
       <r>   -34.6048     0.0000     8.0000 </r>
       <r>   -34.3631     0.0000     8.0000 </r>
       <r>   -34.1214     0.0000     8.0000 </r>
       <r>   -33.8797     0.0000     8.0000 </r>
       <r>   -33.6380     0.0000     8.0000 </r>
       <r>   -33.3962     0.0000     8.0000 </r>
       <r>   -33.1545     0.0000     8.0000 </r>
       <r>   -32.9128     0.0000     8.0000 </r>
       <r>   -32.6711     0.0000     8.0000 </r>
       <r>   -32.4294     0.0000     8.0000 </r>
       <r>   -32.1877     0.0000     8.0000 </r>
       <r>   -31.9460     0.0000     8.0000 </r>
       <r>   -31.7043     0.0000     8.0000 </r>
       <r>   -31.4625     0.0000     8.0000 </r>
       <r>   -31.2208     0.0000     8.0000 </r>
       <r>   -30.9791     0.0000     8.0000 </r>
       <r>   -30.7374     0.9171     8.2217 </r>
       <r>   -30.4957    66.3524    28.0382 </r>
       <r>   -30.2540     0.0000    32.0000 </r>
       <r>   -30.0123     0.0000    32.0000 </r>
       <r>   -29.7706     0.0000    32.0000 </r>
       <r>   -29.5289     0.0000    32.0000 </r>
       <r>   -29.2871     0.0000    32.0000 </r>
       <r>   -29.0454     0.0000    32.0000 </r>
       <r>   -28.8037     0.0000    32.0000 </r>
       <r>   -28.5620     0.0000    32.0000 </r>
       <r>   -28.3203     0.0000    32.0000 </r>
       <r>   -28.0786     0.0000    32.0000 </r>
       <r>   -27.8369     0.0000    32.0000 </r>
       <r>   -27.5952     0.0000    32.0000 </r>
       <r>   -27.3534     0.0000    32.0000 </r>
       <r>   -27.1117     0.0000    32.0000 </r>
       <r>   -26.8700     0.0000    32.0000 </r>
       <r>   -26.6283     0.0000    32.0000 </r>
       <r>   -26.3866     0.0000    32.0000 </r>
       <r>   -26.1449     0.0000    32.0000 </r>
       <r>   -25.9032     0.0000    32.0000 </r>
       <r>   -25.6615     0.0000    32.0000 </r>
       <r>   -25.4197     0.0000    32.0000 </r>
       <r>   -25.1780     0.0000    32.0000 </r>
       <r>   -24.9363     0.0000    32.0000 </r>
       <r>   -24.6946     0.0000    32.0000 </r>
       <r>   -24.4529     0.0000    32.0000 </r>
       <r>   -24.2112     0.0000    32.0000 </r>
       <r>   -23.9695     0.0000    32.0000 </r>
       <r>   -23.7278     0.0000    32.0000 </r>
       <r>   -23.4860     0.0000    32.0000 </r>
       <r>   -23.2443     0.0000    32.0000 </r>
       <r>   -23.0026     0.0000    32.0000 </r>
       <r>   -22.7609     0.0000    32.0000 </r>
       <r>   -22.5192     0.0000    32.0000 </r>
       <r>   -22.2775     0.0000    32.0000 </r>
       <r>   -22.0358     0.0000    32.0000 </r>
       <r>   -21.7941     0.0000    32.0000 </r>
       <r>   -21.5523     0.0000    32.0000 </r>
       <r>   -21.3106     0.0000    32.0000 </r>
       <r>   -21.0689     0.0000    32.0000 </r>
       <r>   -20.8272     0.0000    32.0000 </r>
       <r>   -20.5855     0.0000    32.0000 </r>
       <r>   -20.3438     0.0000    32.0000 </r>
       <r>   -20.1021     0.0000    32.0000 </r>
       <r>   -19.8604     0.0000    32.0000 </r>
       <r>   -19.6187     0.0000    32.0000 </r>
       <r>   -19.3769     0.0000    32.0000 </r>
       <r>   -19.1352     0.0000    32.0000 </r>
       <r>   -18.8935     0.0000    32.0000 </r>
       <r>   -18.6518     0.0000    32.0000 </r>
       <r>   -18.4101     0.0000    32.0000 </r>
       <r>   -18.1684     0.0000    32.0000 </r>
       <r>   -17.9267     0.0000    32.0000 </r>
       <r>   -17.6850     0.0000    32.0000 </r>
       <r>   -17.4432     0.0000    32.0000 </r>
       <r>   -17.2015     0.0000    32.0000 </r>
       <r>   -16.9598     0.0000    32.0000 </r>
       <r>   -16.7181     0.0000    32.0000 </r>
       <r>   -16.4764     0.0000    32.0000 </r>
       <r>   -16.2347     0.0000    32.0000 </r>
       <r>   -15.9930     0.0000    32.0000 </r>
       <r>   -15.7513     0.0000    32.0000 </r>
       <r>   -15.5095     0.0000    32.0000 </r>
       <r>   -15.2678     0.0000    32.0000 </r>
       <r>   -15.0261     0.0000    32.0000 </r>
       <r>   -14.7844     0.0000    32.0000 </r>
       <r>   -14.5427     0.0000    32.0000 </r>
       <r>   -14.3010     0.0000    32.0000 </r>
       <r>   -14.0593     0.0000    32.0000 </r>
       <r>   -13.8176     0.0000    32.0000 </r>
       <r>   -13.5758     0.0000    32.0000 </r>
       <r>   -13.3341     0.0000    32.0000 </r>
       <r>   -13.0924     0.0000    32.0000 </r>
       <r>   -12.8507     0.0000    32.0000 </r>
       <r>   -12.6090     0.0000    32.0000 </r>
       <r>   -12.3673     0.0000    32.0000 </r>
       <r>   -12.1256     0.0000    32.0000 </r>
       <r>   -11.8839     0.0000    32.0000 </r>
       <r>   -11.6422     0.0000    32.0000 </r>
       <r>   -11.4004     0.0000    32.0000 </r>
       <r>   -11.1587     0.0000    32.0000 </r>
       <r>   -10.9170     0.0000    32.0000 </r>
       <r>   -10.6753     0.0000    32.0000 </r>
       <r>   -10.4336     0.0000    32.0000 </r>
       <r>   -10.1919     0.0000    32.0000 </r>
       <r>    -9.9502     0.0000    32.0000 </r>
       <r>    -9.7085     0.0000    32.0000 </r>
       <r>    -9.4667     0.0000    32.0000 </r>
       <r>    -9.2250     0.0000    32.0000 </r>
       <r>    -8.9833     0.0000    32.0000 </r>
       <r>    -8.7416     0.0000    32.0000 </r>
       <r>    -8.4999     0.0000    32.0000 </r>
       <r>    -8.2582     0.0000    32.0000 </r>
       <r>    -8.0165     0.0000    32.0000 </r>
       <r>    -7.7748     0.0000    32.0000 </r>
       <r>    -7.5330     0.0000    32.0000 </r>
       <r>    -7.2913     0.0000    32.0000 </r>
       <r>    -7.0496     0.0000    32.0000 </r>
       <r>    -6.8079     0.0000    32.0000 </r>
       <r>    -6.5662     0.0000    32.0000 </r>
       <r>    -6.3245     0.0000    32.0000 </r>
       <r>    -6.0828     0.0020    32.0005 </r>
       <r>    -5.8411     0.3496    32.0896 </r>
       <r>    -5.5993     0.6726    32.3207 </r>
       <r>    -5.3576     1.1800    32.6985 </r>
       <r>    -5.1159     1.4822    33.1797 </r>
       <r>    -4.8742     2.0154    33.9106 </r>
       <r>    -4.6325     1.5256    34.4912 </r>
       <r>    -4.3908     1.4913    35.0645 </r>
       <r>    -4.1491     1.1345    35.4681 </r>
       <r>    -3.9074     0.8516    35.7569 </r>
       <r>    -3.6656     0.6145    35.9292 </r>
       <r>    -3.4239     0.2533    35.9949 </r>
       <r>    -3.1822     0.0000    36.0000 </r>
       <r>    -2.9405     0.6191    36.1496 </r>
       <r>    -2.6988     1.2284    36.5724 </r>
       <r>    -2.4571     1.3719    37.0459 </r>
       <r>    -2.2154     1.3303    37.5971 </r>
       <r>    -1.9737     1.9018    38.2352 </r>
       <r>    -1.7320     2.1213    39.0740 </r>
       <r>    -1.4902     2.3924    39.9150 </r>
       <r>    -1.2485     1.8352    40.5763 </r>
       <r>    -1.0068     1.2680    41.0820 </r>
       <r>    -0.7651     0.8714    41.4504 </r>
       <r>    -0.5234     0.5637    41.7230 </r>
       <r>    -0.2817     1.1969    42.2026 </r>
       <r>    -0.0400     0.6948    42.5098 </r>
       <r>     0.2017     2.1411    43.0838 </r>
       <r>     0.4435     1.4002    43.5629 </r>
       <r>     0.6852     2.2498    44.2785 </r>
       <r>     0.9269     1.5547    44.9217 </r>
       <r>     1.1686     2.0708    45.6434 </r>
       <r>     1.4103     2.1422    46.2627 </r>
       <r>     1.6520     2.2892    47.0686 </r>
       <r>     1.8937     2.4928    47.9087 </r>
       <r>     2.1354     4.0178    49.3385 </r>
       <r>     2.3772     2.2775    50.3464 </r>
       <r>     2.6189     2.6182    51.4441 </r>
       <r>     2.8606     4.4787    52.6999 </r>
       <r>     3.1023     7.1469    55.0489 </r>
       <r>     3.3440     7.0380    58.0787 </r>
       <r>     3.5857     3.2386    59.2471 </r>
       <r>     3.8274     3.2677    60.5552 </r>
       <r>     4.0691     2.0751    61.4506 </r>
       <r>     4.3109     2.5686    62.3096 </r>
       <r>     4.5526     3.8387    63.5095 </r>
       <r>     4.7943     8.2151    66.3581 </r>
       <r>     5.0360     7.9995    69.2397 </r>
       <r>     5.2777     7.3862    72.2139 </r>
       <r>     5.5194     4.0003    73.8037 </r>
       <r>     5.7611     2.5959    74.9132 </r>
       <r>     6.0028     6.2764    76.8334 </r>
       <r>     6.2446     8.6369    80.2611 </r>
       <r>     6.4863     6.0401    82.9089 </r>
       <r>     6.7280     5.4031    84.9131 </r>
       <r>     6.9697     7.4073    87.2598 </r>
       <r>     7.2114     5.5404    89.3290 </r>
       <r>     7.4531     7.2367    91.7237 </r>
       <r>     7.6948     4.1864    93.4303 </r>
       <r>     7.9365     4.1214    94.9605 </r>
       <r>     8.1782     2.1770    95.8170 </r>
       <r>     8.4200     0.1875    95.9892 </r>
       <r>     8.6617     0.0000    95.9898 </r>
       <r>     8.9034     0.0422    96.0000 </r>
       <r>     9.1451     0.0000    96.0000 </r>
       <r>     9.3868     0.0000    96.0000 </r>
       <r>     9.6285     0.0000    96.0000 </r>
       <r>     9.8702     0.0000    96.0000 </r>
       <r>    10.1119     0.0000    96.0000 </r>
       <r>    10.3537     0.0000    96.0000 </r>
       <r>    10.5954     0.0000    96.0000 </r>
       <r>    10.8371     0.0000    96.0000 </r>
       <r>    11.0788     0.0000    96.0000 </r>
       <r>    11.3205     0.0000    96.0000 </r>
       <r>    11.5622     0.0000    96.0000 </r>
       <r>    11.8039     0.0000    96.0000 </r>
       <r>    12.0456     0.0000    96.0000 </r>
      </set>
     </set>
    </array>
   </total>
  </dos>
 </calculation>
 <structure name="finalpos" >
  <crystal>
   <varray name="basis" >
    <v>       5.45100188       0.00000000      -3.12346087 </v>
    <v>      -1.83079798       5.13435490      -3.12346087 </v>
    <v>       0.00000000       0.00000000       6.28247000 </v>
   </varray>
   <i name="volume">    175.82986389 </i>
   <varray name="rec_basis" >
    <v>       0.18345251       0.06541513       0.00000000 </v>
    <v>       0.00000000       0.19476644       0.00000000 </v>
    <v>       0.09120724       0.12935469       0.15917306 </v>
   </varray>
  </crystal>
  <varray name="positions" >
   <v>       0.50000000       0.00000000       0.00000000 </v>
   <v>       0.00000000       0.00000000       0.50000000 </v>
   <v>       0.00000000       0.50000000       0.00000000 </v>
   <v>       0.50000000       0.50000000       0.50000000 </v>
   <v>       0.25000000       0.75000000       0.50000000 </v>
   <v>       0.00000000       0.00000000       0.00000000 </v>
   <v>       0.75000000       0.25000000       0.50000000 </v>
   <v>       0.50000000       0.50000000       0.00000000 </v>
   <v>       0.25000000       0.25000000       0.00000000 </v>
   <v>       0.75000000       0.75000000       0.00000000 </v>
  </varray>
 </structure>
</modeling>
