 vasp.6.2.0 18Jan21 (build Jan 05 2022 15:41:44) complex                        
  
 executed on             LinuxIFC date 2025.05.07  17:49:30
 running on   24 total cores
 distrk:  each k-point on   12 cores,    2 groups
 distr:  one band on NCORE=   2 cores,    6 groups


--------------------------------------------------------------------------------------------------------


 INCAR:
   SYSTEM = routine with relax: pwdword
   ICHARG = 2
   NPAR = 6
   KPAR = 2
   NCORE = 2
   ADDGRID = T
   PREC = Acc
   ENCUT = 600
   METAGGA = R2SCAN
   LASPH = .TRUE.
   LMIXTAU = .FALSE.
   ALGO = A
   EDIFF = 1E-9
   NELM = 100
   NELMIN = 6
   IALGO = 38
   LREAL = F
   NSW = 0
   ISIF = -1
   ISMEAR = 0
   SIGMA = 0.02
   SYMPREC = 1E-4

 POTCAR:    PAW_PBE B 06Sep2000                   
 POTCAR:    PAW_PBE Mo_sv 02Feb2006               
 POTCAR:    PAW_PBE Si 05Jan2001                  
 -----------------------------------------------------------------------------
|                                                                             |
|           W    W    AA    RRRRR   N    N  II  N    N   GGGG   !!!           |
|           W    W   A  A   R    R  NN   N  II  NN   N  G    G  !!!           |
|           W    W  A    A  R    R  N N  N  II  N N  N  G       !!!           |
|           W WW W  AAAAAA  RRRRR   N  N N  II  N  N N  G  GGG   !            |
|           WW  WW  A    A  R   R   N   NN  II  N   NN  G    G                |
|           W    W  A    A  R    R  N    N  II  N    N   GGGG   !!!           |
|                                                                             |
|     For optimal performance we recommend to set                             |
|       NCORE = 2 up to number-of-cores-per-socket                            |
|     NCORE specifies how many cores store one orbital (NPAR=cpu/NCORE).      |
|     This setting can greatly improve the performance of VASP for DFT.       |
|     The default, NCORE=1 might be grossly inefficient on modern             |
|     multi-core architectures or massively parallel machines. Do your        |
|     own testing! More info at https://www.vasp.at/wiki/index.php/NCORE      |
|     Unfortunately you need to use the default for GW and RPA                |
|     calculations (for HF NCORE is supported but not extensively tested      |
|     yet).                                                                   |
|                                                                             |
 -----------------------------------------------------------------------------

 POTCAR:    PAW_PBE B 06Sep2000                   
   VRHFIN =B: s2p1                                                                                  
   LEXCH  = PE                                                                                      
   EATOM  =    71.1703 eV,    5.2309 Ry                                                             
                                                                                                    
   TITEL  = PAW_PBE B 06Sep2000                                                                     
   LULTRA =        F    use ultrasoft PP ?                                                          
   IUNSCR =        1    unscreen: 0-lin 1-nonlin 2-no                                               
   RPACOR =    1.200    partial core radius                                                         
   POMASS =   10.811; ZVAL   =    3.000    mass and valenz                                          
   RCORE  =    1.700    outmost cutoff radius                                                       
   RWIGS  =    1.710; RWIGS  =    0.905    wigner-seitz radius (au A)                               
   ENMAX  =  318.614; ENMIN  =  238.960 eV                                                          
   ICORE  =        2    local potential                                                             
   LCOR   =        T    correct aug charges                                                         
   LPAW   =        T    paw PP                                                                      
   EAUG   =  535.514                                                                                
   DEXC   =    0.000                                                                                
   RMAX   =    1.732    core radius for proj-oper                                                   
   RAUG   =    1.300    factor for augmentation sphere                                              
   RDEP   =    1.757    radius for radial grids                                                     
   RDEPT  =    1.436    core radius for aug-charge                                                  
                                                                                                    
   Atomic configuration                                                                             
    4 entries                                                                                       
     n  l   j            E        occ.                                                              
     1  0  0.50      -180.5896   2.0000                                                             
     2  0  0.50        -9.4431   2.0000                                                             
     2  1  0.50        -3.6068   1.0000                                                             
     3  2  1.50        -4.0817   0.0000                                                             
   Description                                                                                      
     l       E           TYP  RCUT    TYP  RCUT                                                     
     0     -9.4430752     23  1.500                                                                 
     0      0.8675899     23  1.500                                                                 
     1     -3.6067955     23  1.700                                                                 
     1      6.1086146     23  1.700                                                                 
     2     -4.0817478      7  1.700                                                                 
  local pseudopotential read in
  partial core-charges read in
  partial kinetic energy density read in
  atomic valenz-charges read in
  non local Contribution for L=           0  read in
    real space projection operators read in
  non local Contribution for L=           0  read in
    real space projection operators read in
  non local Contribution for L=           1  read in
    real space projection operators read in
  non local Contribution for L=           1  read in
    real space projection operators read in
    PAW grid and wavefunctions read in
 
   number of l-projection  operators is LMAX  =           4
   number of lm-projection operators is LMMAX =           8
 
 POTCAR:    PAW_PBE Mo_sv 02Feb2006               
   VRHFIN =Mo: 4p5s4d                                                                               
   LEXCH  = PE                                                                                      
   EATOM  =  1862.2866 eV,  136.8742 Ry                                                             
                                                                                                    
   TITEL  = PAW_PBE Mo_sv 02Feb2006                                                                 
   LULTRA =        F    use ultrasoft PP ?                                                          
   IUNSCR =        1    unscreen: 0-lin 1-nonlin 2-no                                               
   RPACOR =    2.200    partial core radius                                                         
   POMASS =   95.940; ZVAL   =   14.000    mass and valenz                                          
   RCORE  =    2.500    outmost cutoff radius                                                       
   RWIGS  =    2.750; RWIGS  =    1.455    wigner-seitz radius (au A)                               
   ENMAX  =  242.676; ENMIN  =  182.007 eV                                                          
   ICORE  =        3    local potential                                                             
   LCOR   =        T    correct aug charges                                                         
   LPAW   =        T    paw PP                                                                      
   EAUG   =  446.014                                                                                
   DEXC   =    0.000                                                                                
   RMAX   =    2.563    core radius for proj-oper                                                   
   RAUG   =    1.300    factor for augmentation sphere                                              
   RDEP   =    2.641    radius for radial grids                                                     
   RDEPT  =    2.031    core radius for aug-charge                                                  
                                                                                                    
   Atomic configuration                                                                             
   11 entries                                                                                       
     n  l   j            E        occ.                                                              
     1  0  0.50    -19819.0341   2.0000                                                             
     2  0  0.50     -2799.0127   2.0000                                                             
     2  1  1.50     -2502.0276   6.0000                                                             
     3  0  0.50      -476.4449   2.0000                                                             
     3  1  1.50      -379.1496   6.0000                                                             
     3  2  2.50      -220.9367  10.0000                                                             
     4  0  0.50       -64.3378   2.0000                                                             
     5  0  0.50        -4.0862   1.0000                                                             
     4  1  1.50       -38.4773   6.0000                                                             
     4  2  2.50        -3.7535   5.0000                                                             
     4  3  2.50        -1.3606   0.0000                                                             
   Description                                                                                      
     l       E           TYP  RCUT    TYP  RCUT                                                     
     0    -64.3377829     23  2.100                                                                 
     0     -4.0861640     23  2.400                                                                 
     1    -38.4772993     23  2.100                                                                 
     1     13.6058260     23  2.100                                                                 
     2     -3.7534941     23  2.400                                                                 
     2     -5.1140767     23  2.400                                                                 
     3     -4.0817478     23  2.500                                                                 
  local pseudopotential read in
  partial core-charges read in
  partial kinetic energy density read in
  atomic valenz-charges read in
  non local Contribution for L=           0  read in
    real space projection operators read in
  non local Contribution for L=           0  read in
    real space projection operators read in
  non local Contribution for L=           1  read in
    real space projection operators read in
  non local Contribution for L=           1  read in
    real space projection operators read in
  non local Contribution for L=           2  read in
    real space projection operators read in
  non local Contribution for L=           2  read in
    real space projection operators read in
    PAW grid and wavefunctions read in
 
   number of l-projection  operators is LMAX  =           6
   number of lm-projection operators is LMMAX =          18
 
 POTCAR:    PAW_PBE Si 05Jan2001                  
   VRHFIN =Si: s2p2                                                                                 
   LEXCH  = PE                                                                                      
   EATOM  =   103.0669 eV,    7.5752 Ry                                                             
                                                                                                    
   TITEL  = PAW_PBE Si 05Jan2001                                                                    
   LULTRA =        F    use ultrasoft PP ?                                                          
   IUNSCR =        1    unscreen: 0-lin 1-nonlin 2-no                                               
   RPACOR =    1.500    partial core radius                                                         
   POMASS =   28.085; ZVAL   =    4.000    mass and valenz                                          
   RCORE  =    1.900    outmost cutoff radius                                                       
   RWIGS  =    2.480; RWIGS  =    1.312    wigner-seitz radius (au A)                               
   ENMAX  =  245.345; ENMIN  =  184.009 eV                                                          
   ICORE  =        2    local potential                                                             
   LCOR   =        T    correct aug charges                                                         
   LPAW   =        T    paw PP                                                                      
   EAUG   =  322.069                                                                                
   DEXC   =    0.000                                                                                
   RMAX   =    1.950    core radius for proj-oper                                                   
   RAUG   =    1.300    factor for augmentation sphere                                              
   RDEP   =    1.993    radius for radial grids                                                     
   RDEPT  =    1.837    core radius for aug-charge                                                  
                                                                                                    
   Atomic configuration                                                                             
    6 entries                                                                                       
     n  l   j            E        occ.                                                              
     1  0  0.50     -1785.8828   2.0000                                                             
     2  0  0.50      -139.4969   2.0000                                                             
     2  1  1.50       -95.5546   6.0000                                                             
     3  0  0.50       -10.8127   2.0000                                                             
     3  1  0.50        -4.0811   2.0000                                                             
     3  2  1.50        -4.0817   0.0000                                                             
   Description                                                                                      
     l       E           TYP  RCUT    TYP  RCUT                                                     
     0    -10.8127223     23  1.900                                                                 
     0     -7.6451159     23  1.900                                                                 
     1     -4.0811372     23  1.900                                                                 
     1      2.4879257     23  1.900                                                                 
     2     -4.0817478      7  1.900                                                                 
  local pseudopotential read in
  partial core-charges read in
  partial kinetic energy density read in
  atomic valenz-charges read in
  non local Contribution for L=           0  read in
    real space projection operators read in
  non local Contribution for L=           0  read in
    real space projection operators read in
  non local Contribution for L=           1  read in
    real space projection operators read in
  non local Contribution for L=           1  read in
    real space projection operators read in
    PAW grid and wavefunctions read in
 
   number of l-projection  operators is LMAX  =           4
   number of lm-projection operators is LMMAX =           8
 
 -----------------------------------------------------------------------------
|                                                                             |
|               ----> ADVICE to this user running VASP <----                  |
|                                                                             |
|     You have a (more or less) 'large supercell' and for larger cells it     |
|     might be more efficient to use real-space projection operators.         |
|     Therefore, try LREAL= Auto in the INCAR file.                           |
|     Mind: For very accurate calculation, you might also keep the            |
|     reciprocal projection scheme (i.e. LREAL=.FALSE.).                      |
|                                                                             |
 -----------------------------------------------------------------------------

  PAW_PBE B 06Sep2000                   :
 energy of atom  1       EATOM=  -71.1703
 kinetic energy error for atom=    0.0007 (will be added to EATOM!!)
  PAW_PBE Mo_sv 02Feb2006               :
 energy of atom  2       EATOM=-1862.2866
 kinetic energy error for atom=    0.0041 (will be added to EATOM!!)
  PAW_PBE Si 05Jan2001                  :
 energy of atom  3       EATOM= -103.0669
 kinetic energy error for atom=    0.0003 (will be added to EATOM!!)
 
 
 POSCAR: EA109
  positions in direct lattice
  No initial velocities read in

 METAGGA = R2SCA    LMAXTAU =  6    LMIXTAU =  F

 exchange correlation table for  LEXCH =        8
   RHO(1)=    0.500       N(1)  =     2000
   RHO(2)=  100.500       N(2)  =     4000
 


--------------------------------------------------------------------------------------------------------


 ion  position               nearest neighbor table
   1  0.173  0.673  0.846-   8 2.09  15 2.09  14 2.60   7 2.60  11 2.60  13 2.60  19 2.63  20 2.63

   2  0.327  0.173  0.500-  10 2.09  16 2.09  12 2.60   7 2.60  13 2.60   9 2.60  17 2.63  18 2.63

   3  0.673  0.827  0.500-  10 2.09  16 2.09  14 2.60   6 2.60   5 2.60  11 2.60  17 2.63  18 2.63

   4  0.827  0.327  0.154-   8 2.09  15 2.09  12 2.60   6 2.60   9 2.60   5 2.60  19 2.63  20 2.63

   5  0.250  0.471  0.221-   8 2.27  16 2.27  19 2.59  17 2.59   4 2.60   3 2.60  12 2.82  11 2.82

   6  0.750  0.971  0.221-  15 2.27  10 2.27  17 2.59  19 2.59   3 2.60   4 2.60   9 2.82  14 2.82

   7  0.250  0.029  0.779-  15 2.27  10 2.27  18 2.59  20 2.59   2 2.60   1 2.60  11 2.82  12 2.82

   8  0.000  0.500  0.000-   1 2.09   4 2.09   5 2.27   9 2.27  11 2.27  13 2.27  17 2.56  18 2.56

   9  0.971  0.750  0.221-   8 2.27  10 2.27  20 2.59  17 2.59   4 2.60   2 2.60   6 2.82  13 2.82

  10  0.000  0.000  0.500-   2 2.09   3 2.09   6 2.27   7 2.27   9 2.27  11 2.27  19 2.56  20 2.56

  11  0.029  0.250  0.779-   8 2.27  10 2.27  19 2.59  18 2.59   1 2.60   3 2.60   7 2.82   5 2.82

  12  0.471  0.250  0.221-  15 2.27  16 2.27  17 2.59  20 2.59   2 2.60   4 2.60   5 2.82   7 2.82

  13  0.750  0.529  0.779-   8 2.27  16 2.27  20 2.59  18 2.59   1 2.60   2 2.60  14 2.82   9 2.82

  14  0.529  0.750  0.779-  15 2.27  16 2.27  18 2.59  19 2.59   3 2.60   1 2.60  13 2.82   6 2.82

  15  0.500  0.000  0.000-   1 2.09   4 2.09   6 2.27   7 2.27  12 2.27  14 2.27  17 2.56  18 2.56

  16  0.500  0.500  0.500-   2 2.09   3 2.09   5 2.27  12 2.27  13 2.27  14 2.27  19 2.56  20 2.56

  17  0.389  0.889  0.278-  15 2.56   8 2.56  12 2.59   6 2.59   5 2.59   9 2.59   2 2.63   3 2.63
                            18 2.84
  18  0.611  0.111  0.722-  15 2.56   8 2.56  14 2.59   7 2.59  11 2.59  13 2.59   2 2.63   3 2.63
                            17 2.84
  19  0.111  0.389  0.500-  10 2.56  16 2.56  11 2.59   5 2.59  14 2.59   6 2.59   1 2.63   4 2.63
                            20 2.84
  20  0.889  0.611  0.500-  10 2.56  16 2.56  13 2.59   9 2.59   7 2.59  12 2.59   1 2.63   4 2.63
                            19 2.84
 
  LATTYP: Found a body centered tetragonal cell.
 ALAT       =     9.0262273053
 C/A-ratio  =     0.8188465679
  
  Lattice vectors:
  
 A1 = (   7.1389205295,   0.0000000000,  -1.8517015688)
 A2 = (  -4.2734246865,   5.7185686824,  -1.8517015688)
 A3 = (   0.0000000000,   0.0000000000,   7.3751600000)


Analysis of symmetry for initial positions (statically):
=====================================================================
 Subroutine PRICEL returns:
 Original cell was already a primitive cell.
 

 Routine SETGRP: Setting up the symmetry group for a 
 body centered tetragonal supercell.


 Subroutine GETGRP returns: Found 16 space group operations
 (whereof  8 operations were pure point group operations)
 out of a pool of 16 trial point group operations.


The static configuration has the point symmetry C_4h.
 The point group associated with its full space group is D_4h.


Analysis of symmetry for dynamics (positions and initial velocities):
=====================================================================
 Subroutine PRICEL returns:
 Original cell was already a primitive cell.
 

 Routine SETGRP: Setting up the symmetry group for a 
 body centered tetragonal supercell.


 Subroutine GETGRP returns: Found 16 space group operations
 (whereof  8 operations were pure point group operations)
 out of a pool of 16 trial point group operations.


The dynamic configuration has the point symmetry C_4h.
 The point group associated with its full space group is D_4h.


 Subroutine INISYM returns: Found 16 space group operations
 (whereof  8 operations are pure point group operations),
 and found     1 'primitive' translations


----------------------------------------------------------------------------------------

                                     Primitive cell                                     

  volume of cell :     301.0865

  direct lattice vectors                    reciprocal lattice vectors
     7.138920529  0.000000000 -1.851701569     0.140077200  0.104678181  0.000000000
    -4.273424686  5.718568682 -1.851701569     0.000000000  0.174868932  0.000000000
     0.000000000  0.000000000  7.375160000     0.035169565  0.070186657  0.135590279

  length of vectors
     7.375160000  7.375160000  7.375160000     0.174868932  0.174868932  0.156677340

  position of ions in fractional coordinates (direct lattice)
     0.173110000  0.673110000  0.846220000
     0.326890000  0.173110000  0.500000000
     0.673110000  0.826890000  0.500000000
     0.826890000  0.326890000  0.153780000
     0.250000000  0.470840000  0.220840000
     0.750000000  0.970840000  0.220840000
     0.250000000  0.029160000  0.779160000
     0.000000000  0.500000000  0.000000000
     0.970840000  0.750000000  0.220840000
     0.000000000  0.000000000  0.500000000
     0.029160000  0.250000000  0.779160000
     0.470840000  0.250000000  0.220840000
     0.750000000  0.529160000  0.779160000
     0.529160000  0.750000000  0.779160000
     0.500000000  0.000000000  1.000000000
     0.500000000  0.500000000  0.500000000
     0.388770000  0.888770000  0.277530000
     0.611230000  0.111230000  0.722470000
     0.111230000  0.388770000  0.500000000
     0.888770000  0.611230000  0.500000000

  ion indices of the primitive-cell ions
   primitive index   ion index
                 1           1
                 2           2
                 3           3
                 4           4
                 5           5
                 6           6
                 7           7
                 8           8
                 9           9
                10          10
                11          11
                12          12
                13          13
                14          14
                15          15
                16          16
                17          17
                18          18
                19          19
                20          20

----------------------------------------------------------------------------------------

 
 
 KPOINTS: EA                                      

Automatic generation of k-mesh.
 Grid dimensions read from file:
 generate k-points for:    6    6    6

 Generating k-lattice:

  Cartesian coordinates                     Fractional coordinates (reciprocal lattice)
     0.023346200  0.017446363  0.000000000     0.166666667  0.000000000  0.000000000
     0.000000000  0.029144822  0.000000000     0.000000000  0.166666667  0.000000000
     0.005861594  0.011697776  0.022598380     0.000000000  0.000000000  0.166666667

  Length of vectors
     0.029144822  0.029144822  0.026112890

  Shift w.r.t. Gamma in fractional coordinates (k-lattice)
     0.000000000  0.000000000  0.000000000

 
 Subroutine IBZKPT returns following result:
 ===========================================
 
 Found     30 irreducible k-points:
 
 Following reciprocal coordinates:
            Coordinates               Weight
  0.000000  0.000000  0.000000      1.000000
  0.166667 -0.000000  0.000000      8.000000
  0.333333 -0.000000  0.000000      8.000000
  0.500000  0.000000  0.000000      4.000000
  0.166667  0.166667  0.000000      8.000000
  0.333333  0.166667  0.000000     16.000000
  0.500000  0.166667  0.000000     16.000000
 -0.333333  0.166667  0.000000     16.000000
 -0.166667  0.166667  0.000000      4.000000
  0.333333  0.333333  0.000000      8.000000
  0.500000  0.333333  0.000000     16.000000
 -0.333333  0.333333  0.000000      4.000000
  0.500000  0.500000  0.000000      2.000000
  0.166667  0.166667  0.166667      8.000000
  0.333333  0.166667  0.166667      8.000000
 -0.166667  0.166667  0.166667      4.000000
  0.333333  0.333333  0.166667      4.000000
 -0.333333  0.333333  0.166667      8.000000
 -0.166667  0.333333  0.166667      8.000000
  0.500000  0.500000  0.166667      4.000000
 -0.333333  0.500000  0.166667     16.000000
 -0.166667  0.500000  0.166667      8.000000
 -0.333333 -0.333333  0.166667      8.000000
 -0.166667 -0.333333  0.166667      8.000000
 -0.166667 -0.166667  0.166667      2.000000
 -0.333333  0.333333  0.333333      4.000000
  0.500000  0.500000  0.333333      4.000000
 -0.333333  0.500000  0.333333      8.000000
 -0.333333 -0.333333  0.333333      2.000000
  0.500000  0.500000  0.500000      1.000000
 
 Following cartesian coordinates:
            Coordinates               Weight
  0.000000  0.000000  0.000000      1.000000
  0.023346  0.017446  0.000000      8.000000
  0.046692  0.034893  0.000000      8.000000
  0.070039  0.052339  0.000000      4.000000
  0.023346  0.046591  0.000000      8.000000
  0.046692  0.064038  0.000000     16.000000
  0.070039  0.081484  0.000000     16.000000
 -0.046692 -0.005748  0.000000     16.000000
 -0.023346  0.011698  0.000000      4.000000
  0.046692  0.093182  0.000000      8.000000
  0.070039  0.110629  0.000000     16.000000
 -0.046692  0.023397  0.000000      4.000000
  0.070039  0.139774  0.000000      2.000000
  0.029208  0.058289  0.022598      8.000000
  0.052554  0.075735  0.022598      8.000000
 -0.017485  0.023396  0.022598      4.000000
  0.052554  0.104880  0.022598      4.000000
 -0.040831  0.035095  0.022598      8.000000
 -0.017485  0.052541  0.022598      8.000000
  0.075900  0.151471  0.022598      4.000000
 -0.040831  0.064240  0.022598     16.000000
 -0.017485  0.081686  0.022598      8.000000
 -0.040831 -0.081485  0.022598      8.000000
 -0.017485 -0.064038  0.022598      8.000000
 -0.017485 -0.034893  0.022598      2.000000
 -0.034969  0.046792  0.045197      4.000000
  0.081762  0.163169  0.045197      4.000000
 -0.034969  0.075937  0.045197      8.000000
 -0.034969 -0.069787  0.045197      2.000000
  0.087623  0.174867  0.067795      1.000000
 


--------------------------------------------------------------------------------------------------------




 Dimension of arrays:
   k-points           NKPTS =     30   k-points in BZ     NKDIM =     30   number of bands    NBANDS=    120
   number of dos      NEDOS =    301   number of ions     NIONS =     20
   non local maximal  LDIM  =      6   non local SUM 2l+1 LMDIM =     18
   total plane-waves  NPLWV = 216000
   max r-space proj   IRMAX =      1   max aug-charges    IRDMAX= 251155
   dimension x,y,z NGX =    60 NGY =   60 NGZ =   60
   dimension x,y,z NGXF=   120 NGYF=  120 NGZF=  120
   support grid    NGXF=   240 NGYF=  240 NGZF=  240
   ions per type =               4  12   4
   NGX,Y,Z   is equivalent  to a cutoff of  13.52, 13.52, 13.52 a.u.
   NGXF,Y,Z  is equivalent  to a cutoff of  27.05, 27.05, 27.05 a.u.

 SYSTEM =  routine with relax: pwdword             
 POSCAR =  EA109                                   

 Startparameter for this run:
   NWRITE =      2    write-flag & timer
   PREC   = acc       normal or accurate (medium, high low for compatibility)
   ISTART =      0    job   : 0-new  1-cont  2-samecut
   ICHARG =      2    charge: 1-file 2-atom 10-const
   ISPIN  =      1    spin polarized calculation?
   LNONCOLLINEAR =      F non collinear calculations
   LSORBIT =      F    spin-orbit coupling
   INIWAV =      1    electr: 0-lowe 1-rand  2-diag
   LASPH  =      T    aspherical Exc in radial PAW
   METAGGA=      F    non-selfconsistent MetaGGA calc.

 Electronic Relaxation 1
   ENCUT  =  600.0 eV  44.10 Ry    6.64 a.u.  14.73 14.73 14.73*2*pi/ulx,y,z
   ENINI  =  600.0     initial cutoff
   ENAUG  =  535.5 eV  augmentation charge cutoff
   NELM   =    100;   NELMIN=  6; NELMDL= -5     # of ELM steps 
   EDIFF  = 0.1E-08   stopping-criterion for ELM
   LREAL  =      F    real-space projection
   NLSPLINE    = F    spline interpolate recip. space projectors
   LCOMPAT=      F    compatible to vasp.4.4
   GGA_COMPAT  = T    GGA compatible to vasp.4.4-vasp.4.6
   LMAXPAW     = -100 max onsite density
   LMAXMIX     =    2 max onsite mixed and CHGCAR
   VOSKOWN=      0    Vosko Wilk Nusair interpolation
   ROPT   =    0.00000   0.00000   0.00000
 Ionic relaxation
   EDIFFG = 0.1E-07   stopping-criterion for IOM
   NSW    =      0    number of steps for IOM
   NBLOCK =      1;   KBLOCK =      1    inner block; outer block 
   IBRION =     -1    ionic relax: 0-MD 1-quasi-New 2-CG
   NFREE  =      0    steps in history (QN), initial steepest desc. (CG)
   ISIF   =     -1    stress and relaxation
   IWAVPR =     10    prediction:  0-non 1-charg 2-wave 3-comb
   ISYM   =      2    0-nonsym 1-usesym 2-fastsym
   LCORR  =      T    Harris-Foulkes like correction to forces

   POTIM  = 0.5000    time-step for ionic-motion
   TEIN   =    0.0    initial temperature
   TEBEG  =    0.0;   TEEND  =   0.0 temperature during run
   SMASS  =  -3.00    Nose mass-parameter (am)
   estimated Nose-frequenzy (Omega)   =  0.10E-29 period in steps = 0.13E+47 mass=  -0.124E-26a.u.
   SCALEE = 1.0000    scale energy and forces
   NPACO  =    256;   APACO  = 16.0  distance and # of slots for P.C.
   PSTRESS=    0.0 pullay stress

  Mass of Ions in am
   POMASS =  10.81 95.94 28.09
  Ionic Valenz
   ZVAL   =   3.00 14.00  4.00
  Atomic Wigner-Seitz radii
   RWIGS  =  -1.00 -1.00 -1.00
  virtual crystal weights 
   VCA    =   1.00  1.00  1.00
   NELECT =     196.0000    total number of electrons
   NUPDOWN=      -1.0000    fix difference up-down

 DOS related values:
   EMIN   =  10.00;   EMAX   =-10.00  energy-range for DOS
   EFERMI =   0.00
   ISMEAR =     0;   SIGMA  =   0.02  broadening in eV -4-tet -1-fermi 0-gaus

 Electronic relaxation 2 (details)
   IALGO  =     58    algorithm
   LDIAG  =      T    sub-space diagonalisation (order eigenvalues)
   LSUBROT=      F    optimize rotation matrix (better conditioning)
   TURBO    =      0    0=normal 1=particle mesh
   IRESTART =      0    0=no restart 2=restart with 2 vectors
   NREBOOT  =      0    no. of reboots
   NMIN     =      0    reboot dimension
   EREF     =   0.00    reference energy to select bands
   IMIX   =      4    mixing-type and parameters
     AMIX     =   0.40;   BMIX     =  1.00
     AMIX_MAG =   1.60;   BMIX_MAG =  1.00
     AMIN     =   0.10
     WC   =   100.;   INIMIX=   1;  MIXPRE=   1;  MAXMIX= -45

 Intra band minimization:
   WEIMIN = 0.0000     energy-eigenvalue tresh-hold
   EBREAK =  0.21E-11  absolut break condition
   DEPER  =   0.30     relativ break condition  

   TIME   =   0.40     timestep for ELM

  volume/ion in A,a.u.               =      15.05       101.59
  Fermi-wavevector in a.u.,A,eV,Ry     =   1.418828  2.681196 27.389519  2.013073
  Thomas-Fermi vector in A             =   2.539913
 
 Write flags
   LWAVE        =      T    write WAVECAR
   LDOWNSAMPLE  =      F    k-point downsampling of WAVECAR
   LCHARG       =      T    write CHGCAR
   LVTOT        =      F    write LOCPOT, total local potential
   LVHAR        =      F    write LOCPOT, Hartree potential only
   LELF         =      F    write electronic localiz. function (ELF)
   LORBIT       =      0    0 simple, 1 ext, 2 COOP (PROOUT), +10 PAW based schemes


 Dipole corrections
   LMONO  =      F    monopole corrections only (constant potential shift)
   LDIPOL =      F    correct potential (dipole corrections)
   IDIPOL =      0    1-x, 2-y, 3-z, 4-all directions 
   EPSILON=  1.0000000 bulk dielectric constant

 Exchange correlation treatment:
   GGA     =    --    GGA type
   LEXCH   =     8    internal setting for exchange type
   VOSKOWN=      0    Vosko Wilk Nusair interpolation
   LHFCALC =     F    Hartree Fock is set to
   LHFONE  =     F    Hartree Fock one center treatment
   AEXX    =    0.0000 exact exchange contribution

 Linear response parameters
   LEPSILON=     F    determine dielectric tensor
   LRPA    =     F    only Hartree local field effects (RPA)
   LNABLA  =     F    use nabla operator in PAW spheres
   LVEL    =     F    velocity operator in full k-point grid
   LINTERFAST=   F  fast interpolation
   KINTER  =     0    interpolate to denser k-point grid
   CSHIFT  =0.1000    complex shift for real part using Kramers Kronig
   OMEGAMAX=  -1.0    maximum frequency
   DEG_THRESHOLD= 0.2000000E-02 threshold for treating states as degnerate
   RTIME   =   -0.100 relaxation time in fs
  (WPLASMAI=    0.000 imaginary part of plasma frequency in eV, 0.658/RTIME)
   DFIELD  = 0.0000000 0.0000000 0.0000000 field for delta impulse in time
 
 Orbital magnetization related:
   ORBITALMAG=     F  switch on orbital magnetization
   LCHIMAG   =     F  perturbation theory with respect to B field
   DQ        =  0.001000  dq finite difference perturbation B field
   LLRAUG    =     F  two centre corrections for induced B field



--------------------------------------------------------------------------------------------------------


 Static calculation
 charge density and potential will be updated during run
 non-spin polarized calculation
 Conjugate gradient for all bands (Freysoldt, et al. PRB 79, 241103 (2009))
 preconditioned conjugated gradient                                        
 perform sub-space diagonalisation
    before iterative eigenvector-optimisation
 modified Broyden-mixing scheme, WC =      100.0
 initial mixing is a Kerker type mixing with AMIX =  0.4000 and BMIX =      1.0000
 Hartree-type preconditioning will be used
 using additional bands           22
 reciprocal scheme for non local part
 use partial core corrections
 no Harris-corrections to forces 
 use gradient corrections 
 use of overlap-Matrix (Vanderbilt PP)
 Gauss-broadening in eV      SIGMA  =   0.02


--------------------------------------------------------------------------------------------------------


  energy-cutoff  :      600.00
  volume of cell :      301.09
      direct lattice vectors                 reciprocal lattice vectors
     7.138920529  0.000000000 -1.851701569     0.140077200  0.104678181  0.000000000
    -4.273424686  5.718568682 -1.851701569     0.000000000  0.174868932  0.000000000
     0.000000000  0.000000000  7.375160000     0.035169565  0.070186657  0.135590279

  length of vectors
     7.375160000  7.375160000  7.375160000     0.174868932  0.174868932  0.156677340


 
 k-points in units of 2pi/SCALE and weight: EA                                      
   0.00000000  0.00000000  0.00000000       0.005
   0.02334620  0.01744636  0.00000000       0.037
   0.04669240  0.03489273  0.00000000       0.037
   0.07003860  0.05233909  0.00000000       0.019
   0.02334620  0.04659119  0.00000000       0.037
   0.04669240  0.06403755  0.00000000       0.074
   0.07003860  0.08148391  0.00000000       0.074
  -0.04669240 -0.00574790  0.00000000       0.074
  -0.02334620  0.01169846  0.00000000       0.019
   0.04669240  0.09318237  0.00000000       0.037
   0.07003860  0.11062873  0.00000000       0.074
  -0.04669240  0.02339692  0.00000000       0.019
   0.07003860  0.13977356  0.00000000       0.009
   0.02920779  0.05828896  0.02259838       0.037
   0.05255399  0.07573533  0.02259838       0.037
  -0.01748461  0.02339623  0.02259838       0.019
   0.05255399  0.10488015  0.02259838       0.019
  -0.04083081  0.03509469  0.02259838       0.037
  -0.01748461  0.05254106  0.02259838       0.037
   0.07590019  0.15147133  0.02259838       0.019
  -0.04083081  0.06423952  0.02259838       0.074
  -0.01748461  0.08168588  0.02259838       0.037
  -0.04083081 -0.08148459  0.02259838       0.037
  -0.01748461 -0.06403823  0.02259838       0.037
  -0.01748461 -0.03489341  0.02259838       0.009
  -0.03496921  0.04679247  0.04519676       0.019
   0.08176179  0.16316911  0.04519676       0.019
  -0.03496921  0.07593729  0.04519676       0.037
  -0.03496921 -0.06978682  0.04519676       0.009
   0.08762338  0.17486689  0.06779514       0.005
 
 k-points in reciprocal lattice and weights: EA                                      
   0.00000000  0.00000000  0.00000000       0.005
   0.16666667 -0.00000000  0.00000000       0.037
   0.33333333 -0.00000000  0.00000000       0.037
   0.50000000  0.00000000  0.00000000       0.019
   0.16666667  0.16666667  0.00000000       0.037
   0.33333333  0.16666667  0.00000000       0.074
   0.50000000  0.16666667  0.00000000       0.074
  -0.33333333  0.16666667  0.00000000       0.074
  -0.16666667  0.16666667  0.00000000       0.019
   0.33333333  0.33333333  0.00000000       0.037
   0.50000000  0.33333333  0.00000000       0.074
  -0.33333333  0.33333333  0.00000000       0.019
   0.50000000  0.50000000  0.00000000       0.009
   0.16666667  0.16666667  0.16666667       0.037
   0.33333333  0.16666667  0.16666667       0.037
  -0.16666667  0.16666667  0.16666667       0.019
   0.33333333  0.33333333  0.16666667       0.019
  -0.33333333  0.33333333  0.16666667       0.037
  -0.16666667  0.33333333  0.16666667       0.037
   0.50000000  0.50000000  0.16666667       0.019
  -0.33333333  0.50000000  0.16666667       0.074
  -0.16666667  0.50000000  0.16666667       0.037
  -0.33333333 -0.33333333  0.16666667       0.037
  -0.16666667 -0.33333333  0.16666667       0.037
  -0.16666667 -0.16666667  0.16666667       0.009
  -0.33333333  0.33333333  0.33333333       0.019
   0.50000000  0.50000000  0.33333333       0.019
  -0.33333333  0.50000000  0.33333333       0.037
  -0.33333333 -0.33333333  0.33333333       0.009
   0.50000000  0.50000000  0.50000000       0.005
 
 position of ions in fractional coordinates (direct lattice) 
   0.17311000  0.67311000  0.84622000
   0.32689000  0.17311000  0.50000000
   0.67311000  0.82689000  0.50000000
   0.82689000  0.32689000  0.15378000
   0.25000000  0.47084000  0.22084000
   0.75000000  0.97084000  0.22084000
   0.25000000  0.02916000  0.77916000
   0.00000000  0.50000000  0.00000000
   0.97084000  0.75000000  0.22084000
   0.00000000  0.00000000  0.50000000
   0.02916000  0.25000000  0.77916000
   0.47084000  0.25000000  0.22084000
   0.75000000  0.52916000  0.77916000
   0.52916000  0.75000000  0.77916000
   0.50000000  0.00000000  0.00000000
   0.50000000  0.50000000  0.50000000
   0.38877000  0.88877000  0.27753000
   0.61123000  0.11123000  0.72247000
   0.11123000  0.38877000  0.50000000
   0.88877000  0.61123000  0.50000000
 
 position of ions in cartesian coordinates  (Angst):
  -1.64066636  3.84922577  4.67406099
   1.59386918  0.98994142  2.76172922
   1.27162666  4.72862726  0.91002765
   4.50616220  1.86934292 -1.00230413
  -0.22736915  2.69253088  0.29394978
   1.20537877  5.55181522 -1.55775179
   1.66011707  0.16675346  5.22950866
  -2.13671234  2.85928434 -0.92585078
   3.72568109  4.28892651 -1.55775179
   0.00000000  0.00000000  3.68758000
  -0.86018525  1.42964217  5.22950866
   2.29293317  1.42964217  0.29394978
   3.09286499  3.02603780  3.37780709
   0.57256267  4.28892651  3.37780709
   3.56946026  0.00000000 -0.92585078
   1.43274792  2.85928434  1.83587843
  -1.02269352  5.08249229 -0.31879467
   3.88818937  0.63607639  3.99055153
  -0.86731718  2.22320795  2.76172922
   3.73281303  3.49536074  0.91002765
 


--------------------------------------------------------------------------------------------------------


 k-point   1 :   0.0000 0.0000 0.0000  plane waves:    9963
 k-point   2 :   0.1667-0.0000 0.0000  plane waves:   10052
 k-point   3 :   0.3333-0.0000 0.0000  plane waves:   10030
 k-point   4 :   0.5000 0.0000 0.0000  plane waves:   10058
 k-point   5 :   0.1667 0.1667 0.0000  plane waves:   10035
 k-point   6 :   0.3333 0.1667 0.0000  plane waves:   10051
 k-point   7 :   0.5000 0.1667 0.0000  plane waves:   10063
 k-point   8 :  -0.3333 0.1667 0.0000  plane waves:   10049
 k-point   9 :  -0.1667 0.1667 0.0000  plane waves:   10057
 k-point  10 :   0.3333 0.3333 0.0000  plane waves:   10066
 k-point  11 :   0.5000 0.3333 0.0000  plane waves:   10060
 k-point  12 :  -0.3333 0.3333 0.0000  plane waves:   10042
 k-point  13 :   0.5000 0.5000 0.0000  plane waves:   10042
 k-point  14 :   0.1667 0.1667 0.1667  plane waves:   10044
 k-point  15 :   0.3333 0.1667 0.1667  plane waves:   10050
 k-point  16 :  -0.1667 0.1667 0.1667  plane waves:   10064
 k-point  17 :   0.3333 0.3333 0.1667  plane waves:   10064
 k-point  18 :  -0.3333 0.3333 0.1667  plane waves:   10041
 k-point  19 :  -0.1667 0.3333 0.1667  plane waves:   10030
 k-point  20 :   0.5000 0.5000 0.1667  plane waves:   10054
 k-point  21 :  -0.3333 0.5000 0.1667  plane waves:   10040
 k-point  22 :  -0.1667 0.5000 0.1667  plane waves:   10035
 k-point  23 :  -0.3333-0.3333 0.1667  plane waves:   10055
 k-point  24 :  -0.1667-0.3333 0.1667  plane waves:   10047
 k-point  25 :  -0.1667-0.1667 0.1667  plane waves:   10031
 k-point  26 :  -0.3333 0.3333 0.3333  plane waves:   10042
 k-point  27 :   0.5000 0.5000 0.3333  plane waves:   10050
 k-point  28 :  -0.3333 0.5000 0.3333  plane waves:   10044
 k-point  29 :  -0.3333-0.3333 0.3333  plane waves:   10059
 k-point  30 :   0.5000 0.5000 0.5000  plane waves:   10026

 maximum and minimum number of plane-waves per node :      5056     4952

 maximum number of plane-waves:     10066
 maximum index in each direction: 
   IXMAX=   15   IYMAX=   15   IZMAX=   14
   IXMIN=  -15   IYMIN=  -15   IZMIN=  -15


 parallel 3D FFT for wavefunctions:
    minimum data exchange during FFTs selected (reduces bandwidth)
 parallel 3D FFT for charge:
    minimum data exchange during FFTs selected (reduces bandwidth)


 total amount of memory used by VASP MPI-rank0   288536. kBytes
=======================================================================

   base      :      30000. kBytes
   nonl-proj :      66771. kBytes
   fftplans  :      24350. kBytes
   grid      :      18307. kBytes
   one-center:        155. kBytes
   wavefun   :     148953. kBytes
 
     INWAV:  cpu time    0.0001: real time    0.0001
 Broyden mixing: mesh for mixing (old mesh)
   NGX = 29   NGY = 29   NGZ = 29
  (NGX  =120   NGY  =120   NGZ  =120)
  gives a total of  24389 points

 initial charge density was supplied:
 charge density of overlapping atoms calculated
 number of electron     196.0000000 magnetization 
 keeping initial charge density in first step


--------------------------------------------------------------------------------------------------------


 Maximum index for augmentation-charges        20378 (set IRDMAX)


--------------------------------------------------------------------------------------------------------


 First call to EWALD:  gamma=   0.264
 Maximum number of real-space cells 3x 3x 3
 Maximum number of reciprocal cells 3x 3x 3

    FEWALD:  cpu time    0.0102: real time    0.0102


--------------------------------------- Iteration      1(   1)  ---------------------------------------


    POTLOK:  cpu time    0.2923: real time    0.2943
    SETDIJ:  cpu time    0.7335: real time    0.7379
    TRIAL :  cpu time   28.2912: real time   28.7291
    CORREC:  cpu time    0.0011: real time    0.0011
    --------------------------------------------
      LOOP:  cpu time   29.3687: real time   29.8177

 eigenvalue-minimisations  :  7548
 total energy-change (2. order) : 0.2304691E+04  (-0.1342702E+05)
 number of electron     196.0000000 magnetization 
 augmentation part      196.0000000 magnetization 

 Free energy of the ion-electron system (eV)
  ---------------------------------------------------
  alpha Z        PSCENC =      1109.90609809
  Ewald energy   TEWEN  =    -16928.55993872
  -Hartree energ DENC   =     -6144.25842449
  -exchange      EXHF   =         0.00000000
  -V(xc)+E(xc)   XCENC  =       936.67546473
  PAW double counting   =     18333.95277542   -18252.26986835
  entropy T*S    EENTRO =        -0.00233501
  eigenvalues    EBANDS =       204.91275381
  atomic energy  EATOM  =     23044.33489042
  ---------------------------------------------------
  free energy    TOTEN  =      2304.69141591 eV

  energy without entropy =     2304.69375092  energy(sigma->0) =     2304.69258342


--------------------------------------------------------------------------------------------------------




--------------------------------------- Iteration      1(   2)  ---------------------------------------


    TRIAL :  cpu time   28.7898: real time   29.1315
    CORREC:  cpu time    0.0010: real time    0.0010
    --------------------------------------------
      LOOP:  cpu time   28.7933: real time   29.1353

 eigenvalue-minimisations  :  7752
 total energy-change (2. order) :-0.2612278E+04  (-0.2542057E+04)
 number of electron     196.0000000 magnetization 
 augmentation part      196.0000000 magnetization 

 Free energy of the ion-electron system (eV)
  ---------------------------------------------------
  alpha Z        PSCENC =      1109.90609809
  Ewald energy   TEWEN  =    -16928.55993872
  -Hartree energ DENC   =     -6144.25842449
  -exchange      EXHF   =         0.00000000
  -V(xc)+E(xc)   XCENC  =       936.67546473
  PAW double counting   =     18333.95277542   -18252.26986835
  entropy T*S    EENTRO =        -0.00197909
  eigenvalues    EBANDS =     -2407.36512767
  atomic energy  EATOM  =     23044.33489042
  ---------------------------------------------------
  free energy    TOTEN  =      -307.58610965 eV

  energy without entropy =     -307.58413056  energy(sigma->0) =     -307.58512010


--------------------------------------------------------------------------------------------------------




--------------------------------------- Iteration      1(   3)  ---------------------------------------


    TRIAL :  cpu time   32.2334: real time   32.6851
    CORREC:  cpu time    0.0010: real time    0.0010
    --------------------------------------------
      LOOP:  cpu time   32.2353: real time   32.6888

 eigenvalue-minimisations  :  9588
 total energy-change (2. order) :-0.1191868E+03  (-0.1138776E+03)
 number of electron     196.0000000 magnetization 
 augmentation part      196.0000000 magnetization 

 Free energy of the ion-electron system (eV)
  ---------------------------------------------------
  alpha Z        PSCENC =      1109.90609809
  Ewald energy   TEWEN  =    -16928.55993872
  -Hartree energ DENC   =     -6144.25842449
  -exchange      EXHF   =         0.00000000
  -V(xc)+E(xc)   XCENC  =       936.67546473
  PAW double counting   =     18333.95277542   -18252.26986835
  entropy T*S    EENTRO =        -0.00279405
  eigenvalues    EBANDS =     -2526.55107957
  atomic energy  EATOM  =     23044.33489042
  ---------------------------------------------------
  free energy    TOTEN  =      -426.77287651 eV

  energy without entropy =     -426.77008246  energy(sigma->0) =     -426.77147948


--------------------------------------------------------------------------------------------------------




--------------------------------------- Iteration      1(   4)  ---------------------------------------


    TRIAL :  cpu time   30.8432: real time   31.2541
    CORREC:  cpu time    0.0010: real time    0.0010
    --------------------------------------------
      LOOP:  cpu time   30.8466: real time   31.2581

 eigenvalue-minimisations  :  8784
 total energy-change (2. order) :-0.3335489E+01  (-0.3271175E+01)
 number of electron     196.0000000 magnetization 
 augmentation part      196.0000000 magnetization 

 Free energy of the ion-electron system (eV)
  ---------------------------------------------------
  alpha Z        PSCENC =      1109.90609809
  Ewald energy   TEWEN  =    -16928.55993872
  -Hartree energ DENC   =     -6144.25842449
  -exchange      EXHF   =         0.00000000
  -V(xc)+E(xc)   XCENC  =       936.67546473
  PAW double counting   =     18333.95277542   -18252.26986835
  entropy T*S    EENTRO =        -0.00393784
  eigenvalues    EBANDS =     -2529.88542503
  atomic energy  EATOM  =     23044.33489042
  ---------------------------------------------------
  free energy    TOTEN  =      -430.10836576 eV

  energy without entropy =     -430.10442792  energy(sigma->0) =     -430.10639684


--------------------------------------------------------------------------------------------------------




--------------------------------------- Iteration      1(   5)  ---------------------------------------


    TRIAL :  cpu time   31.2010: real time   31.6836
    CORREC:  cpu time    0.0010: real time    0.0010
    CHARGE:  cpu time    1.9313: real time    1.9491
    --------------------------------------------
      LOOP:  cpu time   33.1359: real time   33.6366

 eigenvalue-minimisations  :  9000
 total energy-change (2. order) :-0.8279739E-01  (-0.8243867E-01)
 number of electron     196.0000009 magnetization 
 augmentation part       26.2142311 magnetization 

 Free energy of the ion-electron system (eV)
  ---------------------------------------------------
  alpha Z        PSCENC =      1109.90609809
  Ewald energy   TEWEN  =    -16928.55993872
  -Hartree energ DENC   =     -6144.25842449
  -exchange      EXHF   =         0.00000000
  -V(xc)+E(xc)   XCENC  =       936.67546473
  PAW double counting   =     18333.95277542   -18252.26986835
  entropy T*S    EENTRO =        -0.00401796
  eigenvalues    EBANDS =     -2529.96814230
  atomic energy  EATOM  =     23044.33489042
  ---------------------------------------------------
  free energy    TOTEN  =      -430.19116315 eV

  energy without entropy =     -430.18714519  energy(sigma->0) =     -430.18915417


--------------------------------------------------------------------------------------------------------




--------------------------------------- Iteration      1(   6)  ---------------------------------------


    POTLOK:  cpu time    0.2272: real time    0.2286
    SETDIJ:  cpu time    0.7240: real time    0.7283
    TRIAL :  cpu time   24.4302: real time   24.6795
    CORREC:  cpu time    8.9566: real time    9.0339
    CHARGE:  cpu time    2.0476: real time    2.0660
    --------------------------------------------
      LOOP:  cpu time   36.3941: real time   36.7452

 eigenvalue-minimisations  :     0
 total energy-change (2. order) : 0.1198787E+03  (-0.3054303E+02)
 number of electron     196.0000013 magnetization 
 augmentation part       28.6009275 magnetization 

 Free energy of the ion-electron system (eV)
  ---------------------------------------------------
  alpha Z        PSCENC =      1109.90609809
  Ewald energy   TEWEN  =    -16928.55993872
  -Hartree energ DENC   =     -5758.32421830
  -exchange      EXHF   =         0.00000000
  -V(xc)+E(xc)   XCENC  =       946.08556277
  PAW double counting   =     30445.08725367   -30430.11313795
  entropy T*S    EENTRO =        -0.00456636
  eigenvalues    EBANDS =     -2738.72496194
  atomic energy  EATOM  =     23044.33489042
  ---------------------------------------------------
  free energy    TOTEN  =      -310.31246991 eV

  energy without entropy =     -310.30790355  energy(sigma->0) =     -310.31018673


--------------------------------------------------------------------------------------------------------




--------------------------------------- Iteration      1(   7)  ---------------------------------------


    POTLOK:  cpu time    0.2073: real time    0.2087
    SETDIJ:  cpu time    0.7440: real time    0.7482
    TRIAL :  cpu time   24.6098: real time   24.8355
    CORREC:  cpu time    9.0308: real time    9.1096
    CHARGE:  cpu time    2.0450: real time    2.0629
    --------------------------------------------
      LOOP:  cpu time   36.6489: real time   36.9781

 eigenvalue-minimisations  :     0
 total energy-change (2. order) :-0.3149682E+02  (-0.4179763E+01)
 number of electron     196.0000015 magnetization 
 augmentation part       28.7155399 magnetization 

 Free energy of the ion-electron system (eV)
  ---------------------------------------------------
  alpha Z        PSCENC =      1109.90609809
  Ewald energy   TEWEN  =    -16928.55993872
  -Hartree energ DENC   =     -5950.69534110
  -exchange      EXHF   =         0.00000000
  -V(xc)+E(xc)   XCENC  =       956.67071903
  PAW double counting   =     29192.04212803   -29158.87284881
  entropy T*S    EENTRO =        -0.00527357
  eigenvalues    EBANDS =     -2606.63043103
  atomic energy  EATOM  =     23044.33489042
  ---------------------------------------------------
  free energy    TOTEN  =      -341.80929044 eV

  energy without entropy =     -341.80401687  energy(sigma->0) =     -341.80665366


--------------------------------------------------------------------------------------------------------




--------------------------------------- Iteration      1(   8)  ---------------------------------------


    POTLOK:  cpu time    0.2038: real time    0.2053
    SETDIJ:  cpu time    0.7377: real time    0.7426
    TRIAL :  cpu time   25.2122: real time   25.4911
    CORREC:  cpu time    8.4627: real time    8.5346
    CHARGE:  cpu time    1.9701: real time    1.9861
    --------------------------------------------
      LOOP:  cpu time   36.5882: real time   36.9618

 eigenvalue-minimisations  :     0
 total energy-change (2. order) :-0.4182132E+01  (-0.9619202E+00)
 number of electron     196.0000015 magnetization 
 augmentation part       28.8324489 magnetization 

 Free energy of the ion-electron system (eV)
  ---------------------------------------------------
  alpha Z        PSCENC =      1109.90609809
  Ewald energy   TEWEN  =    -16928.55993872
  -Hartree energ DENC   =     -5981.25623438
  -exchange      EXHF   =         0.00000000
  -V(xc)+E(xc)   XCENC  =       958.59582683
  PAW double counting   =     28398.77167365   -28359.68442540
  entropy T*S    EENTRO =        -0.00457300
  eigenvalues    EBANDS =     -2588.09403953
  atomic energy  EATOM  =     23044.33489042
  ---------------------------------------------------
  free energy    TOTEN  =      -345.99142261 eV

  energy without entropy =     -345.98684960  energy(sigma->0) =     -345.98913610


--------------------------------------------------------------------------------------------------------




--------------------------------------- Iteration      1(   9)  ---------------------------------------


    POTLOK:  cpu time    0.2972: real time    0.2987
    SETDIJ:  cpu time    0.6588: real time    0.6625
    TRIAL :  cpu time   25.4189: real time   25.6585
    CORREC:  cpu time    9.2831: real time    9.3666
    CHARGE:  cpu time    2.0882: real time    2.1065
    --------------------------------------------
      LOOP:  cpu time   37.7565: real time   38.1035

 eigenvalue-minimisations  :     0
 total energy-change (2. order) :-0.9615386E+00  (-0.3728677E+00)
 number of electron     196.0000015 magnetization 
 augmentation part       28.8386028 magnetization 

 Free energy of the ion-electron system (eV)
  ---------------------------------------------------
  alpha Z        PSCENC =      1109.90609809
  Ewald energy   TEWEN  =    -16928.55993872
  -Hartree energ DENC   =     -5997.68624192
  -exchange      EXHF   =         0.00000000
  -V(xc)+E(xc)   XCENC  =       959.52262081
  PAW double counting   =     28036.67765853   -27994.01379467
  entropy T*S    EENTRO =        -0.00385076
  eigenvalues    EBANDS =     -2577.12968079
  atomic energy  EATOM  =     23044.33489042
  ---------------------------------------------------
  free energy    TOTEN  =      -346.95296125 eV

  energy without entropy =     -346.94911049  energy(sigma->0) =     -346.95103587


--------------------------------------------------------------------------------------------------------




--------------------------------------- Iteration      1(  10)  ---------------------------------------


    POTLOK:  cpu time    0.2158: real time    0.2172
    SETDIJ:  cpu time    0.8668: real time    0.8723
    TRIAL :  cpu time   25.7728: real time   26.1374
    CORREC:  cpu time    9.1440: real time    9.2302
    CHARGE:  cpu time    2.0028: real time    2.0204
    --------------------------------------------
      LOOP:  cpu time   38.0040: real time   38.4798

 eigenvalue-minimisations  :     0
 total energy-change (2. order) :-0.3730274E+00  (-0.1079548E+00)
 number of electron     196.0000014 magnetization 
 augmentation part       28.8264284 magnetization 

 Free energy of the ion-electron system (eV)
  ---------------------------------------------------
  alpha Z        PSCENC =      1109.90609809
  Ewald energy   TEWEN  =    -16928.55993872
  -Hartree energ DENC   =     -6003.05950778
  -exchange      EXHF   =         0.00000000
  -V(xc)+E(xc)   XCENC  =       959.87834082
  PAW double counting   =     27888.56867200   -27844.01135717
  entropy T*S    EENTRO =        -0.00361130
  eigenvalues    EBANDS =     -2574.37933553
  atomic energy  EATOM  =     23044.33489042
  ---------------------------------------------------
  free energy    TOTEN  =      -347.32598861 eV

  energy without entropy =     -347.32237732  energy(sigma->0) =     -347.32418297


--------------------------------------------------------------------------------------------------------




--------------------------------------- Iteration      1(  11)  ---------------------------------------


    POTLOK:  cpu time    0.2016: real time    0.2028
    SETDIJ:  cpu time    0.7421: real time    0.7464
    TRIAL :  cpu time   25.5679: real time   26.0565
    CORREC:  cpu time    8.5815: real time    8.6562
    CHARGE:  cpu time    2.0791: real time    2.0964
    --------------------------------------------
      LOOP:  cpu time   37.1814: real time   37.7683

 eigenvalue-minimisations  :     0
 total energy-change (2. order) :-0.1079620E+00  (-0.4780927E-01)
 number of electron     196.0000014 magnetization 
 augmentation part       28.8301236 magnetization 

 Free energy of the ion-electron system (eV)
  ---------------------------------------------------
  alpha Z        PSCENC =      1109.90609809
  Ewald energy   TEWEN  =    -16928.55993872
  -Hartree energ DENC   =     -6003.67231071
  -exchange      EXHF   =         0.00000000
  -V(xc)+E(xc)   XCENC  =       959.93647128
  PAW double counting   =     27880.54373434   -27835.49520400
  entropy T*S    EENTRO =        -0.00325719
  eigenvalues    EBANDS =     -2574.42408006
  atomic energy  EATOM  =     23044.33489042
  ---------------------------------------------------
  free energy    TOTEN  =      -347.43395064 eV

  energy without entropy =     -347.43069345  energy(sigma->0) =     -347.43232204


--------------------------------------------------------------------------------------------------------




--------------------------------------- Iteration      1(  12)  ---------------------------------------


    POTLOK:  cpu time    0.2086: real time    0.2098
    SETDIJ:  cpu time    0.7399: real time    0.7439
    TRIAL :  cpu time   25.4858: real time   25.7194
    CORREC:  cpu time    9.2170: real time    9.2938
    CHARGE:  cpu time    2.2429: real time    2.2616
    --------------------------------------------
      LOOP:  cpu time   37.8951: real time   38.2303

 eigenvalue-minimisations  :     0
 total energy-change (2. order) :-0.4781094E-01  (-0.2519463E-01)
 number of electron     196.0000013 magnetization 
 augmentation part       28.8340167 magnetization 

 Free energy of the ion-electron system (eV)
  ---------------------------------------------------
  alpha Z        PSCENC =      1109.90609809
  Ewald energy   TEWEN  =    -16928.55993872
  -Hartree energ DENC   =     -6003.79228597
  -exchange      EXHF   =         0.00000000
  -V(xc)+E(xc)   XCENC  =       959.93930986
  PAW double counting   =     27917.04573417   -27871.94520515
  entropy T*S    EENTRO =        -0.00303233
  eigenvalues    EBANDS =     -2574.40710710
  atomic energy  EATOM  =     23044.33489042
  ---------------------------------------------------
  free energy    TOTEN  =      -347.48176158 eV

  energy without entropy =     -347.47872925  energy(sigma->0) =     -347.48024541


--------------------------------------------------------------------------------------------------------




--------------------------------------- Iteration      1(  13)  ---------------------------------------


    POTLOK:  cpu time    0.2049: real time    0.2062
    SETDIJ:  cpu time    0.7525: real time    0.7568
    TRIAL :  cpu time   25.5621: real time   25.9308
    CORREC:  cpu time    8.7995: real time    8.8791
    CHARGE:  cpu time    2.1207: real time    2.1378
    --------------------------------------------
      LOOP:  cpu time   37.4477: real time   37.9193

 eigenvalue-minimisations  :     0
 total energy-change (2. order) :-0.2516453E-01  (-0.1146860E-01)
 number of electron     196.0000013 magnetization 
 augmentation part       28.8282026 magnetization 

 Free energy of the ion-electron system (eV)
  ---------------------------------------------------
  alpha Z        PSCENC =      1109.90609809
  Ewald energy   TEWEN  =    -16928.55993872
  -Hartree energ DENC   =     -6004.59380786
  -exchange      EXHF   =         0.00000000
  -V(xc)+E(xc)   XCENC  =       959.96546442
  PAW double counting   =     27971.24062494   -27926.19408407
  entropy T*S    EENTRO =        -0.00286825
  eigenvalues    EBANDS =     -2573.60314101
  atomic energy  EATOM  =     23044.33489042
  ---------------------------------------------------
  free energy    TOTEN  =      -347.50692611 eV

  energy without entropy =     -347.50405786  energy(sigma->0) =     -347.50549198


--------------------------------------------------------------------------------------------------------




--------------------------------------- Iteration      1(  14)  ---------------------------------------


    POTLOK:  cpu time    0.2055: real time    0.2068
    SETDIJ:  cpu time    0.7782: real time    0.7826
    TRIAL :  cpu time   26.2910: real time   26.6249
    CORREC:  cpu time    8.5511: real time    8.6261
    CHARGE:  cpu time    1.9948: real time    2.0123
    --------------------------------------------
      LOOP:  cpu time   37.8317: real time   38.2641

 eigenvalue-minimisations  :     0
 total energy-change (2. order) :-0.1145844E-01  (-0.5174077E-02)
 number of electron     196.0000013 magnetization 
 augmentation part       28.8281634 magnetization 

 Free energy of the ion-electron system (eV)
  ---------------------------------------------------
  alpha Z        PSCENC =      1109.90609809
  Ewald energy   TEWEN  =    -16928.55993872
  -Hartree energ DENC   =     -6004.89604496
  -exchange      EXHF   =         0.00000000
  -V(xc)+E(xc)   XCENC  =       959.97254818
  PAW double counting   =     28001.14941500   -27956.14006852
  entropy T*S    EENTRO =        -0.00274141
  eigenvalues    EBANDS =     -2573.28241579
  atomic energy  EATOM  =     23044.33489042
  ---------------------------------------------------
  free energy    TOTEN  =      -347.51838455 eV

  energy without entropy =     -347.51564314  energy(sigma->0) =     -347.51701384


--------------------------------------------------------------------------------------------------------




--------------------------------------- Iteration      1(  15)  ---------------------------------------


    POTLOK:  cpu time    0.2381: real time    0.2398
    SETDIJ:  cpu time    0.7053: real time    0.7093
    TRIAL :  cpu time   25.0461: real time   25.4179
    CORREC:  cpu time    8.9423: real time    9.0843
    CHARGE:  cpu time    2.0600: real time    2.0776
    --------------------------------------------
      LOOP:  cpu time   36.9938: real time   37.5327

 eigenvalue-minimisations  :     0
 total energy-change (2. order) :-0.5169402E-02  (-0.2061853E-02)
 number of electron     196.0000013 magnetization 
 augmentation part       28.8356631 magnetization 

 Free energy of the ion-electron system (eV)
  ---------------------------------------------------
  alpha Z        PSCENC =      1109.90609809
  Ewald energy   TEWEN  =    -16928.55993872
  -Hartree energ DENC   =     -6004.76183103
  -exchange      EXHF   =         0.00000000
  -V(xc)+E(xc)   XCENC  =       959.98165241
  PAW double counting   =     28002.68390881   -27957.62141062
  entropy T*S    EENTRO =        -0.00269632
  eigenvalues    EBANDS =     -2573.48418192
  atomic energy  EATOM  =     23044.33489042
  ---------------------------------------------------
  free energy    TOTEN  =      -347.52355395 eV

  energy without entropy =     -347.52085763  energy(sigma->0) =     -347.52220579


--------------------------------------------------------------------------------------------------------




--------------------------------------- Iteration      1(  16)  ---------------------------------------


    POTLOK:  cpu time    0.2381: real time    0.2395
    SETDIJ:  cpu time    0.6983: real time    0.7023
    TRIAL :  cpu time   25.5649: real time   25.8791
    CORREC:  cpu time    8.9540: real time    9.0271
    CHARGE:  cpu time    1.9734: real time    1.9902
    --------------------------------------------
      LOOP:  cpu time   37.4375: real time   37.8482

 eigenvalue-minimisations  :     0
 total energy-change (2. order) :-0.2059232E-02  (-0.8198059E-03)
 number of electron     196.0000013 magnetization 
 augmentation part       28.8346038 magnetization 

 Free energy of the ion-electron system (eV)
  ---------------------------------------------------
  alpha Z        PSCENC =      1109.90609809
  Ewald energy   TEWEN  =    -16928.55993872
  -Hartree energ DENC   =     -6005.16665694
  -exchange      EXHF   =         0.00000000
  -V(xc)+E(xc)   XCENC  =       960.00859802
  PAW double counting   =     27992.95113048   -27947.80047473
  entropy T*S    EENTRO =        -0.00268703
  eigenvalues    EBANDS =     -2573.19656350
  atomic energy  EATOM  =     23044.33489042
  ---------------------------------------------------
  free energy    TOTEN  =      -347.52561318 eV

  energy without entropy =     -347.52292615  energy(sigma->0) =     -347.52426967


--------------------------------------------------------------------------------------------------------




--------------------------------------- Iteration      1(  17)  ---------------------------------------


    POTLOK:  cpu time    0.2088: real time    0.2100
    SETDIJ:  cpu time    0.7374: real time    0.7410
    TRIAL :  cpu time   25.0280: real time   25.3253
    CORREC:  cpu time    8.8413: real time    9.0125
    CHARGE:  cpu time    2.0833: real time    2.0994
    --------------------------------------------
      LOOP:  cpu time   36.9083: real time   37.3981

 eigenvalue-minimisations  :     0
 total energy-change (2. order) :-0.8196153E-03  (-0.3806724E-03)
 number of electron     196.0000013 magnetization 
 augmentation part       28.8336884 magnetization 

 Free energy of the ion-electron system (eV)
  ---------------------------------------------------
  alpha Z        PSCENC =      1109.90609809
  Ewald energy   TEWEN  =    -16928.55993872
  -Hartree energ DENC   =     -6004.84978504
  -exchange      EXHF   =         0.00000000
  -V(xc)+E(xc)   XCENC  =       959.99050454
  PAW double counting   =     27984.95456356   -27939.83998845
  entropy T*S    EENTRO =        -0.00270259
  eigenvalues    EBANDS =     -2573.46009018
  atomic energy  EATOM  =     23044.33489042
  ---------------------------------------------------
  free energy    TOTEN  =      -347.52643280 eV

  energy without entropy =     -347.52373021  energy(sigma->0) =     -347.52508150


--------------------------------------------------------------------------------------------------------




--------------------------------------- Iteration      1(  18)  ---------------------------------------


    POTLOK:  cpu time    0.2023: real time    0.2035
    SETDIJ:  cpu time    0.7399: real time    0.7437
    TRIAL :  cpu time   25.2047: real time   25.4495
    CORREC:  cpu time    9.0974: real time    9.1764
    CHARGE:  cpu time    1.8974: real time    1.9139
    --------------------------------------------
      LOOP:  cpu time   37.1502: real time   37.4967

 eigenvalue-minimisations  :     0
 total energy-change (2. order) :-0.3801317E-03  (-0.1633586E-03)
 number of electron     196.0000013 magnetization 
 augmentation part       28.8325888 magnetization 

 Free energy of the ion-electron system (eV)
  ---------------------------------------------------
  alpha Z        PSCENC =      1109.90609809
  Ewald energy   TEWEN  =    -16928.55993872
  -Hartree energ DENC   =     -6004.77769706
  -exchange      EXHF   =         0.00000000
  -V(xc)+E(xc)   XCENC  =       959.98486971
  PAW double counting   =     27983.10791164   -27938.02325470
  entropy T*S    EENTRO =        -0.00271618
  eigenvalues    EBANDS =     -2573.49698973
  atomic energy  EATOM  =     23044.33489042
  ---------------------------------------------------
  free energy    TOTEN  =      -347.52681293 eV

  energy without entropy =     -347.52409674  energy(sigma->0) =     -347.52545484


--------------------------------------------------------------------------------------------------------




--------------------------------------- Iteration      1(  19)  ---------------------------------------


    POTLOK:  cpu time    0.2204: real time    0.2218
    SETDIJ:  cpu time    0.7670: real time    0.7715
    TRIAL :  cpu time   25.3250: real time   25.7374
    CORREC:  cpu time    8.9559: real time    9.0287
    CHARGE:  cpu time    2.1097: real time    2.1275
    --------------------------------------------
      LOOP:  cpu time   37.4205: real time   37.9303

 eigenvalue-minimisations  :     0
 total energy-change (2. order) :-0.1623593E-03  (-0.6493245E-04)
 number of electron     196.0000013 magnetization 
 augmentation part       28.8328891 magnetization 

 Free energy of the ion-electron system (eV)
  ---------------------------------------------------
  alpha Z        PSCENC =      1109.90609809
  Ewald energy   TEWEN  =    -16928.55993872
  -Hartree energ DENC   =     -6004.73370812
  -exchange      EXHF   =         0.00000000
  -V(xc)+E(xc)   XCENC  =       959.98066018
  PAW double counting   =     27983.82591176   -27938.76358666
  entropy T*S    EENTRO =        -0.00272838
  eigenvalues    EBANDS =     -2573.51458607
  atomic energy  EATOM  =     23044.33489042
  ---------------------------------------------------
  free energy    TOTEN  =      -347.52697529 eV

  energy without entropy =     -347.52424691  energy(sigma->0) =     -347.52561110


--------------------------------------------------------------------------------------------------------




--------------------------------------- Iteration      1(  20)  ---------------------------------------


    POTLOK:  cpu time    0.2110: real time    0.2122
    SETDIJ:  cpu time    0.8800: real time    0.8849
    TRIAL :  cpu time   25.2349: real time   25.6871
    CORREC:  cpu time    9.4917: real time    9.5730
    CHARGE:  cpu time    2.1511: real time    2.1683
    --------------------------------------------
      LOOP:  cpu time   37.9962: real time   38.5537

 eigenvalue-minimisations  :     0
 total energy-change (2. order) :-0.6454883E-04  (-0.2315639E-04)
 number of electron     196.0000013 magnetization 
 augmentation part       28.8327051 magnetization 

 Free energy of the ion-electron system (eV)
  ---------------------------------------------------
  alpha Z        PSCENC =      1109.90609809
  Ewald energy   TEWEN  =    -16928.55993872
  -Hartree energ DENC   =     -6004.76544716
  -exchange      EXHF   =         0.00000000
  -V(xc)+E(xc)   XCENC  =       959.98215546
  PAW double counting   =     27984.50580118   -27939.43969535
  entropy T*S    EENTRO =        -0.00273287
  eigenvalues    EBANDS =     -2573.48817539
  atomic energy  EATOM  =     23044.33489042
  ---------------------------------------------------
  free energy    TOTEN  =      -347.52703984 eV

  energy without entropy =     -347.52430696  energy(sigma->0) =     -347.52567340


--------------------------------------------------------------------------------------------------------




--------------------------------------- Iteration      1(  21)  ---------------------------------------


    POTLOK:  cpu time    0.2095: real time    0.2109
    SETDIJ:  cpu time    0.7897: real time    0.7947
    TRIAL :  cpu time   25.8660: real time   26.2959
    CORREC:  cpu time    9.0493: real time    9.1223
    CHARGE:  cpu time    2.0057: real time    2.0226
    --------------------------------------------
      LOOP:  cpu time   37.9231: real time   38.4502

 eigenvalue-minimisations  :     0
 total energy-change (2. order) :-0.2317160E-04  (-0.9831918E-05)
 number of electron     196.0000013 magnetization 
 augmentation part       28.8329067 magnetization 

 Free energy of the ion-electron system (eV)
  ---------------------------------------------------
  alpha Z        PSCENC =      1109.90609809
  Ewald energy   TEWEN  =    -16928.55993872
  -Hartree energ DENC   =     -6004.72762318
  -exchange      EXHF   =         0.00000000
  -V(xc)+E(xc)   XCENC  =       959.98097796
  PAW double counting   =     27984.41016962   -27939.34407698
  entropy T*S    EENTRO =        -0.00273504
  eigenvalues    EBANDS =     -2573.52482736
  atomic energy  EATOM  =     23044.33489042
  ---------------------------------------------------
  free energy    TOTEN  =      -347.52706301 eV

  energy without entropy =     -347.52432797  energy(sigma->0) =     -347.52569549


--------------------------------------------------------------------------------------------------------




--------------------------------------- Iteration      1(  22)  ---------------------------------------


    POTLOK:  cpu time    0.2044: real time    0.2055
    SETDIJ:  cpu time    0.7343: real time    0.7385
    TRIAL :  cpu time   24.8855: real time   25.1539
    CORREC:  cpu time    9.1349: real time    9.2119
    CHARGE:  cpu time    2.0267: real time    2.0449
    --------------------------------------------
      LOOP:  cpu time   36.9899: real time   37.3590

 eigenvalue-minimisations  :     0
 total energy-change (2. order) :-0.9853273E-05  (-0.4054485E-05)
 number of electron     196.0000013 magnetization 
 augmentation part       28.8327593 magnetization 

 Free energy of the ion-electron system (eV)
  ---------------------------------------------------
  alpha Z        PSCENC =      1109.90609809
  Ewald energy   TEWEN  =    -16928.55993872
  -Hartree energ DENC   =     -6004.77304683
  -exchange      EXHF   =         0.00000000
  -V(xc)+E(xc)   XCENC  =       959.98272998
  PAW double counting   =     27984.13112423   -27939.06114576
  entropy T*S    EENTRO =        -0.00273385
  eigenvalues    EBANDS =     -2573.48504924
  atomic energy  EATOM  =     23044.33489042
  ---------------------------------------------------
  free energy    TOTEN  =      -347.52707286 eV

  energy without entropy =     -347.52433901  energy(sigma->0) =     -347.52570593


--------------------------------------------------------------------------------------------------------




--------------------------------------- Iteration      1(  23)  ---------------------------------------


    POTLOK:  cpu time    0.2125: real time    0.2138
    SETDIJ:  cpu time    0.7335: real time    0.7379
    TRIAL :  cpu time   25.5125: real time   25.9662
    CORREC:  cpu time    8.6182: real time    8.6913
    CHARGE:  cpu time    2.0915: real time    2.1088
    --------------------------------------------
      LOOP:  cpu time   37.1694: real time   37.7207

 eigenvalue-minimisations  :     0
 total energy-change (2. order) :-0.4106110E-05  (-0.1764547E-05)
 number of electron     196.0000013 magnetization 
 augmentation part       28.8327896 magnetization 

 Free energy of the ion-electron system (eV)
  ---------------------------------------------------
  alpha Z        PSCENC =      1109.90609809
  Ewald energy   TEWEN  =    -16928.55993872
  -Hartree energ DENC   =     -6004.75994344
  -exchange      EXHF   =         0.00000000
  -V(xc)+E(xc)   XCENC  =       959.98208125
  PAW double counting   =     27983.87119865   -27938.80245284
  entropy T*S    EENTRO =        -0.00273249
  eigenvalues    EBANDS =     -2573.49627653
  atomic energy  EATOM  =     23044.33489042
  ---------------------------------------------------
  free energy    TOTEN  =      -347.52707697 eV

  energy without entropy =     -347.52434447  energy(sigma->0) =     -347.52571072


--------------------------------------------------------------------------------------------------------




--------------------------------------- Iteration      1(  24)  ---------------------------------------


    POTLOK:  cpu time    0.2182: real time    0.2196
    SETDIJ:  cpu time    0.7617: real time    0.7661
    TRIAL :  cpu time   25.8233: real time   26.2378
    CORREC:  cpu time    8.8705: real time    8.9429
    CHARGE:  cpu time    2.0416: real time    2.0580
    --------------------------------------------
      LOOP:  cpu time   37.7236: real time   38.2335

 eigenvalue-minimisations  :     0
 total energy-change (2. order) :-0.1787954E-05  (-0.6510820E-06)
 number of electron     196.0000013 magnetization 
 augmentation part       28.8327891 magnetization 

 Free energy of the ion-electron system (eV)
  ---------------------------------------------------
  alpha Z        PSCENC =      1109.90609809
  Ewald energy   TEWEN  =    -16928.55993872
  -Hartree energ DENC   =     -6004.75820410
[...]
  band No.  band energies     occupation 
      1     -53.3727      2.00000
      2     -53.2199      2.00000
      3     -53.2122      2.00000
      4     -52.9857      2.00000
      5     -52.9448      2.00000
      6     -52.9084      2.00000
      7     -52.8652      2.00000
      8     -52.8532      2.00000
      9     -52.6042      2.00000
     10     -52.3562      2.00000
     11     -52.3524      2.00000
     12     -52.2101      2.00000
     13     -28.8994      2.00000
     14     -28.6054      2.00000
     15     -28.5945      2.00000
     16     -28.2006      2.00000
     17     -27.3079      2.00000
     18     -27.2876      2.00000
     19     -27.2110      2.00000
     20     -27.1139      2.00000
     21     -26.7220      2.00000
     22     -26.5150      2.00000
     23     -26.5087      2.00000
     24     -26.4245      2.00000
     25     -26.4091      2.00000
     26     -26.3903      2.00000
     27     -26.3762      2.00000
     28     -26.3320      2.00000
     29     -26.3291      2.00000
     30     -26.3082      2.00000
     31     -26.2897      2.00000
     32     -26.2785      2.00000
     33     -26.2352      2.00000
     34     -26.2289      2.00000
     35     -26.1305      2.00000
     36     -26.1164      2.00000
     37     -25.9838      2.00000
     38     -25.9824      2.00000
     39     -25.8906      2.00000
     40     -25.8626      2.00000
     41     -25.8523      2.00000
     42     -25.8123      2.00000
     43     -25.7655      2.00000
     44     -25.5584      2.00000
     45     -24.6237      2.00000
     46     -24.4516      2.00000
     47     -24.4349      2.00000
     48     -24.2903      2.00000
     49      -0.6538      2.00000
     50      -0.0346      2.00000
     51      -0.0190      2.00000
     52       0.5040      2.00000
     53       1.5215      2.00000
     54       1.5572      2.00000
     55       2.5572      2.00000
     56       3.5468      2.00000
     57       3.8995      2.00000
     58       4.0734      2.00000
     59       4.0848      2.00000
     60       4.2834      2.00000
     61       4.3200      2.00000
     62       4.3582      2.00000
     63       4.4182      2.00000
     64       4.4673      2.00000
     65       4.7983      2.00000
     66       4.9361      2.00000
     67       4.9798      2.00000
     68       5.0810      2.00000
     69       5.3436      2.00000
     70       5.5240      2.00000
     71       5.6560      2.00000
     72       6.1631      2.00000
     73       6.4453      2.00000
     74       6.5172      2.00000
     75       6.7910      2.00000
     76       7.0439      2.00000
     77       7.3508      2.00000
     78       7.4260      2.00000
     79       7.5430      2.00000
     80       7.6526      2.00000
     81       7.6971      2.00000
     82       7.7547      2.00000
     83       7.8390      2.00000
     84       7.9755      2.00000
     85       8.0489      2.00000
     86       8.2645      2.00000
     87       8.3273      2.00000
     88       8.4483      2.00000
     89       8.5025      2.00000
     90       8.6898      2.00000
     91       8.9914      2.00000
     92       9.0026      2.00000
     93       9.1215      2.00000
     94       9.1519      2.00000
     95       9.1768      2.00000
     96       9.4806      2.00000
     97       9.4835      2.00000
     98       9.5469      2.00000
     99      10.1736      0.00000
    100      10.2645      0.00000
    101      10.4081      0.00000
    102      10.4308      0.00000
    103      10.5152      0.00000
    104      10.5528      0.00000
    105      10.5805      0.00000
    106      10.7749      0.00000
    107      11.2164      0.00000
    108      11.3664      0.00000
    109      11.3730      0.00000
    110      11.3964      0.00000
    111      11.4346      0.00000
    112      11.5563      0.00000
    113      11.8161      0.00000
    114      12.0722      0.00000
    115      12.2931      0.00000
    116      12.3045      0.00000
    117      12.7766      0.00000
    118      12.8019      0.00000
    119      12.9788      0.00000
    120      13.2182      0.00000

 k-point    28 :      -0.3333    0.5000    0.3333
  band No.  band energies     occupation 
      1     -53.3826      2.00000
      2     -53.2280      2.00000
      3     -53.1983      2.00000
      4     -52.9516      2.00000
      5     -52.9510      2.00000
      6     -52.9113      2.00000
      7     -52.8657      2.00000
      8     -52.8527      2.00000
      9     -52.6377      2.00000
     10     -52.3661      2.00000
     11     -52.3398      2.00000
     12     -52.2002      2.00000
     13     -28.9380      2.00000
     14     -28.6631      2.00000
     15     -28.5933      2.00000
     16     -28.2198      2.00000
     17     -27.2607      2.00000
     18     -27.2226      2.00000
     19     -26.8110      2.00000
     20     -26.7480      2.00000
     21     -26.7406      2.00000
     22     -26.7246      2.00000
     23     -26.6812      2.00000
     24     -26.5264      2.00000
     25     -26.5018      2.00000
     26     -26.4119      2.00000
     27     -26.3726      2.00000
     28     -26.3652      2.00000
     29     -26.3272      2.00000
     30     -26.3172      2.00000
     31     -26.3021      2.00000
     32     -26.2742      2.00000
     33     -26.2717      2.00000
     34     -26.2397      2.00000
     35     -26.1415      2.00000
     36     -26.1265      2.00000
     37     -26.0732      2.00000
     38     -25.9990      2.00000
     39     -25.8907      2.00000
     40     -25.8666      2.00000
     41     -25.8631      2.00000
     42     -25.8353      2.00000
     43     -25.8012      2.00000
     44     -25.5713      2.00000
     45     -24.5914      2.00000
     46     -24.4448      2.00000
     47     -24.3618      2.00000
     48     -24.2412      2.00000
     49      -0.5140      2.00000
     50      -0.1458      2.00000
     51       0.1323      2.00000
     52       0.3294      2.00000
     53       1.5523      2.00000
     54       1.5585      2.00000
     55       2.4011      2.00000
     56       3.5949      2.00000
     57       3.9063      2.00000
     58       4.0250      2.00000
     59       4.0278      2.00000
     60       4.0848      2.00000
     61       4.2841      2.00000
     62       4.3552      2.00000
     63       4.3980      2.00000
     64       4.8207      2.00000
     65       4.8233      2.00000
     66       4.9861      2.00000
     67       5.0353      2.00000
     68       5.0908      2.00000
     69       5.3174      2.00000
     70       5.3272      2.00000
     71       5.5758      2.00000
     72       6.2997      2.00000
     73       6.3270      2.00000
     74       6.6168      2.00000
     75       6.7225      2.00000
     76       6.8330      2.00000
     77       7.3855      2.00000
     78       7.4796      2.00000
     79       7.5811      2.00000
     80       7.6505      2.00000
     81       7.6756      2.00000
     82       7.8911      2.00000
     83       7.9409      2.00000
     84       8.0319      2.00000
     85       8.1254      2.00000
     86       8.3015      2.00000
     87       8.3509      2.00000
     88       8.5857      2.00000
     89       8.8264      2.00000
     90       8.8527      2.00000
     91       8.9362      2.00000
     92       8.9838      2.00000
     93       9.1137      2.00000
     94       9.1216      2.00000
     95       9.3370      2.00000
     96       9.4031      2.00000
     97       9.5755      2.00000
     98       9.5967      2.00000
     99       9.8437      1.98065
    100       9.9311      0.00012
    101       9.9936      0.00000
    102      10.2366      0.00000
    103      10.2847      0.00000
    104      10.5028      0.00000
    105      10.6548      0.00000
    106      10.8228      0.00000
    107      11.1870      0.00000
    108      11.2145      0.00000
    109      11.5001      0.00000
    110      11.5880      0.00000
    111      11.6583      0.00000
    112      11.7963      0.00000
    113      11.9801      0.00000
    114      11.9844      0.00000
    115      12.1249      0.00000
    116      12.2838      0.00000
    117      12.4665      0.00000
    118      12.9656      0.00000
    119      12.9969      0.00000
    120      13.2177      0.00000

 k-point    29 :      -0.3333   -0.3333    0.3333
  band No.  band energies     occupation 
      1     -53.3928      2.00000
      2     -53.2104      2.00000
      3     -53.2101      2.00000
      4     -52.9580      2.00000
      5     -52.9105      2.00000
      6     -52.9105      2.00000
      7     -52.8661      2.00000
      8     -52.8524      2.00000
      9     -52.6815      2.00000
     10     -52.3511      2.00000
     11     -52.3506      2.00000
     12     -52.1908      2.00000
     13     -28.9730      2.00000
     14     -28.6576      2.00000
     15     -28.6575      2.00000
     16     -28.2411      2.00000
     17     -26.9128      2.00000
     18     -26.8142      2.00000
     19     -26.8141      2.00000
     20     -26.8082      2.00000
     21     -26.7174      2.00000
     22     -26.6780      2.00000
     23     -26.6780      2.00000
     24     -26.6155      2.00000
     25     -26.5969      2.00000
     26     -26.5257      2.00000
     27     -26.5253      2.00000
     28     -26.4167      2.00000
     29     -26.3676      2.00000
     30     -26.3259      2.00000
     31     -26.3160      2.00000
     32     -26.3160      2.00000
     33     -26.2640      2.00000
     34     -26.2510      2.00000
     35     -26.1655      2.00000
     36     -26.1241      2.00000
     37     -26.1241      2.00000
     38     -25.9501      2.00000
     39     -25.9501      2.00000
     40     -25.9374      2.00000
     41     -25.8700      2.00000
     42     -25.8695      2.00000
     43     -25.7842      2.00000
     44     -25.5936      2.00000
     45     -24.5487      2.00000
     46     -24.3636      2.00000
     47     -24.3635      2.00000
     48     -24.2018      2.00000
     49      -0.4638      2.00000
     50      -0.2768      2.00000
     51       0.3475      2.00000
     52       0.3481      2.00000
     53       1.6727      2.00000
     54       1.6733      2.00000
     55       2.0314      2.00000
     56       3.4135      2.00000
     57       3.6974      2.00000
     58       4.0297      2.00000
     59       4.0297      2.00000
     60       4.2984      2.00000
     61       4.3544      2.00000
     62       4.3547      2.00000
     63       4.4925      2.00000
     64       4.7780      2.00000
     65       4.8137      2.00000
     66       4.8958      2.00000
     67       4.9340      2.00000
     68       4.9798      2.00000
     69       5.2490      2.00000
     70       5.2496      2.00000
     71       6.3028      2.00000
     72       6.3031      2.00000
     73       6.3520      2.00000
     74       6.5112      2.00000
     75       6.5115      2.00000
     76       6.6160      2.00000
     77       7.4082      2.00000
     78       7.5001      2.00000
     79       7.5003      2.00000
     80       7.5140      2.00000
     81       7.5803      2.00000
     82       7.7944      2.00000
     83       8.0612      2.00000
     84       8.0638      2.00000
     85       8.4481      2.00000
     86       8.5839      2.00000
     87       8.5841      2.00000
     88       8.6022      2.00000
     89       8.8296      2.00000
     90       8.8316      2.00000
     91       8.8316      2.00000
     92       9.1017      2.00000
     93       9.1018      2.00000
     94       9.1168      2.00000
     95       9.4010      2.00000
     96       9.4565      2.00000
     97       9.4567      2.00000
     98       9.5396      2.00000
     99       9.6273      2.00000
    100       9.9603      0.00000
    101       9.9603      0.00000
    102       9.9823      0.00000
    103       9.9823      0.00000
    104      10.1875      0.00000
    105      10.4964      0.00000
    106      10.5777      0.00000
    107      10.9848      0.00000
    108      11.2688      0.00000
    109      11.2688      0.00000
    110      11.6295      0.00000
    111      11.6447      0.00000
    112      12.2608      0.00000
    113      12.2705      0.00000
    114      12.3408      0.00000
    115      12.3455      0.00000
    116      12.4115      0.00000
    117      12.7529      0.00000
    118      13.1315      0.00000
    119      13.1498      0.00000
    120      13.3521      0.00000

 k-point    30 :       0.5000    0.5000    0.5000
  band No.  band energies     occupation 
      1     -53.3920      2.00000
      2     -53.2112      2.00000
      3     -53.2109      2.00000
      4     -52.9587      2.00000
      5     -52.9098      2.00000
      6     -52.9098      2.00000
      7     -52.8667      2.00000
      8     -52.8517      2.00000
      9     -52.6807      2.00000
     10     -52.3518      2.00000
     11     -52.3512      2.00000
     12     -52.1902      2.00000
     13     -28.9750      2.00000
     14     -28.6557      2.00000
     15     -28.6556      2.00000
     16     -28.2427      2.00000
     17     -26.9112      2.00000
     18     -26.8155      2.00000
     19     -26.8154      2.00000
     20     -26.8099      2.00000
     21     -26.7381      2.00000
     22     -26.6765      2.00000
     23     -26.6764      2.00000
     24     -26.6143      2.00000
     25     -26.5984      2.00000
     26     -26.5066      2.00000
     27     -26.5062      2.00000
     28     -26.4148      2.00000
     29     -26.3689      2.00000
     30     -26.3299      2.00000
     31     -26.3299      2.00000
     32     -26.3116      2.00000
     33     -26.2768      2.00000
     34     -26.2373      2.00000
     35     -26.1852      2.00000
     36     -26.1256      2.00000
     37     -26.1255      2.00000
     38     -25.9489      2.00000
     39     -25.9488      2.00000
     40     -25.9363      2.00000
     41     -25.8558      2.00000
     42     -25.8552      2.00000
     43     -25.7974      2.00000
     44     -25.5944      2.00000
     45     -24.5490      2.00000
     46     -24.3633      2.00000
     47     -24.3631      2.00000
     48     -24.2022      2.00000
     49      -0.3189      2.00000
     50      -0.0128      2.00000
     51       0.0040      2.00000
     52       0.0047      2.00000
     53       1.5096      2.00000
     54       1.5102      2.00000
     55       2.5701      2.00000
     56       3.4502      2.00000
     57       3.7895      2.00000
     58       3.9916      2.00000
     59       3.9916      2.00000
     60       4.2685      2.00000
     61       4.2900      2.00000
     62       4.2905      2.00000
     63       4.4482      2.00000
     64       4.8359      2.00000
     65       4.8434      2.00000
     66       4.9953      2.00000
     67       5.0636      2.00000
     68       5.0643      2.00000
     69       5.0800      2.00000
     70       5.4475      2.00000
     71       5.6882      2.00000
     72       6.3371      2.00000
     73       6.3374      2.00000
     74       6.6703      2.00000
     75       6.6705      2.00000
     76       6.7937      2.00000
     77       7.2336      2.00000
     78       7.5118      2.00000
     79       7.5986      2.00000
     80       7.7244      2.00000
     81       7.7249      2.00000
     82       7.9713      2.00000
     83       8.3788      2.00000
     84       8.3913      2.00000
     85       8.4706      2.00000
     86       8.5468      2.00000
     87       8.6614      2.00000
     88       8.6941      2.00000
     89       8.6943      2.00000
     90       8.8798      2.00000
     91       8.9271      2.00000
     92       8.9272      2.00000
     93       8.9440      2.00000
     94       8.9441      2.00000
     95       9.1233      2.00000
     96       9.2844      2.00000
     97       9.5777      2.00000
     98       9.5779      2.00000
     99       9.8283      1.99940
    100       9.8283      1.99939
    101      10.1819      0.00000
    102      10.3088      0.00000
    103      10.3872      0.00000
    104      10.5072      0.00000
    105      10.5359      0.00000
    106      10.5361      0.00000
    107      11.2486      0.00000
    108      11.2791      0.00000
    109      11.4222      0.00000
    110      11.4638      0.00000
    111      11.4640      0.00000
    112      11.6456      0.00000
    113      11.8322      0.00000
    114      11.8340      0.00000
    115      12.0638      0.00000
    116      12.4594      0.00000
    117      12.7826      0.00000
    118      12.8046      0.00000
    119      12.8219      0.00000
    120      12.9633      0.00000


--------------------------------------------------------------------------------------------------------


 soft charge-density along one line, spin component           1
         0         1         2         3         4         5         6         7         8         9
 total charge-density along one line
 
 pseudopotential strength for first ion, spin component:           1
  5.934   8.991   0.000   0.001   0.000  -0.002  -0.003  -0.001
  8.991  13.613  -0.000  -0.000  -0.000  -0.004  -0.007  -0.002
  0.000  -0.000  -1.970   0.003  -0.006  -3.283   0.008  -0.012
  0.001  -0.000   0.003  -1.969   0.002   0.008  -3.279   0.004
  0.000  -0.000  -0.006   0.002  -1.961  -0.012   0.004  -3.265
 -0.002  -0.004  -3.283   0.008  -0.012  -5.258   0.016  -0.023
 -0.003  -0.007   0.008  -3.279   0.004   0.016  -5.249   0.008
 -0.001  -0.002  -0.012   0.004  -3.265  -0.023   0.008  -5.224
 total augmentation occupancy for first ion, spin component:           1
  3.120  -0.674   0.151   0.292   0.076  -0.039  -0.076  -0.020
 -0.674   0.170  -0.021  -0.041  -0.011   0.008   0.015   0.004
  0.151  -0.021   2.369  -0.373   0.273  -0.578   0.079  -0.061
  0.292  -0.041  -0.373   2.028  -0.187   0.079  -0.507   0.040
  0.076  -0.011   0.273  -0.187   1.961  -0.061   0.040  -0.486
 -0.039   0.008  -0.578   0.079  -0.061   0.149  -0.019   0.016
 -0.076   0.015   0.079  -0.507   0.040  -0.019   0.133  -0.009
 -0.020   0.004  -0.061   0.040  -0.486   0.016  -0.009   0.124


------------------------ aborting loop because EDIFF is reached ----------------------------------------




--------------------------------------------------------------------------------------------------------



  FREE ENERGIE OF THE ION-ELECTRON SYSTEM (eV)
  ---------------------------------------------------
  free  energy   TOTEN  =      -347.52707979 eV

  energy  without entropy=     -347.52434879  energy(sigma->0) =     -347.52571429
 


--------------------------------------------------------------------------------------------------------


    POTLOK:  cpu time    1.0001: real time    1.0069


--------------------------------------------------------------------------------------------------------


 writing wavefunctions
     LOOP+:  cpu time 1311.9651: real time 1328.4606
    4ORBIT:  cpu time    0.0000: real time    0.0000

 total amount of memory used by VASP MPI-rank0   288536. kBytes
=======================================================================

   base      :      30000. kBytes
   nonl-proj :      66771. kBytes
   fftplans  :      24350. kBytes
   grid      :      18307. kBytes
   one-center:        155. kBytes
   wavefun   :     148953. kBytes
 
  
  
 General timing and accounting informations for this job:
 ========================================================
  
                  Total CPU time used (sec):     1317.464
                            User time (sec):     1286.898
                          System time (sec):       30.566
                         Elapsed time (sec):     1334.992
  
                   Maximum memory used (kb):      458304.
                   Average memory used (kb):          N/A
  
                          Minor page faults:      6340076
                          Major page faults:           17
                 Voluntary context switches:         8527
