<?xml version="1.0" encoding="ISO-8859-1"?>
<modeling>
 <generator>
  <i name="program" type="string">vasp </i>
  <i name="version" type="string">6.2.0  </i>
  <i name="subversion" type="string">18Jan21 (build Jan 05 2022 15:41:44) complex                          parallel </i>
  <i name="platform" type="string">LinuxIFC </i>
  <i name="date" type="string">2025 05 07 </i>
  <i name="time" type="string">19:42:45 </i>
 </generator>
 <incar>
  <i type="string" name="SYSTEM">routine with relax: pwdword</i>
  <i type="string" name="PREC">Acc</i>
  <i type="int" name="IALGO">    38</i>
  <i type="string" name="ALGO">A</i>
  <i type="logical" name="ADDGRID"> T  </i>
  <i type="int" name="ICHARG">     2</i>
  <i type="int" name="NELM">   100</i>
  <i type="int" name="NELMIN">     6</i>
  <i name="EDIFF">      0.00000000</i>
  <i type="int" name="NSW">     0</i>
  <i type="int" name="ISIF">    -1</i>
  <i name="SYMPREC">      0.00010000</i>
  <i name="ENCUT">    600.00000000</i>
  <i type="logical" name="LREAL"> F  </i>
  <i type="int" name="ISMEAR">     0</i>
  <i name="SIGMA">      0.02000000</i>
  <i type="logical" name="LASPH"> T  </i>
  <i type="string" name="METAGGA">R2SCAN</i>
  <i type="logical" name="LMIXTAU"> F  </i>
 </incar>
 <primitive_cell>
  <structure name="primitive_cell" >
   <crystal>
    <varray name="basis" >
     <v>       5.71886089       0.00000000      -3.45051816 </v>
     <v>      -1.82285262       5.42056992      -3.45051816 </v>
     <v>       0.00000000       0.00000000       6.67918000 </v>
    </varray>
    <i name="volume">    207.05114242 </i>
    <varray name="rec_basis" >
     <v>       0.17486000       0.05880267       0.00000000 </v>
     <v>       0.00000000       0.18448245       0.00000000 </v>
     <v>       0.09033408       0.12568305       0.14971898 </v>
    </varray>
   </crystal>
   <varray name="positions" >
    <v>       0.25000000       0.25000000       1.00000000 </v>
    <v>       0.75000000       0.75000000       1.00000000 </v>
    <v>       0.00000000       0.00000000       0.00000000 </v>
    <v>       0.50000000       0.00000000       0.50000000 </v>
    <v>       0.00000000       0.50000000       0.50000000 </v>
    <v>       0.50000000       0.50000000       1.00000000 </v>
    <v>       0.75052000       0.25052000       0.00104000 </v>
    <v>       0.24948000       0.74948000       0.99896000 </v>
    <v>       0.25052000       0.24948000       0.50000000 </v>
    <v>       0.74948000       0.75052000       0.50000000 </v>
   </varray>
  </structure>
  <varray name="primitive_index" >
   <v type="int" >        1 </v>
   <v type="int" >        2 </v>
   <v type="int" >        3 </v>
   <v type="int" >        4 </v>
   <v type="int" >        5 </v>
   <v type="int" >        6 </v>
   <v type="int" >        7 </v>
   <v type="int" >        8 </v>
   <v type="int" >        9 </v>
   <v type="int" >       10 </v>
  </varray>
 </primitive_cell>
 <kpoints>
  <generation param="Gamma">
   <v type="int" name="divisions">       7        7        8 </v>
   <v name="usershift">      0.00000000       0.00000000       0.00000000 </v>
   <v name="genvec1">      0.14285714       0.00000000       0.00000000 </v>
   <v name="genvec2">      0.00000000       0.14285714       0.00000000 </v>
   <v name="genvec3">     -0.00000000       0.00000000       0.12500000 </v>
   <v name="shift">      0.00000000       0.00000000       0.00000000 </v>
  </generation>
  <varray name="kpointlist" >
   <v>       0.00000000       0.00000000       0.00000000 </v>
   <v>       0.14285714       0.00000000       0.00000000 </v>
   <v>       0.28571429       0.00000000       0.00000000 </v>
   <v>       0.42857143       0.00000000       0.00000000 </v>
   <v>       0.14285714       0.14285714       0.00000000 </v>
   <v>       0.28571429       0.14285714       0.00000000 </v>
   <v>       0.42857143       0.14285714       0.00000000 </v>
   <v>      -0.42857143       0.14285714       0.00000000 </v>
   <v>      -0.28571429       0.14285714       0.00000000 </v>
   <v>      -0.14285714       0.14285714       0.00000000 </v>
   <v>       0.28571429       0.28571429       0.00000000 </v>
   <v>       0.42857143       0.28571429       0.00000000 </v>
   <v>      -0.42857143       0.28571429       0.00000000 </v>
   <v>      -0.28571429       0.28571429       0.00000000 </v>
   <v>       0.42857143       0.42857143       0.00000000 </v>
   <v>      -0.42857143       0.42857143       0.00000000 </v>
   <v>       0.00000000      -0.00000000       0.12500000 </v>
   <v>       0.14285714       0.00000000       0.12500000 </v>
   <v>       0.28571429       0.00000000       0.12500000 </v>
   <v>       0.42857143      -0.00000000       0.12500000 </v>
   <v>      -0.42857143      -0.00000000       0.12500000 </v>
   <v>      -0.28571429      -0.00000000       0.12500000 </v>
   <v>      -0.14285714       0.00000000       0.12500000 </v>
   <v>       0.14285714       0.14285714       0.12500000 </v>
   <v>       0.28571429       0.14285714       0.12500000 </v>
   <v>       0.42857143       0.14285714       0.12500000 </v>
   <v>      -0.42857143       0.14285714       0.12500000 </v>
   <v>      -0.28571429       0.14285714       0.12500000 </v>
   <v>      -0.14285714       0.14285714       0.12500000 </v>
   <v>       0.28571429       0.28571429       0.12500000 </v>
   <v>       0.42857143       0.28571429       0.12500000 </v>
   <v>      -0.42857143       0.28571429       0.12500000 </v>
   <v>      -0.28571429       0.28571429       0.12500000 </v>
   <v>      -0.14285714       0.28571429       0.12500000 </v>
   <v>       0.42857143       0.42857143       0.12500000 </v>
   <v>      -0.42857143       0.42857143       0.12500000 </v>
   <v>      -0.28571429       0.42857143       0.12500000 </v>
   <v>      -0.14285714       0.42857143       0.12500000 </v>
   <v>      -0.42857143      -0.42857143       0.12500000 </v>
   <v>      -0.28571429      -0.42857143       0.12500000 </v>
   <v>      -0.14285714      -0.42857143       0.12500000 </v>
   <v>      -0.28571429      -0.28571429       0.12500000 </v>
   <v>      -0.14285714      -0.28571429       0.12500000 </v>
   <v>      -0.14285714      -0.14285714       0.12500000 </v>
   <v>       0.00000000      -0.00000000       0.25000000 </v>
   <v>       0.14285714       0.00000000       0.25000000 </v>
   <v>       0.28571429       0.00000000       0.25000000 </v>
   <v>       0.42857143      -0.00000000       0.25000000 </v>
   <v>      -0.42857143       0.00000000       0.25000000 </v>
   <v>      -0.28571429      -0.00000000       0.25000000 </v>
   <v>      -0.14285714       0.00000000       0.25000000 </v>
   <v>       0.14285714       0.14285714       0.25000000 </v>
   <v>       0.28571429       0.14285714       0.25000000 </v>
   <v>       0.42857143       0.14285714       0.25000000 </v>
   <v>      -0.42857143       0.14285714       0.25000000 </v>
   <v>      -0.28571429       0.14285714       0.25000000 </v>
   <v>      -0.14285714       0.14285714       0.25000000 </v>
   <v>       0.28571429       0.28571429       0.25000000 </v>
   <v>       0.42857143       0.28571429       0.25000000 </v>
   <v>      -0.42857143       0.28571429       0.25000000 </v>
   <v>      -0.28571429       0.28571429       0.25000000 </v>
   <v>      -0.14285714       0.28571429       0.25000000 </v>
   <v>       0.42857143       0.42857143       0.25000000 </v>
   <v>      -0.42857143       0.42857143       0.25000000 </v>
   <v>      -0.28571429       0.42857143       0.25000000 </v>
   <v>      -0.14285714       0.42857143       0.25000000 </v>
   <v>      -0.42857143      -0.42857143       0.25000000 </v>
   <v>      -0.28571429      -0.42857143       0.25000000 </v>
   <v>      -0.14285714      -0.42857143       0.25000000 </v>
   <v>      -0.28571429      -0.28571429       0.25000000 </v>
   <v>      -0.14285714      -0.28571429       0.25000000 </v>
   <v>      -0.14285714      -0.14285714       0.25000000 </v>
   <v>       0.00000000      -0.00000000       0.37500000 </v>
   <v>       0.14285714       0.00000000       0.37500000 </v>
   <v>       0.28571429       0.00000000       0.37500000 </v>
   <v>       0.42857143       0.00000000       0.37500000 </v>
   <v>      -0.42857143      -0.00000000       0.37500000 </v>
   <v>      -0.28571429       0.00000000       0.37500000 </v>
   <v>      -0.14285714      -0.00000000       0.37500000 </v>
   <v>       0.14285714       0.14285714       0.37500000 </v>
   <v>       0.28571429       0.14285714       0.37500000 </v>
   <v>       0.42857143       0.14285714       0.37500000 </v>
   <v>      -0.42857143       0.14285714       0.37500000 </v>
   <v>      -0.28571429       0.14285714       0.37500000 </v>
   <v>      -0.14285714       0.14285714       0.37500000 </v>
   <v>       0.28571429       0.28571429       0.37500000 </v>
   <v>       0.42857143       0.28571429       0.37500000 </v>
   <v>      -0.42857143       0.28571429       0.37500000 </v>
   <v>      -0.28571429       0.28571429       0.37500000 </v>
   <v>      -0.14285714       0.28571429       0.37500000 </v>
   <v>       0.42857143       0.42857143       0.37500000 </v>
   <v>      -0.42857143       0.42857143       0.37500000 </v>
   <v>      -0.28571429       0.42857143       0.37500000 </v>
   <v>      -0.14285714       0.42857143       0.37500000 </v>
   <v>      -0.42857143      -0.42857143       0.37500000 </v>
   <v>      -0.28571429      -0.42857143       0.37500000 </v>
   <v>      -0.14285714      -0.42857143       0.37500000 </v>
   <v>      -0.28571429      -0.28571429       0.37500000 </v>
   <v>      -0.14285714      -0.28571429       0.37500000 </v>
   <v>      -0.14285714      -0.14285714       0.37500000 </v>
   <v>       0.00000000      -0.00000000       0.50000000 </v>
   <v>       0.14285714       0.00000000       0.50000000 </v>
   <v>       0.28571429      -0.00000000       0.50000000 </v>
   <v>       0.42857143       0.00000000       0.50000000 </v>
   <v>       0.14285714       0.14285714       0.50000000 </v>
   <v>       0.28571429       0.14285714       0.50000000 </v>
   <v>       0.42857143       0.14285714       0.50000000 </v>
   <v>      -0.42857143       0.14285714       0.50000000 </v>
   <v>      -0.28571429       0.14285714       0.50000000 </v>
   <v>      -0.14285714       0.14285714       0.50000000 </v>
   <v>       0.28571429       0.28571429       0.50000000 </v>
   <v>       0.42857143       0.28571429       0.50000000 </v>
   <v>      -0.42857143       0.28571429       0.50000000 </v>
   <v>      -0.28571429       0.28571429       0.50000000 </v>
   <v>       0.42857143       0.42857143       0.50000000 </v>
   <v>      -0.42857143       0.42857143       0.50000000 </v>
  </varray>
  <varray name="weights" >
   <v>       0.00255102 </v>
   <v>       0.01020408 </v>
   <v>       0.01020408 </v>
   <v>       0.01020408 </v>
   <v>       0.00510204 </v>
   <v>       0.01020408 </v>
   <v>       0.01020408 </v>
   <v>       0.01020408 </v>
   <v>       0.01020408 </v>
   <v>       0.00510204 </v>
   <v>       0.00510204 </v>
   <v>       0.01020408 </v>
   <v>       0.01020408 </v>
   <v>       0.00510204 </v>
   <v>       0.00510204 </v>
   <v>       0.00510204 </v>
   <v>       0.00510204 </v>
   <v>       0.01020408 </v>
   <v>       0.01020408 </v>
   <v>       0.01020408 </v>
   <v>       0.01020408 </v>
   <v>       0.01020408 </v>
   <v>       0.01020408 </v>
   <v>       0.00510204 </v>
   <v>       0.01020408 </v>
   <v>       0.01020408 </v>
   <v>       0.01020408 </v>
   <v>       0.01020408 </v>
   <v>       0.01020408 </v>
   <v>       0.00510204 </v>
   <v>       0.01020408 </v>
   <v>       0.01020408 </v>
   <v>       0.01020408 </v>
   <v>       0.01020408 </v>
   <v>       0.00510204 </v>
   <v>       0.01020408 </v>
   <v>       0.01020408 </v>
   <v>       0.01020408 </v>
   <v>       0.00510204 </v>
   <v>       0.01020408 </v>
   <v>       0.01020408 </v>
   <v>       0.00510204 </v>
   <v>       0.01020408 </v>
   <v>       0.00510204 </v>
   <v>       0.00510204 </v>
   <v>       0.01020408 </v>
   <v>       0.01020408 </v>
   <v>       0.01020408 </v>
   <v>       0.01020408 </v>
   <v>       0.01020408 </v>
   <v>       0.01020408 </v>
   <v>       0.00510204 </v>
   <v>       0.01020408 </v>
   <v>       0.01020408 </v>
   <v>       0.01020408 </v>
   <v>       0.01020408 </v>
   <v>       0.01020408 </v>
   <v>       0.00510204 </v>
   <v>       0.01020408 </v>
   <v>       0.01020408 </v>
   <v>       0.01020408 </v>
   <v>       0.01020408 </v>
   <v>       0.00510204 </v>
   <v>       0.01020408 </v>
   <v>       0.01020408 </v>
   <v>       0.01020408 </v>
   <v>       0.00510204 </v>
   <v>       0.01020408 </v>
   <v>       0.01020408 </v>
   <v>       0.00510204 </v>
   <v>       0.01020408 </v>
   <v>       0.00510204 </v>
   <v>       0.00510204 </v>
   <v>       0.01020408 </v>
   <v>       0.01020408 </v>
   <v>       0.01020408 </v>
   <v>       0.01020408 </v>
   <v>       0.01020408 </v>
   <v>       0.01020408 </v>
   <v>       0.00510204 </v>
   <v>       0.01020408 </v>
   <v>       0.01020408 </v>
   <v>       0.01020408 </v>
   <v>       0.01020408 </v>
   <v>       0.01020408 </v>
   <v>       0.00510204 </v>
   <v>       0.01020408 </v>
   <v>       0.01020408 </v>
   <v>       0.01020408 </v>
   <v>       0.01020408 </v>
   <v>       0.00510204 </v>
   <v>       0.01020408 </v>
   <v>       0.01020408 </v>
   <v>       0.01020408 </v>
   <v>       0.00510204 </v>
   <v>       0.01020408 </v>
   <v>       0.01020408 </v>
   <v>       0.00510204 </v>
   <v>       0.01020408 </v>
   <v>       0.00510204 </v>
   <v>       0.00255102 </v>
   <v>       0.01020408 </v>
   <v>       0.01020408 </v>
   <v>       0.01020408 </v>
   <v>       0.00510204 </v>
   <v>       0.01020408 </v>
   <v>       0.01020408 </v>
   <v>       0.01020408 </v>
   <v>       0.01020408 </v>
   <v>       0.00510204 </v>
   <v>       0.00510204 </v>
   <v>       0.01020408 </v>
   <v>       0.01020408 </v>
   <v>       0.00510204 </v>
   <v>       0.00510204 </v>
   <v>       0.00510204 </v>
  </varray>
 </kpoints>
 <parameters>
  <separator name="general" >
   <i type="string" name="SYSTEM">routine with relax: pwdword</i>
   <i type="logical" name="LCOMPAT"> F  </i>
  </separator>
  <separator name="electronic" >
   <i type="string" name="PREC">acc</i>
   <i name="ENMAX">    600.00000000</i>
   <i name="ENAUG">    535.51400000</i>
   <i name="EDIFF">      0.00000000</i>
   <i type="int" name="IALGO">    58</i>
   <i type="int" name="IWAVPR">    10</i>
   <i type="int" name="NBANDS">    48</i>
   <i type="int" name="NBANDSLOW">    -1</i>
   <i type="int" name="NBANDSHIGH">    -1</i>
   <i name="NELECT">     78.00000000</i>
   <i type="int" name="TURBO">     0</i>
   <i type="int" name="IRESTART">     0</i>
   <i type="int" name="NREBOOT">     0</i>
   <i type="int" name="NMIN">     0</i>
   <i name="EREF">      0.00000000</i>
   <separator name="electronic smearing" >
    <i type="int" name="ISMEAR">     0</i>
    <i name="SIGMA">      0.02000000</i>
    <i name="KSPACING">      0.50000000</i>
    <i type="logical" name="KGAMMA"> T  </i>
    <i type="logical" name="KBLOWUP"> F  </i>
   </separator>
   <separator name="electronic projectors" >
    <i type="logical" name="LREAL"> F  </i>
    <v name="ROPT">      0.00000000      0.00000000      0.00000000</v>
    <i type="int" name="LMAXPAW">  -100</i>
    <i type="int" name="LMAXMIX">     2</i>
    <i type="logical" name="NLSPLINE"> F  </i>
   </separator>
   <separator name="electronic startup" >
    <i type="int" name="ISTART">     0</i>
    <i type="int" name="ICHARG">     2</i>
    <i type="int" name="INIWAV">     1</i>
   </separator>
   <separator name="electronic spin" >
    <i type="int" name="ISPIN">     1</i>
    <i type="logical" name="LNONCOLLINEAR"> F  </i>
    <v name="MAGMOM">      1.00000000      1.00000000      1.00000000      1.00000000      1.00000000      1.00000000      1.00000000      1.00000000      1.00000000      1.00000000</v>
    <i name="NUPDOWN">     -1.00000000</i>
    <i type="logical" name="LSORBIT"> F  </i>
    <v name="SAXIS">      0.00000000      0.00000000      1.00000000</v>
    <i type="logical" name="LSPIRAL"> F  </i>
    <v name="QSPIRAL">      0.00000000      0.00000000      0.00000000</v>
    <i type="logical" name="LZEROZ"> F  </i>
   </separator>
   <separator name="electronic exchange-correlation" >
    <i type="logical" name="LASPH"> T  </i>
    <i type="logical" name="LMETAGGA"> F  </i>
   </separator>
   <separator name="electronic convergence" >
    <i type="int" name="NELM">   100</i>
    <i type="int" name="NELMDL">    -5</i>
    <i type="int" name="NELMIN">     6</i>
    <i name="ENINI">    600.00000000</i>
    <separator name="electronic convergence detail" >
     <i type="logical" name="LDIAG"> T  </i>
     <i type="logical" name="LSUBROT"> F  </i>
     <i name="WEIMIN">      0.00000000</i>
     <i name="EBREAK">      0.00000000</i>
     <i name="DEPER">      0.30000000</i>
     <i type="int" name="NRMM">     4</i>
     <i name="TIME">      0.40000000</i>
    </separator>
   </separator>
   <separator name="electronic mixer" >
    <i name="AMIX">      0.40000000</i>
    <i name="BMIX">      1.00000000</i>
    <i name="AMIN">      0.10000000</i>
    <i name="AMIX_MAG">      1.60000000</i>
    <i name="BMIX_MAG">      1.00000000</i>
    <separator name="electronic mixer details" >
     <i type="int" name="IMIX">     4</i>
     <i type="logical" name="MIXFIRST"> F  </i>
     <i type="int" name="MAXMIX">   -45</i>
     <i name="WC">    100.00000000</i>
     <i type="int" name="INIMIX">     1</i>
     <i type="int" name="MIXPRE">     1</i>
     <i type="int" name="MREMOVE">     5</i>
    </separator>
   </separator>
   <separator name="electronic dipolcorrection" >
    <i type="logical" name="LDIPOL"> F  </i>
    <i type="logical" name="LMONO"> F  </i>
    <i type="int" name="IDIPOL">     0</i>
    <i name="EPSILON">      1.00000000</i>
    <v name="DIPOL">   -100.00000000   -100.00000000   -100.00000000</v>
    <i name="EFIELD">      0.00000000</i>
   </separator>
  </separator>
  <separator name="grids" >
   <i type="int" name="NGX">    54</i>
   <i type="int" name="NGY">    54</i>
   <i type="int" name="NGZ">    54</i>
   <i type="int" name="NGXF">   108</i>
   <i type="int" name="NGYF">   108</i>
   <i type="int" name="NGZF">   108</i>
   <i type="logical" name="ADDGRID"> T  </i>
  </separator>
  <separator name="ionic" >
   <i type="int" name="NSW">     0</i>
   <i type="int" name="IBRION">    -1</i>
   <i type="int" name="MDALGO">     0</i>
   <i type="int" name="ISIF">    -1</i>
   <i name="PSTRESS">      0.00000000</i>
   <i name="EDIFFG">      0.00000001</i>
   <i type="int" name="NFREE">     0</i>
   <i name="POTIM">      0.50000000</i>
   <i name="SMASS">     -3.00000000</i>
   <i name="SCALEE">      1.00000000</i>
  </separator>
  <separator name="ionic md" >
   <i name="TEBEG">      0.00010000</i>
   <i name="TEEND">      0.00010000</i>
   <i type="int" name="NBLOCK">     1</i>
   <i type="int" name="KBLOCK">     1</i>
   <i type="int" name="NPACO">   256</i>
   <i name="APACO">     16.00000000</i>
  </separator>
  <separator name="symmetry" >
   <i type="int" name="ISYM">     2</i>
   <i name="SYMPREC">      0.00010000</i>
  </separator>
  <separator name="dos" >
   <i type="int" name="LORBIT">     0</i>
   <v name="RWIGS">     -1.00000000     -1.00000000     -1.00000000</v>
   <i type="int" name="NEDOS">   301</i>
   <i name="EMIN">     10.00000000</i>
   <i name="EMAX">    -10.00000000</i>
   <i name="EFERMI">      0.00000000</i>
  </separator>
  <separator name="writing" >
   <i type="int" name="NWRITE">     2</i>
   <i type="logical" name="LWAVE"> T  </i>
   <i type="logical" name="LDOWNSAMPLE"> F  </i>
   <i type="logical" name="LCHARG"> T  </i>
   <i type="logical" name="LPARD"> F  </i>
   <i type="logical" name="LVTOT"> F  </i>
   <i type="logical" name="LVHAR"> F  </i>
   <i type="logical" name="LELF"> F  </i>
   <i type="logical" name="LOPTICS"> F  </i>
   <v name="STM">      0.00000000      0.00000000      0.00000000      0.00000000      0.00000000      0.00000000      0.00000000</v>
  </separator>
  <separator name="performance" >
   <i type="int" name="NPAR">     6</i>
   <i type="int" name="NSIM">     4</i>
   <i type="int" name="NBLK">    -1</i>
   <i type="logical" name="LPLANE"> T  </i>
   <i type="logical" name="LSCALAPACK"> T  </i>
   <i type="logical" name="LSCAAWARE"> F  </i>
   <i type="logical" name="LSCALU"> F  </i>
   <i type="logical" name="LASYNC"> F  </i>
   <i type="logical" name="LORBITALREAL"> F  </i>
  </separator>
  <separator name="miscellaneous" >
   <i type="int" name="IDIOT">     3</i>
   <i type="int" name="PHON_NSTRUCT">    -1</i>
   <i type="logical" name="LMUSIC"> F  </i>
   <v name="POMASS">     10.81100000     95.94000000     28.08500000</v>
   <v name="DARWINR">      0.00000000      0.00000000      0.00000000</v>
   <v name="DARWINV">      1.00000000      1.00000000      1.00000000</v>
   <i type="logical" name="LCORR"> T  </i>
  </separator>
  <i type="logical" name="GGA_COMPAT"> T  </i>
  <i type="logical" name="LBERRY"> F  </i>
  <i type="int" name="ICORELEVEL">     0</i>
  <i type="logical" name="LDAU"> F  </i>
  <i type="int" name="I_CONSTRAINED_M">     0</i>
  <separator name="electronic exchange-correlation" >
   <i type="string" name="GGA">--</i>
   <i type="int" name="VOSKOWN">     0</i>
   <i type="logical" name="LHFCALC"> F  </i>
   <i type="string" name="PRECFOCK"></i>
   <i type="logical" name="LSYMGRAD"> F  </i>
   <i type="logical" name="LHFONE"> F  </i>
   <i type="logical" name="LRHFCALC"> F  </i>
   <i type="logical" name="LTHOMAS"> F  </i>
   <i type="logical" name="LMODELHF"> F  </i>
   <i type="logical" name="LFOCKACE"> F  </i>
   <i name="ENCUT4O">     -1.00000000</i>
   <i type="int" name="EXXOEP">     0</i>
   <i type="int" name="FOURORBIT">     0</i>
   <i name="AEXX">      0.00000000</i>
   <i name="HFALPHA">      0.00000000</i>
   <i name="MCALPHA">      0.00000000</i>
   <i name="ALDAX">      1.00000000</i>
   <i name="AGGAX">      1.00000000</i>
   <i name="ALDAC">      1.00000000</i>
   <i name="AGGAC">      1.00000000</i>
   <i type="int" name="NKREDX">     1</i>
   <i type="int" name="NKREDY">     1</i>
   <i type="int" name="NKREDZ">     1</i>
   <i type="logical" name="SHIFTRED"> F  </i>
   <i type="logical" name="ODDONLY"> F  </i>
   <i type="logical" name="EVENONLY"> F  </i>
   <i type="int" name="LMAXFOCK">     0</i>
   <i type="int" name="NMAXFOCKAE">     0</i>
   <i type="logical" name="LFOCKAEDFT"> F  </i>
   <i name="HFSCREEN">      0.00000000</i>
   <i name="HFSCREENC">      0.00000000</i>
   <i type="int" name="NBANDSGWLOW">     0</i>
  </separator>
  <separator name="vdW DFT" >
   <i type="logical" name="LUSE_VDW"> F  </i>
   <i name="Zab_VDW">     -0.84910000</i>
   <i name="PARAM1">      0.12340000</i>
   <i name="PARAM2">      1.00000000</i>
   <i name="PARAM3">      0.00000000</i>
  </separator>
  <separator name="model GW" >
   <i type="int" name="MODEL_GW">     0</i>
   <i name="MODEL_EPS0">     12.42306855</i>
   <i name="MODEL_ALPHA">      1.00000000</i>
  </separator>
  <separator name="linear response parameters" >
   <i type="logical" name="LEPSILON"> F  </i>
   <i type="logical" name="LRPA"> F  </i>
   <i type="logical" name="LNABLA"> F  </i>
   <i type="logical" name="LVEL"> F  </i>
   <i type="int" name="KINTER">     0</i>
   <i name="CSHIFT">      0.10000000</i>
   <i name="OMEGAMAX">     -1.00000000</i>
   <i name="DEG_THRESHOLD">      0.00200000</i>
   <i name="RTIME">     -0.10000000</i>
   <i name="WPLASMAI">      0.00000000</i>
   <v name="DFIELD">      0.00000000      0.00000000      0.00000000</v>
   <v name="WPLASMA">      0.00000000      0.00000000      0.00000000      0.00000000      0.00000000      0.00000000      0.00000000      0.00000000      0.00000000</v>
  </separator>
  <separator name="orbital magnetization" >
   <i type="logical" name="NUCIND"> F  </i>
   <v name="MAGPOS">      0.00000000      0.00000000      0.00000000</v>
   <i type="logical" name="LNICSALL"> T  </i>
   <i type="logical" name="ORBITALMAG"> F  </i>
   <i type="logical" name="LMAGBLOCH"> F  </i>
   <i type="logical" name="LCHIMAG"> F  </i>
   <i type="logical" name="LGAUGE"> T  </i>
   <i type="int" name="MAGATOM">     0</i>
   <v name="MAGDIPOL">      0.00000000      0.00000000      0.00000000</v>
   <v name="AVECCONST">      0.00000000      0.00000000      0.00000000</v>
  </separator>
  <separator name="response functions" >
   <i type="logical" name="LFINITE_TEMPERATURE"> F  </i>
   <i type="logical" name="LADDER"> F  </i>
   <i type="logical" name="LRPAFORCE"> F  </i>
   <i type="logical" name="LFXC"> F  </i>
   <i type="logical" name="LHARTREE"> T  </i>
   <i type="int" name="IBSE">     0</i>
   <v type="int" name="KPOINT">    -1     0     0     0</v>
   <i type="logical" name="LTCTC"> F  </i>
   <i type="logical" name="LTCTE"> F  </i>
   <i type="logical" name="LTETE"> F  </i>
   <i type="logical" name="LTRIPLET"> F  </i>
   <i type="logical" name="LFXCEPS"> F  </i>
   <i type="logical" name="LFXHEG"> F  </i>
   <i type="int" name="NATURALO">     2</i>
   <i type="logical" name="LHOLEGF"> F  </i>
   <i type="logical" name="L2ORDER"> F  </i>
   <i type="logical" name="LDMP1"> F  </i>
   <i type="logical" name="LMP2LT"> F  </i>
   <i type="logical" name="LSMP2LT"> F  </i>
   <i type="logical" name="LGWLF"> F  </i>
   <i name="ENCUTGW">     -2.00000000</i>
   <i name="ENCUTGWSOFT">     -2.00000000</i>
   <i name="ENCUTLF">     -1.00000000</i>
   <i type="logical" name="LESF_SPLINES"> F  </i>
   <i type="int" name="LMAXMP2">    -1</i>
   <i name="SCISSOR">      0.00000000</i>
   <i type="int" name="NOMEGA">     0</i>
   <i type="int" name="NOMEGAR">     0</i>
   <i type="int" name="NBANDSGW">    -1</i>
   <i type="int" name="NBANDSO">    -1</i>
   <i type="int" name="NBANDSV">    -1</i>
   <i type="int" name="NELM">   100</i>
   <i type="int" name="NELMHF">     1</i>
   <i type="int" name="DIM">     3</i>
   <i type="int" name="IESPILON">     4</i>
   <i type="int" name="ANTIRES">     0</i>
   <i name="OMEGAMAX">    -30.00000000</i>
   <i name="OMEGAMIN">    -30.00000000</i>
   <i name="OMEGATL">   -200.00000000</i>
   <i type="int" name="OMEGAGRID">     0</i>
   <i name="CSHIFT">     -0.10000000</i>
   <i type="logical" name="LSELFENERGY"> F  </i>
   <i type="logical" name="LSPECTRAL"> F  </i>
   <i type="logical" name="LSPECTRALGW"> F  </i>
   <i type="logical" name="LSINGLES"> F  </i>
   <i type="logical" name="LFERMIGW"> F  </i>
   <i type="logical" name="ODDONLYGW"> F  </i>
   <i type="logical" name="EVENONLYGW"> F  </i>
   <i type="int" name="NKREDLFX">     1</i>
   <i type="int" name="NKREDLFY">     1</i>
   <i type="int" name="NKREDLFZ">     1</i>
   <i type="int" name="MAXMEM">  2800</i>
   <i type="int" name="TELESCOPE">     0</i>
   <i type="int" name="NTAUPAR">    -1</i>
   <i type="int" name="NOMEGAPAR">    -1</i>
   <i name="DAMP_NEWTON">      0.80000001</i>
   <i name="LAMBDA">      1.00000000</i>
  </separator>
  <separator name="External order field" >
   <i name="OFIELD_KAPPA">      0.00000000</i>
   <v name="OFIELD_K">      0.00000000      0.00000000      0.00000000</v>
   <i name="OFIELD_Q6_NEAR">      0.00000000</i>
   <i name="OFIELD_Q6_FAR">      0.00000000</i>
   <i name="OFIELD_A">      0.00000000</i>
  </separator>
 </parameters>
 <atominfo>
  <atoms>      10 </atoms>
  <types>       3 </types>
  <array name="atoms" >
   <dimension dim="1">ion</dimension>
   <field type="string">element</field>
   <field type="int">atomtype</field>
   <set>
    <rc><c>B </c><c>   1</c></rc>
    <rc><c>B </c><c>   1</c></rc>
    <rc><c>Mo</c><c>   2</c></rc>
    <rc><c>Mo</c><c>   2</c></rc>
    <rc><c>Mo</c><c>   2</c></rc>
    <rc><c>Mo</c><c>   2</c></rc>
    <rc><c>Si</c><c>   3</c></rc>
    <rc><c>Si</c><c>   3</c></rc>
    <rc><c>Si</c><c>   3</c></rc>
    <rc><c>Si</c><c>   3</c></rc>
   </set>
  </array>
  <array name="atomtypes" >
   <dimension dim="1">type</dimension>
   <field type="int">atomspertype</field>
   <field type="string">element</field>
   <field>mass</field>
   <field>valence</field>
   <field type="string">pseudopotential</field>
   <set>
    <rc><c>   2</c><c>B </c><c>     10.81100000</c><c>      3.00000000</c><c>  PAW_PBE B 06Sep2000                   </c></rc>
    <rc><c>   4</c><c>Mo</c><c>     95.94000000</c><c>     14.00000000</c><c>  PAW_PBE Mo_sv 02Feb2006               </c></rc>
    <rc><c>   4</c><c>Si</c><c>     28.08500000</c><c>      4.00000000</c><c>  PAW_PBE Si 05Jan2001                  </c></rc>
   </set>
  </array>
 </atominfo>
 <structure name="initialpos" >
  <crystal>
   <varray name="basis" >
    <v>       5.71886089       0.00000000      -3.45051816 </v>
    <v>      -1.82285262       5.42056992      -3.45051816 </v>
    <v>       0.00000000       0.00000000       6.67918000 </v>
   </varray>
   <i name="volume">    207.05114242 </i>
   <varray name="rec_basis" >
    <v>       0.17486000       0.05880267       0.00000000 </v>
    <v>       0.00000000       0.18448245       0.00000000 </v>
    <v>       0.09033408       0.12568305       0.14971898 </v>
   </varray>
  </crystal>
  <varray name="positions" >
   <v>       0.25000000       0.25000000       0.00000000 </v>
   <v>       0.75000000       0.75000000       0.00000000 </v>
   <v>       0.00000000       0.00000000       0.00000000 </v>
   <v>       0.50000000       0.00000000       0.50000000 </v>
   <v>       0.00000000       0.50000000       0.50000000 </v>
   <v>       0.50000000       0.50000000       0.00000000 </v>
   <v>       0.75052000       0.25052000       0.00104000 </v>
   <v>       0.24948000       0.74948000       0.99896000 </v>
   <v>       0.25052000       0.24948000       0.50000000 </v>
   <v>       0.74948000       0.75052000       0.50000000 </v>
  </varray>
 </structure>
 <calculation>
  <scstep>
   <time name="total">   25.27   25.50</time>
   <energy>
    <i name="alphaZ">    228.31381877 </i>
    <i name="ewald">  -4902.83826768 </i>
    <i name="hartreedc">  -2723.49747628 </i>
    <i name="XCdc">    299.36628667 </i>
    <i name="pawpsdc">   6361.18088108 </i>
    <i name="pawaedc">  -6305.13563559 </i>
    <i name="eentropy">     -0.00043979 </i>
    <i name="bandstr">   -346.21721930 </i>
    <i name="atom">   8003.73552278 </i>
    <i name="e_fr_energy">    614.90747065 </i>
    <i name="e_wo_entrp">    614.90791044 </i>
    <i name="e_0_energy">    614.90769055 </i>
   </energy>
  </scstep>
  <scstep>
   <time name="total">   25.51   26.16</time>
   <energy>
    <i name="e_fr_energy">   -136.14644978 </i>
    <i name="e_wo_entrp">   -136.14456802 </i>
    <i name="e_0_energy">   -136.14550890 </i>
   </energy>
  </scstep>
  <scstep>
   <time name="total">   29.50   30.06</time>
   <energy>
    <i name="e_fr_energy">   -170.40665129 </i>
    <i name="e_wo_entrp">   -170.40519578 </i>
    <i name="e_0_energy">   -170.40592354 </i>
   </energy>
  </scstep>
  <scstep>
   <time name="total">   27.89   28.61</time>
   <energy>
    <i name="e_fr_energy">   -171.17521093 </i>
    <i name="e_wo_entrp">   -171.17384780 </i>
    <i name="e_0_energy">   -171.17452937 </i>
   </energy>
  </scstep>
  <scstep>
   <time name="total">   31.58   32.31</time>
   <energy>
    <i name="e_fr_energy">   -171.19972424 </i>
    <i name="e_wo_entrp">   -171.19829413 </i>
    <i name="e_0_energy">   -171.19900919 </i>
   </energy>
  </scstep>
  <scstep>
   <time name="total">   32.13   32.47</time>
   <energy>
    <i name="e_fr_energy">   -136.06362759 </i>
    <i name="e_wo_entrp">   -136.06215534 </i>
    <i name="e_0_energy">   -136.06289146 </i>
   </energy>
  </scstep>
  <scstep>
   <time name="total">   35.41   36.11</time>
   <energy>
    <i name="e_fr_energy">   -140.42587895 </i>
    <i name="e_wo_entrp">   -140.42441471 </i>
    <i name="e_0_energy">   -140.42514683 </i>
   </energy>
  </scstep>
  <scstep>
   <time name="total">   36.28   36.67</time>
   <energy>
    <i name="e_fr_energy">   -141.29564587 </i>
    <i name="e_wo_entrp">   -141.29418390 </i>
    <i name="e_0_energy">   -141.29491489 </i>
   </energy>
  </scstep>
  <scstep>
   <time name="total">   35.31   35.88</time>
   <energy>
    <i name="e_fr_energy">   -141.58239655 </i>
    <i name="e_wo_entrp">   -141.58095384 </i>
    <i name="e_0_energy">   -141.58167520 </i>
   </energy>
  </scstep>
  <scstep>
   <time name="total">   33.52   34.22</time>
   <energy>
    <i name="e_fr_energy">   -141.68001796 </i>
    <i name="e_wo_entrp">   -141.67853559 </i>
    <i name="e_0_energy">   -141.67927677 </i>
   </energy>
  </scstep>
  <scstep>
   <time name="total">   35.19   35.76</time>
   <energy>
    <i name="e_fr_energy">   -141.72103388 </i>
    <i name="e_wo_entrp">   -141.71954010 </i>
    <i name="e_0_energy">   -141.72028699 </i>
   </energy>
  </scstep>
  <scstep>
   <time name="total">   34.04   34.34</time>
   <energy>
    <i name="e_fr_energy">   -141.73914345 </i>
    <i name="e_wo_entrp">   -141.73763859 </i>
    <i name="e_0_energy">   -141.73839102 </i>
   </energy>
  </scstep>
  <scstep>
   <time name="total">   35.16   35.81</time>
   <energy>
    <i name="e_fr_energy">   -141.74718215 </i>
    <i name="e_wo_entrp">   -141.74566826 </i>
    <i name="e_0_energy">   -141.74642521 </i>
   </energy>
  </scstep>
  <scstep>
   <time name="total">   33.42   33.70</time>
   <energy>
    <i name="e_fr_energy">   -141.75101870 </i>
    <i name="e_wo_entrp">   -141.74950727 </i>
    <i name="e_0_energy">   -141.75026298 </i>
   </energy>
  </scstep>
  <scstep>
   <time name="total">   33.18   33.46</time>
   <energy>
    <i name="e_fr_energy">   -141.75252236 </i>
    <i name="e_wo_entrp">   -141.75101637 </i>
    <i name="e_0_energy">   -141.75176936 </i>
   </energy>
  </scstep>
  <scstep>
   <time name="total">   32.32   32.59</time>
   <energy>
    <i name="e_fr_energy">   -141.75322118 </i>
    <i name="e_wo_entrp">   -141.75171914 </i>
    <i name="e_0_energy">   -141.75247016 </i>
   </energy>
  </scstep>
  <scstep>
   <time name="total">   34.47   34.82</time>
   <energy>
    <i name="e_fr_energy">   -141.75354551 </i>
    <i name="e_wo_entrp">   -141.75204537 </i>
    <i name="e_0_energy">   -141.75279544 </i>
   </energy>
  </scstep>
  <scstep>
   <time name="total">   34.91   35.20</time>
   <energy>
    <i name="e_fr_energy">   -141.75369583 </i>
    <i name="e_wo_entrp">   -141.75219587 </i>
    <i name="e_0_energy">   -141.75294585 </i>
   </energy>
  </scstep>
  <scstep>
   <time name="total">   33.70   33.96</time>
   <energy>
    <i name="e_fr_energy">   -141.75376183 </i>
    <i name="e_wo_entrp">   -141.75226130 </i>
    <i name="e_0_energy">   -141.75301157 </i>
   </energy>
  </scstep>
  <scstep>
   <time name="total">   33.58   33.87</time>
   <energy>
    <i name="e_fr_energy">   -141.75379241 </i>
    <i name="e_wo_entrp">   -141.75229125 </i>
    <i name="e_0_energy">   -141.75304183 </i>
   </energy>
  </scstep>
  <scstep>
   <time name="total">   32.33   32.59</time>
   <energy>
    <i name="e_fr_energy">   -141.75380622 </i>
    <i name="e_wo_entrp">   -141.75230445 </i>
    <i name="e_0_energy">   -141.75305533 </i>
   </energy>
  </scstep>
  <scstep>
   <time name="total">   33.36   33.65</time>
   <energy>
    <i name="e_fr_energy">   -141.75381238 </i>
    <i name="e_wo_entrp">   -141.75231024 </i>
    <i name="e_0_energy">   -141.75306131 </i>
   </energy>
  </scstep>
  <scstep>
   <time name="total">   30.32   30.81</time>
   <energy>
    <i name="e_fr_energy">   -141.75381494 </i>
    <i name="e_wo_entrp">   -141.75231251 </i>
    <i name="e_0_energy">   -141.75306373 </i>
   </energy>
  </scstep>
  <scstep>
   <time name="total">   31.20   31.60</time>
   <energy>
    <i name="e_fr_energy">   -141.75381616 </i>
    <i name="e_wo_entrp">   -141.75231363 </i>
    <i name="e_0_energy">   -141.75306490 </i>
   </energy>
  </scstep>
  <scstep>
   <time name="total">   32.81   33.12</time>
   <energy>
    <i name="e_fr_energy">   -141.75381661 </i>
    <i name="e_wo_entrp">   -141.75231401 </i>
    <i name="e_0_energy">   -141.75306531 </i>
   </energy>
  </scstep>
  <scstep>
   <time name="total">   32.27   32.55</time>
   <energy>
    <i name="e_fr_energy">   -141.75381698 </i>
    <i name="e_wo_entrp">   -141.75231439 </i>
    <i name="e_0_energy">   -141.75306569 </i>
   </energy>
  </scstep>
  <scstep>
   <time name="total">   34.48   34.76</time>
   <energy>
    <i name="e_fr_energy">   -141.75381711 </i>
    <i name="e_wo_entrp">   -141.75231456 </i>
    <i name="e_0_energy">   -141.75306583 </i>
   </energy>
  </scstep>
  <scstep>
   <time name="total">   34.98   35.28</time>
   <energy>
    <i name="e_fr_energy">   -141.75381717 </i>
    <i name="e_wo_entrp">   -141.75231467 </i>
    <i name="e_0_energy">   -141.75306592 </i>
   </energy>
  </scstep>
  <scstep>
   <time name="total">   35.30   35.71</time>
   <energy>
    <i name="e_fr_energy">   -141.75381721 </i>
    <i name="e_wo_entrp">   -141.75231476 </i>
    <i name="e_0_energy">   -141.75306598 </i>
   </energy>
  </scstep>
  <scstep>
   <time name="total">   35.09   35.59</time>
   <energy>
    <i name="e_fr_energy">   -141.75381724 </i>
    <i name="e_wo_entrp">   -141.75231481 </i>
    <i name="e_0_energy">   -141.75306602 </i>
   </energy>
  </scstep>
  <scstep>
   <time name="total">   33.41   33.67</time>
   <energy>
    <i name="e_fr_energy">   -141.75381726 </i>
    <i name="e_wo_entrp">   -141.75231484 </i>
    <i name="e_0_energy">   -141.75306605 </i>
   </energy>
  </scstep>
  <scstep>
   <time name="total">   34.29   34.64</time>
   <energy>
    <i name="e_fr_energy">   -141.75381727 </i>
    <i name="e_wo_entrp">   -141.75231485 </i>
    <i name="e_0_energy">   -141.75306606 </i>
   </energy>
  </scstep>
  <scstep>
   <time name="total">   41.00   41.41</time>
   <energy>
    <i name="alphaZ">    228.31381877 </i>
    <i name="ewald">  -4902.83826768 </i>
    <i name="hartreedc">  -2688.13792613 </i>
    <i name="XCdc">    307.66459091 </i>
    <i name="pawpsdc">  10076.85146051 </i>
    <i name="pawaedc"> -10031.68701912 </i>
    <i name="eentropy">     -0.00150242 </i>
    <i name="bandstr">  -1135.65449488 </i>
    <i name="atom">   8003.73552278 </i>
    <i name="e_fr_energy">   -141.75381727 </i>
    <i name="e_wo_entrp">   -141.75231485 </i>
    <i name="e_0_energy">   -141.75306606 </i>
   </energy>
  </scstep>
  <structure>
   <crystal>
    <varray name="basis" >
     <v>       5.71886089       0.00000000      -3.45051816 </v>
     <v>      -1.82285262       5.42056992      -3.45051816 </v>
     <v>       0.00000000       0.00000000       6.67918000 </v>
    </varray>
    <i name="volume">    207.05114242 </i>
    <varray name="rec_basis" >
     <v>       0.17486000       0.05880267       0.00000000 </v>
     <v>       0.00000000       0.18448245       0.00000000 </v>
     <v>       0.09033408       0.12568305       0.14971898 </v>
    </varray>
   </crystal>
   <varray name="positions" >
    <v>       0.25000000       0.25000000       0.00000000 </v>
    <v>       0.75000000       0.75000000       0.00000000 </v>
    <v>       0.00000000       0.00000000       0.00000000 </v>
    <v>       0.50000000       0.00000000       0.50000000 </v>
    <v>       0.00000000       0.50000000       0.50000000 </v>
    <v>       0.50000000       0.50000000       0.00000000 </v>
    <v>       0.75052000       0.25052000       0.00104000 </v>
    <v>       0.24948000       0.74948000       0.99896000 </v>
    <v>       0.25052000       0.24948000       0.50000000 </v>
    <v>       0.74948000       0.75052000       0.50000000 </v>
   </varray>
  </structure>
  <varray name="forces" >
   <v>       0.00000000       0.00000000       0.00000000 </v>
   <v>       0.00000000       0.00000000       0.00000000 </v>
   <v>       0.00000000       0.00000000       0.00000000 </v>
   <v>       0.00000000       0.00000000       0.00000000 </v>
   <v>       0.00000000       0.00000000       0.00000000 </v>
   <v>       0.00000000       0.00000000       0.00000000 </v>
   <v>       0.00000000       0.00000000       0.00000000 </v>
   <v>       0.00000000       0.00000000       0.00000000 </v>
   <v>       0.00000000       0.00000000       0.00000000 </v>
   <v>       0.00000000       0.00000000       0.00000000 </v>
  </varray>
  <varray name="stress" >
   <v>       0.00000000       0.00000000       0.00000000 </v>
   <v>       0.00000000       0.00000000       0.00000000 </v>
   <v>       0.00000000       0.00000000       0.00000000 </v>
  </varray>
  <energy>
   <i name="e_fr_energy">   -141.75381727 </i>
   <i name="e_wo_entrp">   -141.75231485 </i>
   <i name="e_0_energy">   -141.75306606 </i>
  </energy>
  <time name="totalsc"> 1097.54 1111.25</time>
  <eigenvalues>
   <array>
    <dimension dim="1">band</dimension>
    <dimension dim="2">kpoint</dimension>
    <dimension dim="3">spin</dimension>
    <field>eigene</field>
    <field>occ</field>
    <set>
     <set comment="spin 1">
      <set comment="kpoint 1">
       <r>  -57.3302    1.0000 </r>
       <r>  -57.3261    1.0000 </r>
       <r>  -57.2517    1.0000 </r>
       <r>  -57.2493    1.0000 </r>
       <r>  -31.0251    1.0000 </r>
       <r>  -31.0251    1.0000 </r>
       <r>  -30.9837    1.0000 </r>
       <r>  -30.9835    1.0000 </r>
       <r>  -30.7667    1.0000 </r>
       <r>  -30.7665    1.0000 </r>
       <r>  -30.7472    1.0000 </r>
       <r>  -30.7472    1.0000 </r>
       <r>  -30.6189    1.0000 </r>
       <r>  -30.5992    1.0000 </r>
       <r>  -30.5991    1.0000 </r>
       <r>  -30.5784    1.0000 </r>
       <r>   -5.2672    1.0000 </r>
       <r>   -3.3205    1.0000 </r>
       <r>   -1.5726    1.0000 </r>
       <r>   -1.5726    1.0000 </r>
       <r>   -0.9734    1.0000 </r>
       <r>   -0.6555    1.0000 </r>
       <r>   -0.5716    1.0000 </r>
       <r>   -0.0822    1.0000 </r>
       <r>    1.1352    1.0000 </r>
       <r>    1.1352    1.0000 </r>
       <r>    1.5656    1.0000 </r>
       <r>    1.5838    1.0000 </r>
       <r>    1.6736    1.0000 </r>
       <r>    2.4777    1.0000 </r>
       <r>    3.0307    1.0000 </r>
       <r>    3.1832    1.0000 </r>
       <r>    3.1832    1.0000 </r>
       <r>    3.7147    1.0000 </r>
       <r>    3.7148    1.0000 </r>
       <r>    4.2771    1.0000 </r>
       <r>    4.9438    1.0000 </r>
       <r>    5.6090    0.0000 </r>
       <r>    5.6092    0.0000 </r>
       <r>    5.7200    0.0000 </r>
       <r>    5.7200    0.0000 </r>
       <r>    5.9658    0.0000 </r>
       <r>    7.0402    0.0000 </r>
       <r>    7.2441    0.0000 </r>
       <r>    7.2448    0.0000 </r>
       <r>    7.4301    0.0000 </r>
       <r>    7.4713    0.0000 </r>
       <r>    7.5717    0.0000 </r>
      </set>
      <set comment="kpoint 2">
       <r>  -57.3299    1.0000 </r>
       <r>  -57.3261    1.0000 </r>
       <r>  -57.2517    1.0000 </r>
       <r>  -57.2496    1.0000 </r>
       <r>  -31.0230    1.0000 </r>
       <r>  -31.0138    1.0000 </r>
       <r>  -30.9857    1.0000 </r>
       <r>  -30.9737    1.0000 </r>
       <r>  -30.7780    1.0000 </r>
       <r>  -30.7658    1.0000 </r>
       <r>  -30.7577    1.0000 </r>
       <r>  -30.7482    1.0000 </r>
       <r>  -30.6179    1.0000 </r>
       <r>  -30.6002    1.0000 </r>
       <r>  -30.5981    1.0000 </r>
       <r>  -30.5794    1.0000 </r>
       <r>   -5.1624    1.0000 </r>
       <r>   -3.2589    1.0000 </r>
       <r>   -2.1153    1.0000 </r>
       <r>   -1.7099    1.0000 </r>
       <r>   -0.9625    1.0000 </r>
       <r>   -0.5721    1.0000 </r>
       <r>   -0.1960    1.0000 </r>
       <r>   -0.0173    1.0000 </r>
       <r>    1.2294    1.0000 </r>
       <r>    1.3091    1.0000 </r>
       <r>    1.6542    1.0000 </r>
       <r>    1.6883    1.0000 </r>
       <r>    1.7126    1.0000 </r>
       <r>    2.6046    1.0000 </r>
       <r>    2.8502    1.0000 </r>
       <r>    2.9471    1.0000 </r>
       <r>    3.0817    1.0000 </r>
       <r>    3.5695    1.0000 </r>
       <r>    3.7558    1.0000 </r>
       <r>    4.0115    1.0000 </r>
       <r>    4.9206    1.0000 </r>
       <r>    5.4856    0.0000 </r>
       <r>    5.5680    0.0000 </r>
       <r>    5.6053    0.0000 </r>
       <r>    5.7038    0.0000 </r>
       <r>    5.8771    0.0000 </r>
       <r>    7.1151    0.0000 </r>
       <r>    7.2143    0.0000 </r>
       <r>    7.3067    0.0000 </r>
       <r>    7.4041    0.0000 </r>
       <r>    7.4546    0.0000 </r>
       <r>    7.4723    0.0000 </r>
      </set>
      <set comment="kpoint 3">
       <r>  -57.3290    1.0000 </r>
       <r>  -57.3264    1.0000 </r>
       <r>  -57.2517    1.0000 </r>
       <r>  -57.2503    1.0000 </r>
       <r>  -31.0173    1.0000 </r>
       <r>  -30.9915    1.0000 </r>
       <r>  -30.9825    1.0000 </r>
       <r>  -30.9476    1.0000 </r>
       <r>  -30.8081    1.0000 </r>
       <r>  -30.7870    1.0000 </r>
       <r>  -30.7629    1.0000 </r>
       <r>  -30.7509    1.0000 </r>
       <r>  -30.6152    1.0000 </r>
       <r>  -30.6029    1.0000 </r>
       <r>  -30.5952    1.0000 </r>
       <r>  -30.5823    1.0000 </r>
       <r>   -4.8536    1.0000 </r>
       <r>   -3.0789    1.0000 </r>
       <r>   -2.9327    1.0000 </r>
       <r>   -2.0406    1.0000 </r>
       <r>   -0.9271    1.0000 </r>
       <r>   -0.6137    1.0000 </r>
       <r>    0.0582    1.0000 </r>
       <r>    0.6472    1.0000 </r>
       <r>    1.4816    1.0000 </r>
       <r>    1.6619    1.0000 </r>
       <r>    1.6915    1.0000 </r>
       <r>    1.9030    1.0000 </r>
       <r>    2.0520    1.0000 </r>
       <r>    2.1455    1.0000 </r>
       <r>    2.6996    1.0000 </r>
       <r>    2.7684    1.0000 </r>
       <r>    2.9793    1.0000 </r>
       <r>    3.2540    1.0000 </r>
       <r>    3.4398    1.0000 </r>
       <r>    3.7849    1.0000 </r>
       <r>    4.9405    1.0000 </r>
       <r>    5.0459    1.0000 </r>
       <r>    5.3119    0.0103 </r>
       <r>    5.5975    0.0000 </r>
       <r>    5.6642    0.0000 </r>
       <r>    5.6744    0.0000 </r>
       <r>    6.9822    0.0000 </r>
       <r>    7.0057    0.0000 </r>
       <r>    7.3908    0.0000 </r>
       <r>    7.4448    0.0000 </r>
       <r>    7.6111    0.0000 </r>
       <r>    7.6385    0.0000 </r>
      </set>
      <set comment="kpoint 4">
       <r>  -57.3279    1.0000 </r>
       <r>  -57.3270    1.0000 </r>
       <r>  -57.2515    1.0000 </r>
       <r>  -57.2510    1.0000 </r>
       <r>  -31.0089    1.0000 </r>
       <r>  -30.9997    1.0000 </r>
       <r>  -30.9416    1.0000 </r>
       <r>  -30.9224    1.0000 </r>
       <r>  -30.8386    1.0000 </r>
       <r>  -30.8243    1.0000 </r>
       <r>  -30.7591    1.0000 </r>
       <r>  -30.7548    1.0000 </r>
       <r>  -30.6113    1.0000 </r>
       <r>  -30.6069    1.0000 </r>
       <r>  -30.5911    1.0000 </r>
       <r>  -30.5865    1.0000 </r>
       <r>   -4.3582    1.0000 </r>
       <r>   -3.7043    1.0000 </r>
       <r>   -2.7937    1.0000 </r>
       <r>   -2.4313    1.0000 </r>
       <r>   -0.8595    1.0000 </r>
       <r>   -0.7506    1.0000 </r>
       <r>    0.5999    1.0000 </r>
       <r>    1.2313    1.0000 </r>
       <r>    1.3242    1.0000 </r>
       <r>    1.5907    1.0000 </r>
       <r>    1.8562    1.0000 </r>
       <r>    2.0234    1.0000 </r>
       <r>    2.3007    1.0000 </r>
       <r>    2.3135    1.0000 </r>
       <r>    2.3728    1.0000 </r>
       <r>    2.4773    1.0000 </r>
       <r>    2.8273    1.0000 </r>
       <r>    2.8914    1.0000 </r>
       <r>    3.4800    1.0000 </r>
       <r>    3.7613    1.0000 </r>
       <r>    4.7404    1.0000 </r>
       <r>    4.8625    1.0000 </r>
       <r>    5.1237    1.0000 </r>
       <r>    5.3923    0.0000 </r>
       <r>    5.5998    0.0000 </r>
       <r>    5.6232    0.0000 </r>
       <r>    6.7754    0.0000 </r>
       <r>    6.8390    0.0000 </r>
       <r>    7.3965    0.0000 </r>
       <r>    7.4005    0.0000 </r>
       <r>    7.8259    0.0000 </r>
       <r>    7.8603    0.0000 </r>
      </set>
      <set comment="kpoint 5">
       <r>  -57.3296    1.0000 </r>
       <r>  -57.3262    1.0000 </r>
       <r>  -57.2518    1.0000 </r>
       <r>  -57.2499    1.0000 </r>
       <r>  -31.0121    1.0000 </r>
       <r>  -31.0115    1.0000 </r>
       <r>  -30.9769    1.0000 </r>
       <r>  -30.9745    1.0000 </r>
       <r>  -30.7783    1.0000 </r>
       <r>  -30.7758    1.0000 </r>
       <r>  -30.7592    1.0000 </r>
       <r>  -30.7585    1.0000 </r>
       <r>  -30.6170    1.0000 </r>
       <r>  -30.5991    1.0000 </r>
       <r>  -30.5990    1.0000 </r>
       <r>  -30.5805    1.0000 </r>
       <r>   -5.0369    1.0000 </r>
       <r>   -3.1998    1.0000 </r>
       <r>   -2.2223    1.0000 </r>
       <r>   -2.1561    1.0000 </r>
       <r>   -0.9420    1.0000 </r>
       <r>   -0.5622    1.0000 </r>
       <r>   -0.0419    1.0000 </r>
       <r>    0.1125    1.0000 </r>
       <r>    1.3502    1.0000 </r>
       <r>    1.5086    1.0000 </r>
       <r>    1.7121    1.0000 </r>
       <r>    1.7841    1.0000 </r>
       <r>    1.7963    1.0000 </r>
       <r>    2.5498    1.0000 </r>
       <r>    2.8121    1.0000 </r>
       <r>    2.9675    1.0000 </r>
       <r>    3.0466    1.0000 </r>
       <r>    3.3762    1.0000 </r>
       <r>    3.7183    1.0000 </r>
       <r>    3.7425    1.0000 </r>
       <r>    4.9904    1.0000 </r>
       <r>    5.3740    0.0000 </r>
       <r>    5.4058    0.0000 </r>
       <r>    5.5200    0.0000 </r>
       <r>    5.5619    0.0000 </r>
       <r>    5.7660    0.0000 </r>
       <r>    7.1779    0.0000 </r>
       <r>    7.2294    0.0000 </r>
       <r>    7.2649    0.0000 </r>
       <r>    7.2895    0.0000 </r>
       <r>    7.4638    0.0000 </r>
       <r>    7.5928    0.0000 </r>
      </set>
      <set comment="kpoint 6">
       <r>  -57.3287    1.0000 </r>
       <r>  -57.3264    1.0000 </r>
       <r>  -57.2518    1.0000 </r>
       <r>  -57.2505    1.0000 </r>
       <r>  -31.0063    1.0000 </r>
       <r>  -30.9818    1.0000 </r>
       <r>  -30.9803    1.0000 </r>
       <r>  -30.9491    1.0000 </r>
       <r>  -30.8073    1.0000 </r>
       <r>  -30.7882    1.0000 </r>
       <r>  -30.7740    1.0000 </r>
       <r>  -30.7617    1.0000 </r>
       <r>  -30.6144    1.0000 </r>
       <r>  -30.6017    1.0000 </r>
       <r>  -30.5961    1.0000 </r>
       <r>  -30.5834    1.0000 </r>
       <r>   -4.7151    1.0000 </r>
       <r>   -3.0391    1.0000 </r>
       <r>   -2.9694    1.0000 </r>
       <r>   -2.3434    1.0000 </r>
       <r>   -0.8907    1.0000 </r>
       <r>   -0.6985    1.0000 </r>
       <r>    0.2520    1.0000 </r>
       <r>    0.6192    1.0000 </r>
       <r>    1.6217    1.0000 </r>
       <r>    1.7429    1.0000 </r>
       <r>    1.8068    1.0000 </r>
       <r>    1.9588    1.0000 </r>
       <r>    1.9964    1.0000 </r>
       <r>    2.1108    1.0000 </r>
       <r>    2.5765    1.0000 </r>
       <r>    2.7259    1.0000 </r>
       <r>    3.0864    1.0000 </r>
       <r>    3.1758    1.0000 </r>
       <r>    3.4920    1.0000 </r>
       <r>    3.6526    1.0000 </r>
       <r>    4.9435    1.0000 </r>
       <r>    5.0217    1.0000 </r>
       <r>    5.1587    1.0000 </r>
       <r>    5.3751    0.0000 </r>
       <r>    5.4469    0.0000 </r>
       <r>    5.6073    0.0000 </r>
       <r>    7.0074    0.0000 </r>
       <r>    7.2341    0.0000 </r>
       <r>    7.3820    0.0000 </r>
       <r>    7.3916    0.0000 </r>
       <r>    7.6440    0.0000 </r>
       <r>    7.8310    0.0000 </r>
      </set>
      <set comment="kpoint 7">
       <r>  -57.3277    1.0000 </r>
       <r>  -57.3268    1.0000 </r>
       <r>  -57.2517    1.0000 </r>
       <r>  -57.2512    1.0000 </r>
       <r>  -30.9982    1.0000 </r>
       <r>  -30.9893    1.0000 </r>
       <r>  -30.9403    1.0000 </r>
       <r>  -30.9228    1.0000 </r>
       <r>  -30.8384    1.0000 </r>
       <r>  -30.8254    1.0000 </r>
       <r>  -30.7701    1.0000 </r>
       <r>  -30.7658    1.0000 </r>
       <r>  -30.6105    1.0000 </r>
       <r>  -30.6057    1.0000 </r>
       <r>  -30.5919    1.0000 </r>
       <r>  -30.5876    1.0000 </r>
       <r>   -4.2187    1.0000 </r>
       <r>   -3.7103    1.0000 </r>
       <r>   -2.7963    1.0000 </r>
       <r>   -2.5795    1.0000 </r>
       <r>   -0.8258    1.0000 </r>
       <r>   -0.7951    1.0000 </r>
       <r>    0.6702    1.0000 </r>
       <r>    1.2105    1.0000 </r>
       <r>    1.2597    1.0000 </r>
       <r>    1.6486    1.0000 </r>
       <r>    2.0104    1.0000 </r>
       <r>    2.1513    1.0000 </r>
       <r>    2.1579    1.0000 </r>
       <r>    2.2568    1.0000 </r>
       <r>    2.3471    1.0000 </r>
       <r>    2.4812    1.0000 </r>
       <r>    2.6233    1.0000 </r>
       <r>    2.8275    1.0000 </r>
       <r>    3.5024    1.0000 </r>
       <r>    3.9443    1.0000 </r>
       <r>    4.5413    1.0000 </r>
       <r>    4.8528    1.0000 </r>
       <r>    5.1972    1.0000 </r>
       <r>    5.2395    0.9975 </r>
       <r>    5.4130    0.0000 </r>
       <r>    5.5459    0.0000 </r>
       <r>    6.8442    0.0000 </r>
       <r>    7.1557    0.0000 </r>
       <r>    7.4024    0.0000 </r>
       <r>    7.4614    0.0000 </r>
       <r>    7.7256    0.0000 </r>
       <r>    7.8362    0.0000 </r>
      </set>
      <set comment="kpoint 8">
       <r>  -57.3277    1.0000 </r>
       <r>  -57.3268    1.0000 </r>
       <r>  -57.2517    1.0000 </r>
       <r>  -57.2512    1.0000 </r>
       <r>  -30.9981    1.0000 </r>
       <r>  -30.9893    1.0000 </r>
       <r>  -30.9403    1.0000 </r>
       <r>  -30.9229    1.0000 </r>
       <r>  -30.8384    1.0000 </r>
       <r>  -30.8253    1.0000 </r>
       <r>  -30.7702    1.0000 </r>
       <r>  -30.7657    1.0000 </r>
       <r>  -30.6101    1.0000 </r>
       <r>  -30.6061    1.0000 </r>
       <r>  -30.5923    1.0000 </r>
       <r>  -30.5873    1.0000 </r>
       <r>   -4.3352    1.0000 </r>
       <r>   -3.5823    1.0000 </r>
       <r>   -2.8392    1.0000 </r>
       <r>   -2.5154    1.0000 </r>
       <r>   -0.9025    1.0000 </r>
       <r>   -0.6426    1.0000 </r>
       <r>    0.6211    1.0000 </r>
       <r>    1.2485    1.0000 </r>
       <r>    1.2662    1.0000 </r>
       <r>    1.6225    1.0000 </r>
       <r>    1.7009    1.0000 </r>
       <r>    2.0756    1.0000 </r>
       <r>    2.2521    1.0000 </r>
       <r>    2.4544    1.0000 </r>
       <r>    2.4740    1.0000 </r>
       <r>    2.4964    1.0000 </r>
       <r>    2.6227    1.0000 </r>
       <r>    2.8348    1.0000 </r>
       <r>    3.0675    1.0000 </r>
       <r>    4.0118    1.0000 </r>
       <r>    4.5958    1.0000 </r>
       <r>    4.8738    1.0000 </r>
       <r>    5.1545    1.0000 </r>
       <r>    5.3177    0.0032 </r>
       <r>    5.5979    0.0000 </r>
       <r>    5.6110    0.0000 </r>
       <r>    6.8732    0.0000 </r>
       <r>    7.0070    0.0000 </r>
       <r>    7.3946    0.0000 </r>
       <r>    7.4644    0.0000 </r>
       <r>    7.6968    0.0000 </r>
       <r>    7.8841    0.0000 </r>
      </set>
      <set comment="kpoint 9">
       <r>  -57.3287    1.0000 </r>
       <r>  -57.3264    1.0000 </r>
       <r>  -57.2518    1.0000 </r>
       <r>  -57.2505    1.0000 </r>
       <r>  -31.0062    1.0000 </r>
       <r>  -30.9818    1.0000 </r>
       <r>  -30.9803    1.0000 </r>
       <r>  -30.9492    1.0000 </r>
       <r>  -30.8073    1.0000 </r>
       <r>  -30.7882    1.0000 </r>
       <r>  -30.7740    1.0000 </r>
       <r>  -30.7617    1.0000 </r>
       <r>  -30.6141    1.0000 </r>
       <r>  -30.6021    1.0000 </r>
       <r>  -30.5964    1.0000 </r>
       <r>  -30.5832    1.0000 </r>
       <r>   -4.8018    1.0000 </r>
       <r>   -3.0635    1.0000 </r>
       <r>   -2.8566    1.0000 </r>
       <r>   -2.2668    1.0000 </r>
       <r>   -0.9428    1.0000 </r>
       <r>   -0.4356    1.0000 </r>
       <r>    0.1629    1.0000 </r>
       <r>    0.6395    1.0000 </r>
       <r>    1.3645    1.0000 </r>
       <r>    1.7288    1.0000 </r>
       <r>    1.7767    1.0000 </r>
       <r>    1.9625    1.0000 </r>
       <r>    1.9870    1.0000 </r>
       <r>    2.0963    1.0000 </r>
       <r>    2.6229    1.0000 </r>
       <r>    2.7671    1.0000 </r>
       <r>    2.8428    1.0000 </r>
       <r>    3.1684    1.0000 </r>
       <r>    3.1990    1.0000 </r>
       <r>    3.9176    1.0000 </r>
       <r>    4.7542    1.0000 </r>
       <r>    4.9881    1.0000 </r>
       <r>    5.3752    0.0000 </r>
       <r>    5.4030    0.0000 </r>
       <r>    5.7684    0.0000 </r>
       <r>    5.7989    0.0000 </r>
       <r>    6.9266    0.0000 </r>
       <r>    7.1065    0.0000 </r>
       <r>    7.3493    0.0000 </r>
       <r>    7.5286    0.0000 </r>
       <r>    7.7475    0.0000 </r>
       <r>    7.9353    0.0000 </r>
      </set>
      <set comment="kpoint 10">
       <r>  -57.3296    1.0000 </r>
       <r>  -57.3262    1.0000 </r>
       <r>  -57.2518    1.0000 </r>
       <r>  -57.2499    1.0000 </r>
       <r>  -31.0121    1.0000 </r>
       <r>  -31.0114    1.0000 </r>
       <r>  -30.9767    1.0000 </r>
       <r>  -30.9747    1.0000 </r>
       <r>  -30.7781    1.0000 </r>
       <r>  -30.7760    1.0000 </r>
       <r>  -30.7592    1.0000 </r>
       <r>  -30.7584    1.0000 </r>
       <r>  -30.6168    1.0000 </r>
       <r>  -30.5993    1.0000 </r>
       <r>  -30.5992    1.0000 </r>
       <r>  -30.5804    1.0000 </r>
       <r>   -5.0828    1.0000 </r>
       <r>   -3.2108    1.0000 </r>
       <r>   -2.1416    1.0000 </r>
       <r>   -2.1165    1.0000 </r>
       <r>   -0.9614    1.0000 </r>
       <r>   -0.2349    1.0000 </r>
       <r>   -0.0791    1.0000 </r>
       <r>   -0.0238    1.0000 </r>
       <r>    1.1999    1.0000 </r>
       <r>    1.4503    1.0000 </r>
       <r>    1.7067    1.0000 </r>
       <r>    1.7767    1.0000 </r>
       <r>    1.7935    1.0000 </r>
       <r>    2.4727    1.0000 </r>
       <r>    2.5794    1.0000 </r>
       <r>    2.9278    1.0000 </r>
       <r>    3.0522    1.0000 </r>
       <r>    3.5038    1.0000 </r>
       <r>    3.7389    1.0000 </r>
       <r>    3.7933    1.0000 </r>
       <r>    4.8228    1.0000 </r>
       <r>    5.4120    0.0000 </r>
       <r>    5.4947    0.0000 </r>
       <r>    5.5136    0.0000 </r>
       <r>    5.7509    0.0000 </r>
       <r>    5.9141    0.0000 </r>
       <r>    7.0016    0.0000 </r>
       <r>    7.2799    0.0000 </r>
       <r>    7.2875    0.0000 </r>
       <r>    7.4801    0.0000 </r>
       <r>    7.5419    0.0000 </r>
       <r>    7.6463    0.0000 </r>
      </set>
      <set comment="kpoint 11">
       <r>  -57.3280    1.0000 </r>
       <r>  -57.3264    1.0000 </r>
       <r>  -57.2520    1.0000 </r>
       <r>  -57.2510    1.0000 </r>
       <r>  -30.9775    1.0000 </r>
       <r>  -30.9744    1.0000 </r>
       <r>  -30.9576    1.0000 </r>
       <r>  -30.9502    1.0000 </r>
       <r>  -30.8083    1.0000 </r>
       <r>  -30.8008    1.0000 </r>
       <r>  -30.7925    1.0000 </r>
       <r>  -30.7894    1.0000 </r>
       <r>  -30.6118    1.0000 </r>
       <r>  -30.5988    1.0000 </r>
       <r>  -30.5987    1.0000 </r>
       <r>  -30.5864    1.0000 </r>
       <r>   -4.3997    1.0000 </r>
       <r>   -3.0376    1.0000 </r>
       <r>   -2.9504    1.0000 </r>
       <r>   -2.8734    1.0000 </r>
       <r>   -0.8244    1.0000 </r>
       <r>   -0.7468    1.0000 </r>
       <r>    0.6171    1.0000 </r>
       <r>    0.6914    1.0000 </r>
       <r>    1.5643    1.0000 </r>
       <r>    1.8562    1.0000 </r>
       <r>    1.8782    1.0000 </r>
       <r>    2.0024    1.0000 </r>
       <r>    2.2175    1.0000 </r>
       <r>    2.2246    1.0000 </r>
       <r>    2.3372    1.0000 </r>
       <r>    2.5779    1.0000 </r>
       <r>    2.6128    1.0000 </r>
       <r>    2.8330    1.0000 </r>
       <r>    3.5676    1.0000 </r>
       <r>    4.0345    1.0000 </r>
       <r>    4.5599    1.0000 </r>
       <r>    4.8408    1.0000 </r>
       <r>    4.9534    1.0000 </r>
       <r>    5.3508    0.0000 </r>
       <r>    5.3534    0.0000 </r>
       <r>    5.3683    0.0000 </r>
       <r>    6.9814    0.0000 </r>
       <r>    7.4079    0.0000 </r>
       <r>    7.5266    0.0000 </r>
       <r>    7.6839    0.0000 </r>
       <r>    7.8143    0.0000 </r>
       <r>    7.9907    0.0000 </r>
      </set>
      <set comment="kpoint 12">
       <r>  -57.3272    1.0000 </r>
       <r>  -57.3266    1.0000 </r>
       <r>  -57.2520    1.0000 </r>
       <r>  -57.2516    1.0000 </r>
       <r>  -30.9691    1.0000 </r>
       <r>  -30.9613    1.0000 </r>
       <r>  -30.9368    1.0000 </r>
       <r>  -30.9241    1.0000 </r>
       <r>  -30.8377    1.0000 </r>
       <r>  -30.8283    1.0000 </r>
       <r>  -30.7996    1.0000 </r>
       <r>  -30.7952    1.0000 </r>
       <r>  -30.6078    1.0000 </r>
       <r>  -30.6027    1.0000 </r>
       <r>  -30.5946    1.0000 </r>
       <r>  -30.5906    1.0000 </r>
       <r>   -3.9373    1.0000 </r>
       <r>   -3.6053    1.0000 </r>
       <r>   -2.9289    1.0000 </r>
       <r>   -2.8445    1.0000 </r>
       <r>   -0.8349    1.0000 </r>
       <r>   -0.7202    1.0000 </r>
       <r>    0.8327    1.0000 </r>
       <r>    1.1285    1.0000 </r>
       <r>    1.1844    1.0000 </r>
       <r>    1.7579    1.0000 </r>
       <r>    1.9041    1.0000 </r>
       <r>    2.1375    1.0000 </r>
       <r>    2.1943    1.0000 </r>
       <r>    2.2181    1.0000 </r>
       <r>    2.3829    1.0000 </r>
       <r>    2.4173    1.0000 </r>
       <r>    2.4924    1.0000 </r>
       <r>    2.6790    1.0000 </r>
       <r>    3.3840    1.0000 </r>
       <r>    4.1851    1.0000 </r>
       <r>    4.2910    1.0000 </r>
       <r>    4.7056    1.0000 </r>
       <r>    4.8161    1.0000 </r>
       <r>    5.0391    1.0000 </r>
       <r>    5.5514    0.0000 </r>
       <r>    5.5793    0.0000 </r>
       <r>    6.8800    0.0000 </r>
       <r>    7.4247    0.0000 </r>
       <r>    7.6486    0.0000 </r>
       <r>    7.7637    0.0000 </r>
       <r>    7.8599    0.0000 </r>
       <r>    8.0853    0.0000 </r>
      </set>
      <set comment="kpoint 13">
       <r>  -57.3272    1.0000 </r>
       <r>  -57.3266    1.0000 </r>
       <r>  -57.2519    1.0000 </r>
       <r>  -57.2516    1.0000 </r>
       <r>  -30.9689    1.0000 </r>
       <r>  -30.9614    1.0000 </r>
       <r>  -30.9367    1.0000 </r>
       <r>  -30.9243    1.0000 </r>
       <r>  -30.8378    1.0000 </r>
       <r>  -30.8283    1.0000 </r>
       <r>  -30.7997    1.0000 </r>
       <r>  -30.7951    1.0000 </r>
       <r>  -30.6071    1.0000 </r>
       <r>  -30.6034    1.0000 </r>
       <r>  -30.5952    1.0000 </r>
       <r>  -30.5900    1.0000 </r>
       <r>   -4.1517    1.0000 </r>
       <r>   -3.3759    1.0000 </r>
       <r>   -2.9548    1.0000 </r>
       <r>   -2.7746    1.0000 </r>
       <r>   -0.9070    1.0000 </r>
       <r>   -0.5862    1.0000 </r>
       <r>    0.7756    1.0000 </r>
       <r>    1.1577    1.0000 </r>
       <r>    1.2021    1.0000 </r>
       <r>    1.5441    1.0000 </r>
       <r>    1.7209    1.0000 </r>
       <r>    2.1682    1.0000 </r>
       <r>    2.2137    1.0000 </r>
       <r>    2.3376    1.0000 </r>
       <r>    2.4375    1.0000 </r>
       <r>    2.5139    1.0000 </r>
       <r>    2.6035    1.0000 </r>
       <r>    2.8331    1.0000 </r>
       <r>    2.8384    1.0000 </r>
       <r>    4.1905    1.0000 </r>
       <r>    4.4078    1.0000 </r>
       <r>    4.5600    1.0000 </r>
       <r>    4.8154    1.0000 </r>
       <r>    5.0338    1.0000 </r>
       <r>    5.7275    0.0000 </r>
       <r>    5.9243    0.0000 </r>
       <r>    6.8398    0.0000 </r>
       <r>    7.3521    0.0000 </r>
       <r>    7.5146    0.0000 </r>
       <r>    7.6114    0.0000 </r>
       <r>    7.9745    0.0000 </r>
       <r>    8.0091    0.0000 </r>
      </set>
      <set comment="kpoint 14">
       <r>  -57.3280    1.0000 </r>
       <r>  -57.3264    1.0000 </r>
       <r>  -57.2520    1.0000 </r>
       <r>  -57.2510    1.0000 </r>
       <r>  -30.9775    1.0000 </r>
       <r>  -30.9742    1.0000 </r>
       <r>  -30.9575    1.0000 </r>
       <r>  -30.9505    1.0000 </r>
       <r>  -30.8082    1.0000 </r>
       <r>  -30.8011    1.0000 </r>
       <r>  -30.7925    1.0000 </r>
       <r>  -30.7893    1.0000 </r>
       <r>  -30.6112    1.0000 </r>
       <r>  -30.5993    1.0000 </r>
       <r>  -30.5992    1.0000 </r>
       <r>  -30.5859    1.0000 </r>
       <r>   -4.5621    1.0000 </r>
       <r>   -3.0104    1.0000 </r>
       <r>   -2.8001    1.0000 </r>
       <r>   -2.7668    1.0000 </r>
       <r>   -0.9395    1.0000 </r>
       <r>   -0.4633    1.0000 </r>
       <r>    0.6044    1.0000 </r>
       <r>    0.6500    1.0000 </r>
       <r>    1.3604    1.0000 </r>
       <r>    1.5701    1.0000 </r>
       <r>    1.8248    1.0000 </r>
       <r>    2.1578    1.0000 </r>
       <r>    2.1720    1.0000 </r>
       <r>    2.1984    1.0000 </r>
       <r>    2.4725    1.0000 </r>
       <r>    2.5941    1.0000 </r>
       <r>    2.7335    1.0000 </r>
       <r>    2.7390    1.0000 </r>
       <r>    3.1252    1.0000 </r>
       <r>    4.0193    1.0000 </r>
       <r>    4.5639    1.0000 </r>
       <r>    4.8858    1.0000 </r>
       <r>    4.9059    1.0000 </r>
       <r>    5.1972    1.0000 </r>
       <r>    5.8153    0.0000 </r>
       <r>    6.0099    0.0000 </r>
       <r>    6.8483    0.0000 </r>
       <r>    7.2925    0.0000 </r>
       <r>    7.3058    0.0000 </r>
       <r>    7.6146    0.0000 </r>
       <r>    7.7162    0.0000 </r>
       <r>    8.0188    0.0000 </r>
      </set>
      <set comment="kpoint 15">
       <r>  -57.3267    1.0000 </r>
       <r>  -57.3265    1.0000 </r>
       <r>  -57.2521    1.0000 </r>
       <r>  -57.2520    1.0000 </r>
       <r>  -30.9371    1.0000 </r>
       <r>  -30.9336    1.0000 </r>
       <r>  -30.9281    1.0000 </r>
       <r>  -30.9221    1.0000 </r>
       <r>  -30.8410    1.0000 </r>
       <r>  -30.8366    1.0000 </r>
       <r>  -30.8286    1.0000 </r>
       <r>  -30.8267    1.0000 </r>
       <r>  -30.6039    1.0000 </r>
       <r>  -30.5986    1.0000 </r>
       <r>  -30.5984    1.0000 </r>
       <r>  -30.5948    1.0000 </r>
       <r>   -3.5581    1.0000 </r>
       <r>   -3.5004    1.0000 </r>
       <r>   -3.2806    1.0000 </r>
       <r>   -2.9572    1.0000 </r>
       <r>   -0.8384    1.0000 </r>
       <r>   -0.6473    1.0000 </r>
       <r>    1.0481    1.0000 </r>
       <r>    1.0774    1.0000 </r>
       <r>    1.1733    1.0000 </r>
       <r>    1.5203    1.0000 </r>
       <r>    1.6387    1.0000 </r>
       <r>    2.1317    1.0000 </r>
       <r>    2.1467    1.0000 </r>
       <r>    2.2531    1.0000 </r>
       <r>    2.4452    1.0000 </r>
       <r>    2.5099    1.0000 </r>
       <r>    2.5551    1.0000 </r>
       <r>    2.6747    1.0000 </r>
       <r>    3.5029    1.0000 </r>
       <r>    3.7043    1.0000 </r>
       <r>    4.4441    1.0000 </r>
       <r>    4.4771    1.0000 </r>
       <r>    4.5435    1.0000 </r>
       <r>    4.7425    1.0000 </r>
       <r>    5.7181    0.0000 </r>
       <r>    5.9781    0.0000 </r>
       <r>    6.8236    0.0000 </r>
       <r>    7.3574    0.0000 </r>
       <r>    7.6376    0.0000 </r>
       <r>    8.0991    0.0000 </r>
       <r>    8.3231    0.0000 </r>
       <r>    8.6863    0.0000 </r>
      </set>
      <set comment="kpoint 16">
       <r>  -57.3267    1.0000 </r>
       <r>  -57.3265    1.0000 </r>
       <r>  -57.2521    1.0000 </r>
       <r>  -57.2520    1.0000 </r>
       <r>  -30.9370    1.0000 </r>
       <r>  -30.9336    1.0000 </r>
       <r>  -30.9278    1.0000 </r>
       <r>  -30.9225    1.0000 </r>
       <r>  -30.8409    1.0000 </r>
       <r>  -30.8367    1.0000 </r>
       <r>  -30.8289    1.0000 </r>
       <r>  -30.8265    1.0000 </r>
       <r>  -30.6030    1.0000 </r>
       <r>  -30.5994    1.0000 </r>
       <r>  -30.5993    1.0000 </r>
       <r>  -30.5940    1.0000 </r>
       <r>   -3.8333    1.0000 </r>
       <r>   -3.1627    1.0000 </r>
       <r>   -3.1413    1.0000 </r>
       <r>   -3.1277    1.0000 </r>
       <r>   -0.8729    1.0000 </r>
       <r>   -0.5961    1.0000 </r>
       <r>    1.0626    1.0000 </r>
       <r>    1.0960    1.0000 </r>
       <r>    1.1162    1.0000 </r>
       <r>    1.5094    1.0000 </r>
       <r>    1.5337    1.0000 </r>
       <r>    2.0336    1.0000 </r>
       <r>    2.3081    1.0000 </r>
       <r>    2.3261    1.0000 </r>
       <r>    2.3732    1.0000 </r>
       <r>    2.4653    1.0000 </r>
       <r>    2.6239    1.0000 </r>
       <r>    2.8692    1.0000 </r>
       <r>    3.0533    1.0000 </r>
       <r>    4.0229    1.0000 </r>
       <r>    4.3525    1.0000 </r>
       <r>    4.3583    1.0000 </r>
       <r>    4.5242    1.0000 </r>
       <r>    4.7997    1.0000 </r>
       <r>    5.7882    0.0000 </r>
       <r>    6.1714    0.0000 </r>
       <r>    6.8111    0.0000 </r>
       <r>    7.3263    0.0000 </r>
       <r>    7.6103    0.0000 </r>
       <r>    8.0749    0.0000 </r>
       <r>    8.1699    0.0000 </r>
       <r>    8.5102    0.0000 </r>
      </set>
      <set comment="kpoint 17">
       <r>  -57.3297    1.0000 </r>
       <r>  -57.3262    1.0000 </r>
       <r>  -57.2518    1.0000 </r>
       <r>  -57.2497    1.0000 </r>
       <r>  -31.0151    1.0000 </r>
       <r>  -31.0146    1.0000 </r>
       <r>  -30.9785    1.0000 </r>
       <r>  -30.9766    1.0000 </r>
       <r>  -30.7756    1.0000 </r>
       <r>  -30.7737    1.0000 </r>
       <r>  -30.7564    1.0000 </r>
       <r>  -30.7559    1.0000 </r>
       <r>  -30.6173    1.0000 </r>
       <r>  -30.5993    1.0000 </r>
       <r>  -30.5991    1.0000 </r>
       <r>  -30.5799    1.0000 </r>
       <r>   -5.1255    1.0000 </r>
       <r>   -3.2348    1.0000 </r>
       <r>   -2.0476    1.0000 </r>
       <r>   -2.0246    1.0000 </r>
       <r>   -0.9638    1.0000 </r>
       <r>   -0.2053    1.0000 </r>
       <r>   -0.1743    1.0000 </r>
       <r>   -0.1161    1.0000 </r>
       <r>    1.1852    1.0000 </r>
       <r>    1.3828    1.0000 </r>
       <r>    1.6964    1.0000 </r>
       <r>    1.7326    1.0000 </r>
       <r>    1.7473    1.0000 </r>
       <r>    2.4737    1.0000 </r>
       <r>    2.7024    1.0000 </r>
       <r>    2.9494    1.0000 </r>
       <r>    3.0815    1.0000 </r>
       <r>    3.5474    1.0000 </r>
       <r>    3.7751    1.0000 </r>
       <r>    3.8555    1.0000 </r>
       <r>    4.8487    1.0000 </r>
       <r>    5.4738    0.0000 </r>
       <r>    5.5221    0.0000 </r>
       <r>    5.5609    0.0000 </r>
       <r>    5.7210    0.0000 </r>
       <r>    5.9255    0.0000 </r>
       <r>    7.0288    0.0000 </r>
       <r>    7.2689    0.0000 </r>
       <r>    7.3125    0.0000 </r>
       <r>    7.3935    0.0000 </r>
       <r>    7.5477    0.0000 </r>
       <r>    7.7534    0.0000 </r>
      </set>
      <set comment="kpoint 18">
       <r>  -57.3289    1.0000 </r>
       <r>  -57.3263    1.0000 </r>
       <r>  -57.2518    1.0000 </r>
       <r>  -57.2503    1.0000 </r>
       <r>  -31.0096    1.0000 </r>
       <r>  -30.9860    1.0000 </r>
       <r>  -30.9827    1.0000 </r>
       <r>  -30.9527    1.0000 </r>
       <r>  -30.8031    1.0000 </r>
       <r>  -30.7836    1.0000 </r>
       <r>  -30.7718    1.0000 </r>
       <r>  -30.7588    1.0000 </r>
       <r>  -30.6147    1.0000 </r>
       <r>  -30.6018    1.0000 </r>
       <r>  -30.5966    1.0000 </r>
       <r>  -30.5825    1.0000 </r>
       <r>   -4.8650    1.0000 </r>
       <r>   -3.0925    1.0000 </r>
       <r>   -2.7722    1.0000 </r>
       <r>   -2.1876    1.0000 </r>
       <r>   -0.9455    1.0000 </r>
       <r>   -0.4194    1.0000 </r>
       <r>    0.0815    1.0000 </r>
       <r>    0.5586    1.0000 </r>
       <r>    1.3437    1.0000 </r>
       <r>    1.7016    1.0000 </r>
       <r>    1.7223    1.0000 </r>
       <r>    1.9359    1.0000 </r>
       <r>    2.0391    1.0000 </r>
       <r>    2.0905    1.0000 </r>
       <r>    2.6172    1.0000 </r>
       <r>    2.7918    1.0000 </r>
       <r>    2.8806    1.0000 </r>
       <r>    3.2486    1.0000 </r>
       <r>    3.3039    1.0000 </r>
       <r>    3.8913    1.0000 </r>
       <r>    4.7788    1.0000 </r>
       <r>    5.0561    1.0000 </r>
       <r>    5.4107    0.0000 </r>
       <r>    5.4640    0.0000 </r>
       <r>    5.7441    0.0000 </r>
       <r>    5.8118    0.0000 </r>
       <r>    6.9431    0.0000 </r>
       <r>    7.1130    0.0000 </r>
       <r>    7.3496    0.0000 </r>
       <r>    7.5065    0.0000 </r>
       <r>    7.7780    0.0000 </r>
       <r>    7.8617    0.0000 </r>
      </set>
      <set comment="kpoint 19">
       <r>  -57.3279    1.0000 </r>
       <r>  -57.3268    1.0000 </r>
       <r>  -57.2517    1.0000 </r>
       <r>  -57.2511    1.0000 </r>
       <r>  -31.0017    1.0000 </r>
       <r>  -30.9907    1.0000 </r>
       <r>  -30.9455    1.0000 </r>
       <r>  -30.9245    1.0000 </r>
       <r>  -30.8361    1.0000 </r>
       <r>  -30.8207    1.0000 </r>
       <r>  -30.7682    1.0000 </r>
       <r>  -30.7627    1.0000 </r>
       <r>  -30.6109    1.0000 </r>
       <r>  -30.6058    1.0000 </r>
       <r>  -30.5926    1.0000 </r>
       <r>  -30.5865    1.0000 </r>
       <r>   -4.4154    1.0000 </r>
       <r>   -3.5152    1.0000 </r>
       <r>   -2.8633    1.0000 </r>
       <r>   -2.4563    1.0000 </r>
       <r>   -0.9059    1.0000 </r>
       <r>   -0.6316    1.0000 </r>
       <r>    0.5398    1.0000 </r>
       <r>    1.1817    1.0000 </r>
       <r>    1.3643    1.0000 </r>
       <r>    1.6432    1.0000 </r>
       <r>    1.6725    1.0000 </r>
       <r>    2.0181    1.0000 </r>
       <r>    2.2209    1.0000 </r>
       <r>    2.4261    1.0000 </r>
       <r>    2.4931    1.0000 </r>
       <r>    2.5205    1.0000 </r>
       <r>    2.7298    1.0000 </r>
       <r>    2.8876    1.0000 </r>
       <r>    3.0471    1.0000 </r>
       <r>    3.9793    1.0000 </r>
       <r>    4.6510    1.0000 </r>
       <r>    4.8845    1.0000 </r>
       <r>    5.1754    1.0000 </r>
       <r>    5.3787    0.0000 </r>
       <r>    5.6085    0.0000 </r>
       <r>    5.6143    0.0000 </r>
       <r>    6.8769    0.0000 </r>
       <r>    6.9621    0.0000 </r>
       <r>    7.4084    0.0000 </r>
       <r>    7.4622    0.0000 </r>
       <r>    7.7371    0.0000 </r>
       <r>    7.8664    0.0000 </r>
      </set>
      <set comment="kpoint 20">
       <r>  -57.3276    1.0000 </r>
       <r>  -57.3270    1.0000 </r>
       <r>  -57.2516    1.0000 </r>
       <r>  -57.2512    1.0000 </r>
       <r>  -30.9996    1.0000 </r>
       <r>  -30.9928    1.0000 </r>
       <r>  -30.9360    1.0000 </r>
       <r>  -30.9218    1.0000 </r>
       <r>  -30.8399    1.0000 </r>
       <r>  -30.8292    1.0000 </r>
       <r>  -30.7671    1.0000 </r>
       <r>  -30.7638    1.0000 </r>
       <r>  -30.6102    1.0000 </r>
       <r>  -30.6065    1.0000 </r>
       <r>  -30.5911    1.0000 </r>
       <r>  -30.5879    1.0000 </r>
       <r>   -4.1714    1.0000 </r>
       <r>   -3.8025    1.0000 </r>
       <r>   -2.7577    1.0000 </r>
       <r>   -2.5838    1.0000 </r>
       <r>   -0.8329    1.0000 </r>
       <r>   -0.7886    1.0000 </r>
       <r>    0.7260    1.0000 </r>
       <r>    1.1856    1.0000 </r>
       <r>    1.2770    1.0000 </r>
       <r>    1.6042    1.0000 </r>
       <r>    2.0408    1.0000 </r>
       <r>    2.1203    1.0000 </r>
       <r>    2.1821    1.0000 </r>
       <r>    2.3026    1.0000 </r>
       <r>    2.3059    1.0000 </r>
       <r>    2.5280    1.0000 </r>
       <r>    2.6077    1.0000 </r>
       <r>    2.8008    1.0000 </r>
       <r>    3.4946    1.0000 </r>
       <r>    3.9236    1.0000 </r>
       <r>    4.5544    1.0000 </r>
       <r>    4.8545    1.0000 </r>
       <r>    5.1818    1.0000 </r>
       <r>    5.2722    0.6884 </r>
       <r>    5.4381    0.0000 </r>
       <r>    5.5645    0.0000 </r>
       <r>    6.8223    0.0000 </r>
       <r>    7.0662    0.0000 </r>
       <r>    7.4047    0.0000 </r>
       <r>    7.4403    0.0000 </r>
       <r>    7.7675    0.0000 </r>
       <r>    7.8654    0.0000 </r>
      </set>
      <set comment="kpoint 21">
       <r>  -57.3287    1.0000 </r>
       <r>  -57.3264    1.0000 </r>
       <r>  -57.2518    1.0000 </r>
       <r>  -57.2505    1.0000 </r>
       <r>  -31.0079    1.0000 </r>
       <r>  -30.9846    1.0000 </r>
       <r>  -30.9763    1.0000 </r>
       <r>  -30.9448    1.0000 </r>
       <r>  -30.8120    1.0000 </r>
       <r>  -30.7925    1.0000 </r>
       <r>  -30.7710    1.0000 </r>
       <r>  -30.7597    1.0000 </r>
       <r>  -30.6142    1.0000 </r>
       <r>  -30.6024    1.0000 </r>
       <r>  -30.5954    1.0000 </r>
       <r>  -30.5837    1.0000 </r>
       <r>   -4.6894    1.0000 </r>
       <r>   -3.0662    1.0000 </r>
       <r>   -3.0185    1.0000 </r>
       <r>   -2.3115    1.0000 </r>
       <r>   -0.8877    1.0000 </r>
       <r>   -0.7129    1.0000 </r>
       <r>    0.2596    1.0000 </r>
       <r>    0.6993    1.0000 </r>
       <r>    1.6413    1.0000 </r>
       <r>    1.7282    1.0000 </r>
       <r>    1.8263    1.0000 </r>
       <r>    1.9135    1.0000 </r>
       <r>    2.0077    1.0000 </r>
       <r>    2.1460    1.0000 </r>
       <r>    2.5578    1.0000 </r>
       <r>    2.6687    1.0000 </r>
       <r>    3.0960    1.0000 </r>
       <r>    3.1573    1.0000 </r>
       <r>    3.4907    1.0000 </r>
       <r>    3.6545    1.0000 </r>
       <r>    4.9265    1.0000 </r>
       <r>    4.9905    1.0000 </r>
       <r>    5.1515    1.0000 </r>
       <r>    5.4124    0.0000 </r>
       <r>    5.4517    0.0000 </r>
       <r>    5.6122    0.0000 </r>
       <r>    6.9668    0.0000 </r>
       <r>    7.2060    0.0000 </r>
       <r>    7.3786    0.0000 </r>
       <r>    7.3964    0.0000 </r>
       <r>    7.6705    0.0000 </r>
       <r>    7.7644    0.0000 </r>
      </set>
      <set comment="kpoint 22">
       <r>  -57.3296    1.0000 </r>
       <r>  -57.3262    1.0000 </r>
       <r>  -57.2518    1.0000 </r>
       <r>  -57.2499    1.0000 </r>
       <r>  -31.0139    1.0000 </r>
       <r>  -31.0093    1.0000 </r>
       <r>  -30.9787    1.0000 </r>
       <r>  -30.9725    1.0000 </r>
       <r>  -30.7803    1.0000 </r>
       <r>  -30.7740    1.0000 </r>
       <r>  -30.7614    1.0000 </r>
       <r>  -30.7566    1.0000 </r>
       <r>  -30.6170    1.0000 </r>
       <r>  -30.5996    1.0000 </r>
       <r>  -30.5986    1.0000 </r>
       <r>  -30.5806    1.0000 </r>
       <r>   -5.0340    1.0000 </r>
       <r>   -3.1978    1.0000 </r>
       <r>   -2.2775    1.0000 </r>
       <r>   -2.1100    1.0000 </r>
       <r>   -0.9417    1.0000 </r>
       <r>   -0.5679    1.0000 </r>
       <r>   -0.0423    1.0000 </r>
       <r>    0.1275    1.0000 </r>
       <r>    1.3528    1.0000 </r>
       <r>    1.5110    1.0000 </r>
       <r>    1.7118    1.0000 </r>
       <r>    1.7796    1.0000 </r>
       <r>    1.8067    1.0000 </r>
       <r>    2.5440    1.0000 </r>
       <r>    2.8101    1.0000 </r>
       <r>    2.9676    1.0000 </r>
       <r>    3.0378    1.0000 </r>
       <r>    3.3782    1.0000 </r>
       <r>    3.7172    1.0000 </r>
       <r>    3.7387    1.0000 </r>
       <r>    4.9893    1.0000 </r>
       <r>    5.3636    0.0000 </r>
       <r>    5.4030    0.0000 </r>
       <r>    5.5229    0.0000 </r>
[...]
       <r>  -57.2495    1.0000 </r>
       <r>  -31.0220    1.0000 </r>
       <r>  -31.0218    1.0000 </r>
       <r>  -30.9818    1.0000 </r>
       <r>  -30.9811    1.0000 </r>
       <r>  -30.7695    1.0000 </r>
       <r>  -30.7688    1.0000 </r>
       <r>  -30.7503    1.0000 </r>
       <r>  -30.7502    1.0000 </r>
       <r>  -30.6194    1.0000 </r>
       <r>  -30.5985    1.0000 </r>
       <r>  -30.5983    1.0000 </r>
       <r>  -30.5796    1.0000 </r>
       <r>   -4.9786    1.0000 </r>
       <r>   -3.2406    1.0000 </r>
       <r>   -2.1408    1.0000 </r>
       <r>   -1.9656    1.0000 </r>
       <r>   -1.3777    1.0000 </r>
       <r>   -0.9226    1.0000 </r>
       <r>   -0.4625    1.0000 </r>
       <r>    0.1407    1.0000 </r>
       <r>    1.5949    1.0000 </r>
       <r>    1.6200    1.0000 </r>
       <r>    1.7036    1.0000 </r>
       <r>    2.0202    1.0000 </r>
       <r>    2.0228    1.0000 </r>
       <r>    2.3690    1.0000 </r>
       <r>    2.8419    1.0000 </r>
       <r>    2.9542    1.0000 </r>
       <r>    3.4549    1.0000 </r>
       <r>    3.6143    1.0000 </r>
       <r>    4.1381    1.0000 </r>
       <r>    4.8303    1.0000 </r>
       <r>    5.0476    1.0000 </r>
       <r>    5.0900    1.0000 </r>
       <r>    5.2758    0.5930 </r>
       <r>    5.6348    0.0000 </r>
       <r>    5.8166    0.0000 </r>
       <r>    5.9529    0.0000 </r>
       <r>    6.0035    0.0000 </r>
       <r>    6.3200    0.0000 </r>
       <r>    6.6863    0.0000 </r>
       <r>    6.7156    0.0000 </r>
       <r>    7.1917    0.0000 </r>
       <r>    7.5078    0.0000 </r>
      </set>
      <set comment="kpoint 116">
       <r>  -57.3301    1.0000 </r>
       <r>  -57.3261    1.0000 </r>
       <r>  -57.2517    1.0000 </r>
       <r>  -57.2495    1.0000 </r>
       <r>  -31.0220    1.0000 </r>
       <r>  -31.0218    1.0000 </r>
       <r>  -30.9816    1.0000 </r>
       <r>  -30.9812    1.0000 </r>
       <r>  -30.7694    1.0000 </r>
       <r>  -30.7689    1.0000 </r>
       <r>  -30.7503    1.0000 </r>
       <r>  -30.7501    1.0000 </r>
       <r>  -30.6194    1.0000 </r>
       <r>  -30.5984    1.0000 </r>
       <r>  -30.5982    1.0000 </r>
       <r>  -30.5796    1.0000 </r>
       <r>   -4.9649    1.0000 </r>
       <r>   -3.2379    1.0000 </r>
       <r>   -2.1599    1.0000 </r>
       <r>   -1.9749    1.0000 </r>
       <r>   -1.4030    1.0000 </r>
       <r>   -0.9223    1.0000 </r>
       <r>   -0.4664    1.0000 </r>
       <r>    0.1436    1.0000 </r>
       <r>    1.5948    1.0000 </r>
       <r>    1.6202    1.0000 </r>
       <r>    1.7047    1.0000 </r>
       <r>    2.0691    1.0000 </r>
       <r>    2.0746    1.0000 </r>
       <r>    2.3491    1.0000 </r>
       <r>    2.8279    1.0000 </r>
       <r>    2.9430    1.0000 </r>
       <r>    3.4489    1.0000 </r>
       <r>    3.6107    1.0000 </r>
       <r>    4.1384    1.0000 </r>
       <r>    4.7802    1.0000 </r>
       <r>    5.0181    1.0000 </r>
       <r>    5.2651    0.8387 </r>
       <r>    5.2788    0.5087 </r>
       <r>    5.6920    0.0000 </r>
       <r>    5.7521    0.0000 </r>
       <r>    5.9953    0.0000 </r>
       <r>    6.0675    0.0000 </r>
       <r>    6.2862    0.0000 </r>
       <r>    6.5609    0.0000 </r>
       <r>    6.5942    0.0000 </r>
       <r>    7.1354    0.0000 </r>
       <r>    7.4233    0.0000 </r>
      </set>
     </set>
    </set>
   </array>
  </eigenvalues>
  <separator name="orbital magnetization" >
   <v name="MAGDIPOLOUT">      0.00000000      0.00000000      0.00000000</v>
  </separator>
  <dos>
   <i name="efermi">      5.27913441 </i>
   <total>
    <array>
     <dimension dim="1">gridpoints</dimension>
     <dimension dim="2">spin</dimension>
     <field>energy</field>
     <field>total</field>
     <field>integrated</field>
     <set>
      <set comment="spin 1">
       <r>   -60.6438     0.0000     0.0000 </r>
       <r>   -60.4008     0.0000     0.0000 </r>
       <r>   -60.1578     0.0000     0.0000 </r>
       <r>   -59.9148     0.0000     0.0000 </r>
       <r>   -59.6718     0.0000     0.0000 </r>
       <r>   -59.4288     0.0000     0.0000 </r>
       <r>   -59.1858     0.0000     0.0000 </r>
       <r>   -58.9429     0.0000     0.0000 </r>
       <r>   -58.6999     0.0000     0.0000 </r>
       <r>   -58.4569     0.0000     0.0000 </r>
       <r>   -58.2139     0.0000     0.0000 </r>
       <r>   -57.9709     0.0000     0.0000 </r>
       <r>   -57.7279     0.0000     0.0000 </r>
       <r>   -57.4849     0.0000     0.0000 </r>
       <r>   -57.2419    28.7670     6.9903 </r>
       <r>   -56.9989     0.0000     8.0000 </r>
       <r>   -56.7559     0.0000     8.0000 </r>
       <r>   -56.5129     0.0000     8.0000 </r>
       <r>   -56.2699     0.0000     8.0000 </r>
       <r>   -56.0269     0.0000     8.0000 </r>
       <r>   -55.7839     0.0000     8.0000 </r>
       <r>   -55.5409     0.0000     8.0000 </r>
       <r>   -55.2979     0.0000     8.0000 </r>
       <r>   -55.0549     0.0000     8.0000 </r>
       <r>   -54.8119     0.0000     8.0000 </r>
       <r>   -54.5689     0.0000     8.0000 </r>
       <r>   -54.3259     0.0000     8.0000 </r>
       <r>   -54.0829     0.0000     8.0000 </r>
       <r>   -53.8399     0.0000     8.0000 </r>
       <r>   -53.5969     0.0000     8.0000 </r>
       <r>   -53.3539     0.0000     8.0000 </r>
       <r>   -53.1110     0.0000     8.0000 </r>
       <r>   -52.8680     0.0000     8.0000 </r>
       <r>   -52.6250     0.0000     8.0000 </r>
       <r>   -52.3820     0.0000     8.0000 </r>
       <r>   -52.1390     0.0000     8.0000 </r>
       <r>   -51.8960     0.0000     8.0000 </r>
       <r>   -51.6530     0.0000     8.0000 </r>
       <r>   -51.4100     0.0000     8.0000 </r>
       <r>   -51.1670     0.0000     8.0000 </r>
       <r>   -50.9240     0.0000     8.0000 </r>
       <r>   -50.6810     0.0000     8.0000 </r>
       <r>   -50.4380     0.0000     8.0000 </r>
       <r>   -50.1950     0.0000     8.0000 </r>
       <r>   -49.9520     0.0000     8.0000 </r>
       <r>   -49.7090     0.0000     8.0000 </r>
       <r>   -49.4660     0.0000     8.0000 </r>
       <r>   -49.2230     0.0000     8.0000 </r>
       <r>   -48.9800     0.0000     8.0000 </r>
       <r>   -48.7370     0.0000     8.0000 </r>
       <r>   -48.4940     0.0000     8.0000 </r>
       <r>   -48.2510     0.0000     8.0000 </r>
       <r>   -48.0080     0.0000     8.0000 </r>
       <r>   -47.7650     0.0000     8.0000 </r>
       <r>   -47.5220     0.0000     8.0000 </r>
       <r>   -47.2790     0.0000     8.0000 </r>
       <r>   -47.0361     0.0000     8.0000 </r>
       <r>   -46.7931     0.0000     8.0000 </r>
       <r>   -46.5501     0.0000     8.0000 </r>
       <r>   -46.3071     0.0000     8.0000 </r>
       <r>   -46.0641     0.0000     8.0000 </r>
       <r>   -45.8211     0.0000     8.0000 </r>
       <r>   -45.5781     0.0000     8.0000 </r>
       <r>   -45.3351     0.0000     8.0000 </r>
       <r>   -45.0921     0.0000     8.0000 </r>
       <r>   -44.8491     0.0000     8.0000 </r>
       <r>   -44.6061     0.0000     8.0000 </r>
       <r>   -44.3631     0.0000     8.0000 </r>
       <r>   -44.1201     0.0000     8.0000 </r>
       <r>   -43.8771     0.0000     8.0000 </r>
       <r>   -43.6341     0.0000     8.0000 </r>
       <r>   -43.3911     0.0000     8.0000 </r>
       <r>   -43.1481     0.0000     8.0000 </r>
       <r>   -42.9051     0.0000     8.0000 </r>
       <r>   -42.6621     0.0000     8.0000 </r>
       <r>   -42.4191     0.0000     8.0000 </r>
       <r>   -42.1761     0.0000     8.0000 </r>
       <r>   -41.9331     0.0000     8.0000 </r>
       <r>   -41.6901     0.0000     8.0000 </r>
       <r>   -41.4471     0.0000     8.0000 </r>
       <r>   -41.2042     0.0000     8.0000 </r>
       <r>   -40.9612     0.0000     8.0000 </r>
       <r>   -40.7182     0.0000     8.0000 </r>
       <r>   -40.4752     0.0000     8.0000 </r>
       <r>   -40.2322     0.0000     8.0000 </r>
       <r>   -39.9892     0.0000     8.0000 </r>
       <r>   -39.7462     0.0000     8.0000 </r>
       <r>   -39.5032     0.0000     8.0000 </r>
       <r>   -39.2602     0.0000     8.0000 </r>
       <r>   -39.0172     0.0000     8.0000 </r>
       <r>   -38.7742     0.0000     8.0000 </r>
       <r>   -38.5312     0.0000     8.0000 </r>
       <r>   -38.2882     0.0000     8.0000 </r>
       <r>   -38.0452     0.0000     8.0000 </r>
       <r>   -37.8022     0.0000     8.0000 </r>
       <r>   -37.5592     0.0000     8.0000 </r>
       <r>   -37.3162     0.0000     8.0000 </r>
       <r>   -37.0732     0.0000     8.0000 </r>
       <r>   -36.8302     0.0000     8.0000 </r>
       <r>   -36.5872     0.0000     8.0000 </r>
       <r>   -36.3442     0.0000     8.0000 </r>
       <r>   -36.1012     0.0000     8.0000 </r>
       <r>   -35.8582     0.0000     8.0000 </r>
       <r>   -35.6152     0.0000     8.0000 </r>
       <r>   -35.3723     0.0000     8.0000 </r>
       <r>   -35.1293     0.0000     8.0000 </r>
       <r>   -34.8863     0.0000     8.0000 </r>
       <r>   -34.6433     0.0000     8.0000 </r>
       <r>   -34.4003     0.0000     8.0000 </r>
       <r>   -34.1573     0.0000     8.0000 </r>
       <r>   -33.9143     0.0000     8.0000 </r>
       <r>   -33.6713     0.0000     8.0000 </r>
       <r>   -33.4283     0.0000     8.0000 </r>
       <r>   -33.1853     0.0000     8.0000 </r>
       <r>   -32.9423     0.0000     8.0000 </r>
       <r>   -32.6993     0.0000     8.0000 </r>
       <r>   -32.4563     0.0000     8.0000 </r>
       <r>   -32.2133     0.0000     8.0000 </r>
       <r>   -31.9703     0.0000     8.0000 </r>
       <r>   -31.7273     0.0000     8.0000 </r>
       <r>   -31.4843     0.0000     8.0000 </r>
       <r>   -31.2413     0.0000     8.0000 </r>
       <r>   -30.9983     7.1468     9.7366 </r>
       <r>   -30.7553    28.7186    22.9785 </r>
       <r>   -30.5123    32.9224    32.0000 </r>
       <r>   -30.2693     0.0000    32.0000 </r>
       <r>   -30.0263     0.0000    32.0000 </r>
       <r>   -29.7833     0.0000    32.0000 </r>
       <r>   -29.5404     0.0000    32.0000 </r>
       <r>   -29.2974     0.0000    32.0000 </r>
       <r>   -29.0544     0.0000    32.0000 </r>
       <r>   -28.8114     0.0000    32.0000 </r>
       <r>   -28.5684     0.0000    32.0000 </r>
       <r>   -28.3254     0.0000    32.0000 </r>
       <r>   -28.0824     0.0000    32.0000 </r>
       <r>   -27.8394     0.0000    32.0000 </r>
       <r>   -27.5964     0.0000    32.0000 </r>
       <r>   -27.3534     0.0000    32.0000 </r>
       <r>   -27.1104     0.0000    32.0000 </r>
       <r>   -26.8674     0.0000    32.0000 </r>
       <r>   -26.6244     0.0000    32.0000 </r>
       <r>   -26.3814     0.0000    32.0000 </r>
       <r>   -26.1384     0.0000    32.0000 </r>
       <r>   -25.8954     0.0000    32.0000 </r>
       <r>   -25.6524     0.0000    32.0000 </r>
       <r>   -25.4094     0.0000    32.0000 </r>
       <r>   -25.1664     0.0000    32.0000 </r>
       <r>   -24.9234     0.0000    32.0000 </r>
       <r>   -24.6804     0.0000    32.0000 </r>
       <r>   -24.4374     0.0000    32.0000 </r>
       <r>   -24.1944     0.0000    32.0000 </r>
       <r>   -23.9514     0.0000    32.0000 </r>
       <r>   -23.7085     0.0000    32.0000 </r>
       <r>   -23.4655     0.0000    32.0000 </r>
       <r>   -23.2225     0.0000    32.0000 </r>
       <r>   -22.9795     0.0000    32.0000 </r>
       <r>   -22.7365     0.0000    32.0000 </r>
       <r>   -22.4935     0.0000    32.0000 </r>
       <r>   -22.2505     0.0000    32.0000 </r>
       <r>   -22.0075     0.0000    32.0000 </r>
       <r>   -21.7645     0.0000    32.0000 </r>
       <r>   -21.5215     0.0000    32.0000 </r>
       <r>   -21.2785     0.0000    32.0000 </r>
       <r>   -21.0355     0.0000    32.0000 </r>
       <r>   -20.7925     0.0000    32.0000 </r>
       <r>   -20.5495     0.0000    32.0000 </r>
       <r>   -20.3065     0.0000    32.0000 </r>
       <r>   -20.0635     0.0000    32.0000 </r>
       <r>   -19.8205     0.0000    32.0000 </r>
       <r>   -19.5775     0.0000    32.0000 </r>
       <r>   -19.3345     0.0000    32.0000 </r>
       <r>   -19.0915     0.0000    32.0000 </r>
       <r>   -18.8485     0.0000    32.0000 </r>
       <r>   -18.6055     0.0000    32.0000 </r>
       <r>   -18.3625     0.0000    32.0000 </r>
       <r>   -18.1195     0.0000    32.0000 </r>
       <r>   -17.8766     0.0000    32.0000 </r>
       <r>   -17.6336     0.0000    32.0000 </r>
       <r>   -17.3906     0.0000    32.0000 </r>
       <r>   -17.1476     0.0000    32.0000 </r>
       <r>   -16.9046     0.0000    32.0000 </r>
       <r>   -16.6616     0.0000    32.0000 </r>
       <r>   -16.4186     0.0000    32.0000 </r>
       <r>   -16.1756     0.0000    32.0000 </r>
       <r>   -15.9326     0.0000    32.0000 </r>
       <r>   -15.6896     0.0000    32.0000 </r>
       <r>   -15.4466     0.0000    32.0000 </r>
       <r>   -15.2036     0.0000    32.0000 </r>
       <r>   -14.9606     0.0000    32.0000 </r>
       <r>   -14.7176     0.0000    32.0000 </r>
       <r>   -14.4746     0.0000    32.0000 </r>
       <r>   -14.2316     0.0000    32.0000 </r>
       <r>   -13.9886     0.0000    32.0000 </r>
       <r>   -13.7456     0.0000    32.0000 </r>
       <r>   -13.5026     0.0000    32.0000 </r>
       <r>   -13.2596     0.0000    32.0000 </r>
       <r>   -13.0166     0.0000    32.0000 </r>
       <r>   -12.7736     0.0000    32.0000 </r>
       <r>   -12.5306     0.0000    32.0000 </r>
       <r>   -12.2876     0.0000    32.0000 </r>
       <r>   -12.0447     0.0000    32.0000 </r>
       <r>   -11.8017     0.0000    32.0000 </r>
       <r>   -11.5587     0.0000    32.0000 </r>
       <r>   -11.3157     0.0000    32.0000 </r>
       <r>   -11.0727     0.0000    32.0000 </r>
       <r>   -10.8297     0.0000    32.0000 </r>
       <r>   -10.5867     0.0000    32.0000 </r>
       <r>   -10.3437     0.0000    32.0000 </r>
       <r>   -10.1007     0.0000    32.0000 </r>
       <r>    -9.8577     0.0000    32.0000 </r>
       <r>    -9.6147     0.0000    32.0000 </r>
       <r>    -9.3717     0.0000    32.0000 </r>
       <r>    -9.1287     0.0000    32.0000 </r>
       <r>    -8.8857     0.0000    32.0000 </r>
       <r>    -8.6427     0.0000    32.0000 </r>
       <r>    -8.3997     0.0000    32.0000 </r>
       <r>    -8.1567     0.0000    32.0000 </r>
       <r>    -7.9137     0.0000    32.0000 </r>
       <r>    -7.6707     0.0000    32.0000 </r>
       <r>    -7.4277     0.0000    32.0000 </r>
       <r>    -7.1847     0.0000    32.0000 </r>
       <r>    -6.9417     0.0000    32.0000 </r>
       <r>    -6.6987     0.0000    32.0000 </r>
       <r>    -6.4557     0.0000    32.0000 </r>
       <r>    -6.2128     0.0000    32.0000 </r>
       <r>    -5.9698     0.0000    32.0000 </r>
       <r>    -5.7268     0.0000    32.0000 </r>
       <r>    -5.4838     0.0000    32.0000 </r>
       <r>    -5.2408     0.0231    32.0056 </r>
       <r>    -4.9978     0.6029    32.2026 </r>
       <r>    -4.7548     1.0075    32.5560 </r>
       <r>    -4.5118     0.9188    32.9018 </r>
       <r>    -4.2688     1.1236    33.2679 </r>
       <r>    -4.0258     1.2251    33.6191 </r>
       <r>    -3.7828     1.0700    34.0814 </r>
       <r>    -3.5398     0.7787    34.4086 </r>
       <r>    -3.2968     1.8693    35.0257 </r>
       <r>    -3.0538     3.0833    36.1268 </r>
       <r>    -2.8108     4.2589    37.5451 </r>
       <r>    -2.5678     2.6527    38.7058 </r>
       <r>    -2.3248     1.1539    39.1273 </r>
       <r>    -2.0818     1.2268    39.5940 </r>
       <r>    -1.8388     0.5685    39.8728 </r>
       <r>    -1.5958     0.2540    39.9903 </r>
       <r>    -1.3528     0.1256    40.0305 </r>
       <r>    -1.1098     0.3508    40.1465 </r>
       <r>    -0.8668     6.1940    41.7398 </r>
       <r>    -0.6238     3.8187    43.4687 </r>
       <r>    -0.3809     1.0168    44.0379 </r>
       <r>    -0.1379     0.5442    44.2190 </r>
       <r>     0.1051     1.4743    44.6338 </r>
       <r>     0.3481     1.1738    45.0811 </r>
       <r>     0.5911     1.8473    45.8060 </r>
       <r>     0.8341     1.8901    46.4593 </r>
       <r>     1.0771     2.9548    47.4935 </r>
       <r>     1.3201     3.4206    48.6781 </r>
       <r>     1.5631     3.6513    49.9791 </r>
       <r>     1.8061     9.3608    53.1063 </r>
       <r>     2.0491     6.8889    55.5515 </r>
       <r>     2.2921     9.5637    58.7474 </r>
       <r>     2.5351     9.1359    62.4037 </r>
       <r>     2.7781     6.4795    65.0184 </r>
       <r>     3.0211     4.8961    66.8530 </r>
       <r>     3.2641     2.5744    68.1001 </r>
       <r>     3.5071     2.7144    69.0320 </r>
       <r>     3.7501     2.4951    70.0094 </r>
       <r>     3.9931     2.1497    70.7009 </r>
       <r>     4.2361     2.1996    71.6212 </r>
       <r>     4.4791     2.8349    72.5154 </r>
       <r>     4.7221     4.3043    73.9898 </r>
       <r>     4.9651     5.4324    75.8303 </r>
       <r>     5.2081     4.3856    77.5912 </r>
       <r>     5.4510     5.8313    79.5241 </r>
       <r>     5.6940     6.2164    81.7197 </r>
       <r>     5.9370     3.4255    83.5824 </r>
       <r>     6.1800     0.7269    84.0695 </r>
       <r>     6.4230     0.3310    84.1927 </r>
       <r>     6.6660     2.0145    84.7548 </r>
       <r>     6.9090     3.5041    85.9535 </r>
       <r>     7.1520     4.0768    87.5366 </r>
       <r>     7.3950     7.5630    90.1031 </r>
       <r>     7.6380     5.2949    92.5979 </r>
       <r>     7.8810     6.2269    94.6203 </r>
       <r>     8.1240     2.3113    95.5565 </r>
       <r>     8.3670     0.6664    95.7844 </r>
       <r>     8.6100     0.3007    95.9302 </r>
       <r>     8.8530     0.0280    95.9864 </r>
       <r>     9.0960     0.0210    96.0000 </r>
       <r>     9.3390     0.0000    96.0000 </r>
       <r>     9.5820     0.0000    96.0000 </r>
       <r>     9.8250     0.0000    96.0000 </r>
       <r>    10.0680     0.0000    96.0000 </r>
       <r>    10.3110     0.0000    96.0000 </r>
       <r>    10.5540     0.0000    96.0000 </r>
       <r>    10.7970     0.0000    96.0000 </r>
       <r>    11.0400     0.0000    96.0000 </r>
       <r>    11.2829     0.0000    96.0000 </r>
       <r>    11.5259     0.0000    96.0000 </r>
       <r>    11.7689     0.0000    96.0000 </r>
       <r>    12.0119     0.0000    96.0000 </r>
       <r>    12.2549     0.0000    96.0000 </r>
      </set>
     </set>
    </array>
   </total>
  </dos>
 </calculation>
 <structure name="finalpos" >
  <crystal>
   <varray name="basis" >
    <v>       5.71886089       0.00000000      -3.45051816 </v>
    <v>      -1.82285262       5.42056992      -3.45051816 </v>
    <v>       0.00000000       0.00000000       6.67918000 </v>
   </varray>
   <i name="volume">    207.05114242 </i>
   <varray name="rec_basis" >
    <v>       0.17486000       0.05880267       0.00000000 </v>
    <v>       0.00000000       0.18448245       0.00000000 </v>
    <v>       0.09033408       0.12568305       0.14971898 </v>
   </varray>
  </crystal>
  <varray name="positions" >
   <v>       0.25000000       0.25000000       0.00000000 </v>
   <v>       0.75000000       0.75000000       0.00000000 </v>
   <v>       0.00000000       0.00000000       0.00000000 </v>
   <v>       0.50000000       0.00000000       0.50000000 </v>
   <v>       0.00000000       0.50000000       0.50000000 </v>
   <v>       0.50000000       0.50000000       0.00000000 </v>
   <v>       0.75052000       0.25052000       0.00104000 </v>
   <v>       0.24948000       0.74948000       0.99896000 </v>
   <v>       0.25052000       0.24948000       0.50000000 </v>
   <v>       0.74948000       0.75052000       0.50000000 </v>
  </varray>
 </structure>
</modeling>
