<?xml version="1.0" encoding="ISO-8859-1"?>
<modeling>
 <generator>
  <i name="program" type="string">vasp </i>
  <i name="version" type="string">6.2.0  </i>
  <i name="subversion" type="string">18Jan21 (build Jan 05 2022 15:41:44) complex                          parallel </i>
  <i name="platform" type="string">LinuxIFC </i>
  <i name="date" type="string">2025 05 07 </i>
  <i name="time" type="string">16:29:22 </i>
 </generator>
 <incar>
  <i type="string" name="SYSTEM">routine with relax: pwdword</i>
  <i type="string" name="PREC">Acc</i>
  <i type="int" name="IALGO">    38</i>
  <i type="string" name="ALGO">A</i>
  <i type="logical" name="ADDGRID"> T  </i>
  <i type="int" name="ICHARG">     2</i>
  <i type="int" name="NELM">   100</i>
  <i type="int" name="NELMIN">     6</i>
  <i name="EDIFF">      0.00000000</i>
  <i type="int" name="NSW">     0</i>
  <i type="int" name="ISIF">    -1</i>
  <i name="ENCUT">    600.00000000</i>
  <i type="logical" name="LREAL"> F  </i>
  <i type="int" name="ISMEAR">     0</i>
  <i name="SIGMA">      0.02000000</i>
  <i type="logical" name="LASPH"> T  </i>
  <i type="string" name="METAGGA">R2SCAN</i>
  <i type="logical" name="LMIXTAU"> F  </i>
 </incar>
 <primitive_cell>
  <structure name="primitive_cell" >
   <crystal>
    <varray name="basis" >
     <v>       4.93102148       0.00000000      -2.98080697 </v>
     <v>      -1.56858085       4.67488256      -2.98080697 </v>
     <v>       0.00000000       0.00000000       5.76196000 </v>
    </varray>
    <i name="volume">    132.82439273 </i>
    <varray name="rec_basis" >
     <v>       0.20279774       0.06804548       0.00000000 </v>
     <v>       0.00000000       0.21390912       0.00000000 </v>
     <v>       0.10491238       0.14586221       0.17355206 </v>
    </varray>
   </crystal>
   <varray name="positions" >
    <v>       0.00000000       0.50000000       0.00000000 </v>
    <v>       0.50000000       0.50000000       0.50000000 </v>
    <v>       0.50000000       0.00000000       0.00000000 </v>
    <v>       0.00000000       0.00000000       0.50000000 </v>
    <v>       0.24129000       0.74129000       0.98257000 </v>
    <v>       0.25000000       0.75000000       0.50000000 </v>
    <v>       0.75871000       0.25871000       0.01743000 </v>
    <v>       0.75000000       0.25000000       0.50000000 </v>
    <v>       0.74129000       0.75871000       0.50000000 </v>
    <v>       0.25871000       0.24129000       0.50000000 </v>
    <v>       0.25000000       0.25000000       0.00000000 </v>
    <v>       0.75000000       0.75000000       0.00000000 </v>
   </varray>
  </structure>
  <varray name="primitive_index" >
   <v type="int" >        1 </v>
   <v type="int" >        2 </v>
   <v type="int" >        3 </v>
   <v type="int" >        4 </v>
   <v type="int" >        5 </v>
   <v type="int" >        6 </v>
   <v type="int" >        7 </v>
   <v type="int" >        8 </v>
   <v type="int" >        9 </v>
   <v type="int" >       10 </v>
   <v type="int" >       11 </v>
   <v type="int" >       12 </v>
  </varray>
 </primitive_cell>
 <kpoints>
  <generation param="Gamma">
   <v type="int" name="divisions">       8        8        9 </v>
   <v name="usershift">      0.00000000       0.00000000       0.00000000 </v>
   <v name="genvec1">      0.12500000       0.00000000       0.00000000 </v>
   <v name="genvec2">      0.00000000       0.12500000       0.00000000 </v>
   <v name="genvec3">      0.00000000       0.00000000       0.11111111 </v>
   <v name="shift">      0.00000000       0.00000000       0.00000000 </v>
  </generation>
  <varray name="kpointlist" >
   <v>       0.00000000       0.00000000       0.00000000 </v>
   <v>       0.12500000       0.00000000       0.00000000 </v>
   <v>       0.25000000       0.00000000       0.00000000 </v>
   <v>       0.37500000      -0.00000000       0.00000000 </v>
   <v>       0.50000000       0.00000000       0.00000000 </v>
   <v>       0.12500000       0.12500000       0.00000000 </v>
   <v>       0.25000000       0.12500000       0.00000000 </v>
   <v>       0.37500000       0.12500000       0.00000000 </v>
   <v>       0.50000000       0.12500000       0.00000000 </v>
   <v>      -0.37500000       0.12500000       0.00000000 </v>
   <v>      -0.25000000       0.12500000       0.00000000 </v>
   <v>      -0.12500000       0.12500000       0.00000000 </v>
   <v>       0.25000000       0.25000000       0.00000000 </v>
   <v>       0.37500000       0.25000000       0.00000000 </v>
   <v>       0.50000000       0.25000000       0.00000000 </v>
   <v>      -0.37500000       0.25000000       0.00000000 </v>
   <v>      -0.25000000       0.25000000       0.00000000 </v>
   <v>       0.37500000       0.37500000       0.00000000 </v>
   <v>       0.50000000       0.37500000       0.00000000 </v>
   <v>      -0.37500000       0.37500000       0.00000000 </v>
   <v>       0.50000000       0.50000000       0.00000000 </v>
   <v>       0.00000000       0.00000000       0.11111111 </v>
   <v>       0.12500000       0.00000000       0.11111111 </v>
   <v>       0.25000000       0.00000000       0.11111111 </v>
   <v>       0.37500000       0.00000000       0.11111111 </v>
   <v>       0.50000000       0.00000000       0.11111111 </v>
   <v>      -0.37500000       0.00000000       0.11111111 </v>
   <v>      -0.25000000       0.00000000       0.11111111 </v>
   <v>      -0.12500000       0.00000000       0.11111111 </v>
   <v>       0.12500000       0.12500000       0.11111111 </v>
   <v>       0.25000000       0.12500000       0.11111111 </v>
   <v>       0.37500000       0.12500000       0.11111111 </v>
   <v>       0.50000000       0.12500000       0.11111111 </v>
   <v>      -0.37500000       0.12500000       0.11111111 </v>
   <v>      -0.25000000       0.12500000       0.11111111 </v>
   <v>      -0.12500000       0.12500000       0.11111111 </v>
   <v>       0.25000000       0.25000000       0.11111111 </v>
   <v>       0.37500000       0.25000000       0.11111111 </v>
   <v>       0.50000000       0.25000000       0.11111111 </v>
   <v>      -0.37500000       0.25000000       0.11111111 </v>
   <v>      -0.25000000       0.25000000       0.11111111 </v>
   <v>      -0.12500000       0.25000000       0.11111111 </v>
   <v>       0.37500000       0.37500000       0.11111111 </v>
   <v>       0.50000000       0.37500000       0.11111111 </v>
   <v>      -0.37500000       0.37500000       0.11111111 </v>
   <v>      -0.25000000       0.37500000       0.11111111 </v>
   <v>      -0.12500000       0.37500000       0.11111111 </v>
   <v>       0.50000000       0.50000000       0.11111111 </v>
   <v>      -0.37500000       0.50000000       0.11111111 </v>
   <v>      -0.25000000       0.50000000       0.11111111 </v>
   <v>      -0.12500000       0.50000000       0.11111111 </v>
   <v>      -0.37500000      -0.37500000       0.11111111 </v>
   <v>      -0.25000000      -0.37500000       0.11111111 </v>
   <v>      -0.12500000      -0.37500000       0.11111111 </v>
   <v>      -0.25000000      -0.25000000       0.11111111 </v>
   <v>      -0.12500000      -0.25000000       0.11111111 </v>
   <v>      -0.12500000      -0.12500000       0.11111111 </v>
   <v>       0.00000000       0.00000000       0.22222222 </v>
   <v>       0.12500000       0.00000000       0.22222222 </v>
   <v>       0.25000000       0.00000000       0.22222222 </v>
   <v>       0.37500000       0.00000000       0.22222222 </v>
   <v>       0.50000000       0.00000000       0.22222222 </v>
   <v>      -0.37500000       0.00000000       0.22222222 </v>
   <v>      -0.25000000       0.00000000       0.22222222 </v>
   <v>      -0.12500000       0.00000000       0.22222222 </v>
   <v>       0.12500000       0.12500000       0.22222222 </v>
   <v>       0.25000000       0.12500000       0.22222222 </v>
   <v>       0.37500000       0.12500000       0.22222222 </v>
   <v>       0.50000000       0.12500000       0.22222222 </v>
   <v>      -0.37500000       0.12500000       0.22222222 </v>
   <v>      -0.25000000       0.12500000       0.22222222 </v>
   <v>      -0.12500000       0.12500000       0.22222222 </v>
   <v>       0.25000000       0.25000000       0.22222222 </v>
   <v>       0.37500000       0.25000000       0.22222222 </v>
   <v>       0.50000000       0.25000000       0.22222222 </v>
   <v>      -0.37500000       0.25000000       0.22222222 </v>
   <v>      -0.25000000       0.25000000       0.22222222 </v>
   <v>      -0.12500000       0.25000000       0.22222222 </v>
   <v>       0.37500000       0.37500000       0.22222222 </v>
   <v>       0.50000000       0.37500000       0.22222222 </v>
   <v>      -0.37500000       0.37500000       0.22222222 </v>
   <v>      -0.25000000       0.37500000       0.22222222 </v>
   <v>      -0.12500000       0.37500000       0.22222222 </v>
   <v>       0.50000000       0.50000000       0.22222222 </v>
   <v>      -0.37500000       0.50000000       0.22222222 </v>
   <v>      -0.25000000       0.50000000       0.22222222 </v>
   <v>      -0.12500000       0.50000000       0.22222222 </v>
   <v>      -0.37500000      -0.37500000       0.22222222 </v>
   <v>      -0.25000000      -0.37500000       0.22222222 </v>
   <v>      -0.12500000      -0.37500000       0.22222222 </v>
   <v>      -0.25000000      -0.25000000       0.22222222 </v>
   <v>      -0.12500000      -0.25000000       0.22222222 </v>
   <v>      -0.12500000      -0.12500000       0.22222222 </v>
   <v>       0.00000000       0.00000000       0.33333333 </v>
   <v>       0.12500000       0.00000000       0.33333333 </v>
   <v>       0.25000000       0.00000000       0.33333333 </v>
   <v>       0.37500000      -0.00000000       0.33333333 </v>
   <v>       0.50000000       0.00000000       0.33333333 </v>
   <v>      -0.37500000      -0.00000000       0.33333333 </v>
   <v>      -0.25000000      -0.00000000       0.33333333 </v>
   <v>      -0.12500000      -0.00000000       0.33333333 </v>
   <v>       0.12500000       0.12500000       0.33333333 </v>
   <v>       0.25000000       0.12500000       0.33333333 </v>
   <v>       0.37500000       0.12500000       0.33333333 </v>
   <v>       0.50000000       0.12500000       0.33333333 </v>
   <v>      -0.37500000       0.12500000       0.33333333 </v>
   <v>      -0.25000000       0.12500000       0.33333333 </v>
   <v>      -0.12500000       0.12500000       0.33333333 </v>
   <v>       0.25000000       0.25000000       0.33333333 </v>
   <v>       0.37500000       0.25000000       0.33333333 </v>
   <v>       0.50000000       0.25000000       0.33333333 </v>
   <v>      -0.37500000       0.25000000       0.33333333 </v>
   <v>      -0.25000000       0.25000000       0.33333333 </v>
   <v>      -0.12500000       0.25000000       0.33333333 </v>
   <v>       0.37500000       0.37500000       0.33333333 </v>
   <v>       0.50000000       0.37500000       0.33333333 </v>
   <v>      -0.37500000       0.37500000       0.33333333 </v>
   <v>      -0.25000000       0.37500000       0.33333333 </v>
   <v>      -0.12500000       0.37500000       0.33333333 </v>
   <v>       0.50000000       0.50000000       0.33333333 </v>
   <v>      -0.37500000       0.50000000       0.33333333 </v>
   <v>      -0.25000000       0.50000000       0.33333333 </v>
   <v>      -0.12500000       0.50000000       0.33333333 </v>
   <v>      -0.37500000      -0.37500000       0.33333333 </v>
   <v>      -0.25000000      -0.37500000       0.33333333 </v>
   <v>      -0.12500000      -0.37500000       0.33333333 </v>
   <v>      -0.25000000      -0.25000000       0.33333333 </v>
   <v>      -0.12500000      -0.25000000       0.33333333 </v>
   <v>      -0.12500000      -0.12500000       0.33333333 </v>
   <v>       0.00000000       0.00000000       0.44444444 </v>
   <v>       0.12500000       0.00000000       0.44444444 </v>
   <v>       0.25000000       0.00000000       0.44444444 </v>
   <v>       0.37500000       0.00000000       0.44444444 </v>
   <v>       0.50000000       0.00000000       0.44444444 </v>
   <v>      -0.37500000       0.00000000       0.44444444 </v>
   <v>      -0.25000000       0.00000000       0.44444444 </v>
   <v>      -0.12500000       0.00000000       0.44444444 </v>
   <v>       0.12500000       0.12500000       0.44444444 </v>
   <v>       0.25000000       0.12500000       0.44444444 </v>
   <v>       0.37500000       0.12500000       0.44444444 </v>
   <v>       0.50000000       0.12500000       0.44444444 </v>
   <v>      -0.37500000       0.12500000       0.44444444 </v>
   <v>      -0.25000000       0.12500000       0.44444444 </v>
   <v>      -0.12500000       0.12500000       0.44444444 </v>
   <v>       0.25000000       0.25000000       0.44444444 </v>
   <v>       0.37500000       0.25000000       0.44444444 </v>
   <v>       0.50000000       0.25000000       0.44444444 </v>
   <v>      -0.37500000       0.25000000       0.44444444 </v>
   <v>      -0.25000000       0.25000000       0.44444444 </v>
   <v>      -0.12500000       0.25000000       0.44444444 </v>
   <v>       0.37500000       0.37500000       0.44444444 </v>
   <v>       0.50000000       0.37500000       0.44444444 </v>
   <v>      -0.37500000       0.37500000       0.44444444 </v>
   <v>      -0.25000000       0.37500000       0.44444444 </v>
   <v>      -0.12500000       0.37500000       0.44444444 </v>
   <v>       0.50000000       0.50000000       0.44444444 </v>
   <v>      -0.37500000       0.50000000       0.44444444 </v>
   <v>      -0.25000000       0.50000000       0.44444444 </v>
   <v>      -0.12500000       0.50000000       0.44444444 </v>
   <v>      -0.37500000      -0.37500000       0.44444444 </v>
   <v>      -0.25000000      -0.37500000       0.44444444 </v>
   <v>      -0.12500000      -0.37500000       0.44444444 </v>
   <v>      -0.25000000      -0.25000000       0.44444444 </v>
   <v>      -0.12500000      -0.25000000       0.44444444 </v>
   <v>      -0.12500000      -0.12500000       0.44444444 </v>
  </varray>
  <varray name="weights" >
   <v>       0.00173611 </v>
   <v>       0.00694444 </v>
   <v>       0.00694444 </v>
   <v>       0.00694444 </v>
   <v>       0.00347222 </v>
   <v>       0.00347222 </v>
   <v>       0.00694444 </v>
   <v>       0.00694444 </v>
   <v>       0.00694444 </v>
   <v>       0.00694444 </v>
   <v>       0.00694444 </v>
   <v>       0.00347222 </v>
   <v>       0.00347222 </v>
   <v>       0.00694444 </v>
   <v>       0.00694444 </v>
   <v>       0.00694444 </v>
   <v>       0.00347222 </v>
   <v>       0.00347222 </v>
   <v>       0.00694444 </v>
   <v>       0.00347222 </v>
   <v>       0.00173611 </v>
   <v>       0.00347222 </v>
   <v>       0.00694444 </v>
   <v>       0.00694444 </v>
   <v>       0.00694444 </v>
   <v>       0.00694444 </v>
   <v>       0.00694444 </v>
   <v>       0.00694444 </v>
   <v>       0.00694444 </v>
   <v>       0.00347222 </v>
   <v>       0.00694444 </v>
   <v>       0.00694444 </v>
   <v>       0.00694444 </v>
   <v>       0.00694444 </v>
   <v>       0.00694444 </v>
   <v>       0.00694444 </v>
   <v>       0.00347222 </v>
   <v>       0.00694444 </v>
   <v>       0.00694444 </v>
   <v>       0.00694444 </v>
   <v>       0.00694444 </v>
   <v>       0.00694444 </v>
   <v>       0.00347222 </v>
   <v>       0.00694444 </v>
   <v>       0.00694444 </v>
   <v>       0.00694444 </v>
   <v>       0.00694444 </v>
   <v>       0.00347222 </v>
   <v>       0.00694444 </v>
   <v>       0.00694444 </v>
   <v>       0.00694444 </v>
   <v>       0.00347222 </v>
   <v>       0.00694444 </v>
   <v>       0.00694444 </v>
   <v>       0.00347222 </v>
   <v>       0.00694444 </v>
   <v>       0.00347222 </v>
   <v>       0.00347222 </v>
   <v>       0.00694444 </v>
   <v>       0.00694444 </v>
   <v>       0.00694444 </v>
   <v>       0.00694444 </v>
   <v>       0.00694444 </v>
   <v>       0.00694444 </v>
   <v>       0.00694444 </v>
   <v>       0.00347222 </v>
   <v>       0.00694444 </v>
   <v>       0.00694444 </v>
   <v>       0.00694444 </v>
   <v>       0.00694444 </v>
   <v>       0.00694444 </v>
   <v>       0.00694444 </v>
   <v>       0.00347222 </v>
   <v>       0.00694444 </v>
   <v>       0.00694444 </v>
   <v>       0.00694444 </v>
   <v>       0.00694444 </v>
   <v>       0.00694444 </v>
   <v>       0.00347222 </v>
   <v>       0.00694444 </v>
   <v>       0.00694444 </v>
   <v>       0.00694444 </v>
   <v>       0.00694444 </v>
   <v>       0.00347222 </v>
   <v>       0.00694444 </v>
   <v>       0.00694444 </v>
   <v>       0.00694444 </v>
   <v>       0.00347222 </v>
   <v>       0.00694444 </v>
   <v>       0.00694444 </v>
   <v>       0.00347222 </v>
   <v>       0.00694444 </v>
   <v>       0.00347222 </v>
   <v>       0.00347222 </v>
   <v>       0.00694444 </v>
   <v>       0.00694444 </v>
   <v>       0.00694444 </v>
   <v>       0.00694444 </v>
   <v>       0.00694444 </v>
   <v>       0.00694444 </v>
   <v>       0.00694444 </v>
   <v>       0.00347222 </v>
   <v>       0.00694444 </v>
   <v>       0.00694444 </v>
   <v>       0.00694444 </v>
   <v>       0.00694444 </v>
   <v>       0.00694444 </v>
   <v>       0.00694444 </v>
   <v>       0.00347222 </v>
   <v>       0.00694444 </v>
   <v>       0.00694444 </v>
   <v>       0.00694444 </v>
   <v>       0.00694444 </v>
   <v>       0.00694444 </v>
   <v>       0.00347222 </v>
   <v>       0.00694444 </v>
   <v>       0.00694444 </v>
   <v>       0.00694444 </v>
   <v>       0.00694444 </v>
   <v>       0.00347222 </v>
   <v>       0.00694444 </v>
   <v>       0.00694444 </v>
   <v>       0.00694444 </v>
   <v>       0.00347222 </v>
   <v>       0.00694444 </v>
   <v>       0.00694444 </v>
   <v>       0.00347222 </v>
   <v>       0.00694444 </v>
   <v>       0.00347222 </v>
   <v>       0.00347222 </v>
   <v>       0.00694444 </v>
   <v>       0.00694444 </v>
   <v>       0.00694444 </v>
   <v>       0.00694444 </v>
   <v>       0.00694444 </v>
   <v>       0.00694444 </v>
   <v>       0.00694444 </v>
   <v>       0.00347222 </v>
   <v>       0.00694444 </v>
   <v>       0.00694444 </v>
   <v>       0.00694444 </v>
   <v>       0.00694444 </v>
   <v>       0.00694444 </v>
   <v>       0.00694444 </v>
   <v>       0.00347222 </v>
   <v>       0.00694444 </v>
   <v>       0.00694444 </v>
   <v>       0.00694444 </v>
   <v>       0.00694444 </v>
   <v>       0.00694444 </v>
   <v>       0.00347222 </v>
   <v>       0.00694444 </v>
   <v>       0.00694444 </v>
   <v>       0.00694444 </v>
   <v>       0.00694444 </v>
   <v>       0.00347222 </v>
   <v>       0.00694444 </v>
   <v>       0.00694444 </v>
   <v>       0.00694444 </v>
   <v>       0.00347222 </v>
   <v>       0.00694444 </v>
   <v>       0.00694444 </v>
   <v>       0.00347222 </v>
   <v>       0.00694444 </v>
   <v>       0.00347222 </v>
  </varray>
 </kpoints>
 <parameters>
  <separator name="general" >
   <i type="string" name="SYSTEM">routine with relax: pwdword</i>
   <i type="logical" name="LCOMPAT"> F  </i>
  </separator>
  <separator name="electronic" >
   <i type="string" name="PREC">acc</i>
   <i name="ENMAX">    600.00000000</i>
   <i name="ENAUG">    535.51400000</i>
   <i name="EDIFF">      0.00000000</i>
   <i type="int" name="IALGO">    58</i>
   <i type="int" name="IWAVPR">    10</i>
   <i type="int" name="NBANDS">    66</i>
   <i type="int" name="NBANDSLOW">    -1</i>
   <i type="int" name="NBANDSHIGH">    -1</i>
   <i name="NELECT">    104.00000000</i>
   <i type="int" name="TURBO">     0</i>
   <i type="int" name="IRESTART">     0</i>
   <i type="int" name="NREBOOT">     0</i>
   <i type="int" name="NMIN">     0</i>
   <i name="EREF">      0.00000000</i>
   <separator name="electronic smearing" >
    <i type="int" name="ISMEAR">     0</i>
    <i name="SIGMA">      0.02000000</i>
    <i name="KSPACING">      0.50000000</i>
    <i type="logical" name="KGAMMA"> T  </i>
    <i type="logical" name="KBLOWUP"> F  </i>
   </separator>
   <separator name="electronic projectors" >
    <i type="logical" name="LREAL"> F  </i>
    <v name="ROPT">      0.00000000      0.00000000      0.00000000</v>
    <i type="int" name="LMAXPAW">  -100</i>
    <i type="int" name="LMAXMIX">     2</i>
    <i type="logical" name="NLSPLINE"> F  </i>
   </separator>
   <separator name="electronic startup" >
    <i type="int" name="ISTART">     0</i>
    <i type="int" name="ICHARG">     2</i>
    <i type="int" name="INIWAV">     1</i>
   </separator>
   <separator name="electronic spin" >
    <i type="int" name="ISPIN">     1</i>
    <i type="logical" name="LNONCOLLINEAR"> F  </i>
    <v name="MAGMOM">      1.00000000      1.00000000      1.00000000      1.00000000      1.00000000      1.00000000      1.00000000      1.00000000      1.00000000      1.00000000      1.00000000      1.00000000</v>
    <i name="NUPDOWN">     -1.00000000</i>
    <i type="logical" name="LSORBIT"> F  </i>
    <v name="SAXIS">      0.00000000      0.00000000      1.00000000</v>
    <i type="logical" name="LSPIRAL"> F  </i>
    <v name="QSPIRAL">      0.00000000      0.00000000      0.00000000</v>
    <i type="logical" name="LZEROZ"> F  </i>
   </separator>
   <separator name="electronic exchange-correlation" >
    <i type="logical" name="LASPH"> T  </i>
    <i type="logical" name="LMETAGGA"> F  </i>
   </separator>
   <separator name="electronic convergence" >
    <i type="int" name="NELM">   100</i>
    <i type="int" name="NELMDL">    -5</i>
    <i type="int" name="NELMIN">     6</i>
    <i name="ENINI">    600.00000000</i>
    <separator name="electronic convergence detail" >
     <i type="logical" name="LDIAG"> T  </i>
     <i type="logical" name="LSUBROT"> F  </i>
     <i name="WEIMIN">      0.00000000</i>
     <i name="EBREAK">      0.00000000</i>
     <i name="DEPER">      0.30000000</i>
     <i type="int" name="NRMM">     4</i>
     <i name="TIME">      0.40000000</i>
    </separator>
   </separator>
   <separator name="electronic mixer" >
    <i name="AMIX">      0.40000000</i>
    <i name="BMIX">      1.00000000</i>
    <i name="AMIN">      0.10000000</i>
    <i name="AMIX_MAG">      1.60000000</i>
    <i name="BMIX_MAG">      1.00000000</i>
    <separator name="electronic mixer details" >
     <i type="int" name="IMIX">     4</i>
     <i type="logical" name="MIXFIRST"> F  </i>
     <i type="int" name="MAXMIX">   -45</i>
     <i name="WC">    100.00000000</i>
     <i type="int" name="INIMIX">     1</i>
     <i type="int" name="MIXPRE">     1</i>
     <i type="int" name="MREMOVE">     5</i>
    </separator>
   </separator>
   <separator name="electronic dipolcorrection" >
    <i type="logical" name="LDIPOL"> F  </i>
    <i type="logical" name="LMONO"> F  </i>
    <i type="int" name="IDIPOL">     0</i>
    <i name="EPSILON">      1.00000000</i>
    <v name="DIPOL">   -100.00000000   -100.00000000   -100.00000000</v>
    <i name="EFIELD">      0.00000000</i>
   </separator>
  </separator>
  <separator name="grids" >
   <i type="int" name="NGX">    48</i>
   <i type="int" name="NGY">    48</i>
   <i type="int" name="NGZ">    48</i>
   <i type="int" name="NGXF">    96</i>
   <i type="int" name="NGYF">    96</i>
   <i type="int" name="NGZF">    96</i>
   <i type="logical" name="ADDGRID"> T  </i>
  </separator>
  <separator name="ionic" >
   <i type="int" name="NSW">     0</i>
   <i type="int" name="IBRION">    -1</i>
   <i type="int" name="MDALGO">     0</i>
   <i type="int" name="ISIF">    -1</i>
   <i name="PSTRESS">      0.00000000</i>
   <i name="EDIFFG">      0.00000001</i>
   <i type="int" name="NFREE">     0</i>
   <i name="POTIM">      0.50000000</i>
   <i name="SMASS">     -3.00000000</i>
   <i name="SCALEE">      1.00000000</i>
  </separator>
  <separator name="ionic md" >
   <i name="TEBEG">      0.00010000</i>
   <i name="TEEND">      0.00010000</i>
   <i type="int" name="NBLOCK">     1</i>
   <i type="int" name="KBLOCK">     1</i>
   <i type="int" name="NPACO">   256</i>
   <i name="APACO">     16.00000000</i>
  </separator>
  <separator name="symmetry" >
   <i type="int" name="ISYM">     2</i>
   <i name="SYMPREC">      0.00001000</i>
  </separator>
  <separator name="dos" >
   <i type="int" name="LORBIT">     0</i>
   <v name="RWIGS">     -1.00000000     -1.00000000     -1.00000000</v>
   <i type="int" name="NEDOS">   301</i>
   <i name="EMIN">     10.00000000</i>
   <i name="EMAX">    -10.00000000</i>
   <i name="EFERMI">      0.00000000</i>
  </separator>
  <separator name="writing" >
   <i type="int" name="NWRITE">     2</i>
   <i type="logical" name="LWAVE"> T  </i>
   <i type="logical" name="LDOWNSAMPLE"> F  </i>
   <i type="logical" name="LCHARG"> T  </i>
   <i type="logical" name="LPARD"> F  </i>
   <i type="logical" name="LVTOT"> F  </i>
   <i type="logical" name="LVHAR"> F  </i>
   <i type="logical" name="LELF"> F  </i>
   <i type="logical" name="LOPTICS"> F  </i>
   <v name="STM">      0.00000000      0.00000000      0.00000000      0.00000000      0.00000000      0.00000000      0.00000000</v>
  </separator>
  <separator name="performance" >
   <i type="int" name="NPAR">     6</i>
   <i type="int" name="NSIM">     4</i>
   <i type="int" name="NBLK">    -1</i>
   <i type="logical" name="LPLANE"> T  </i>
   <i type="logical" name="LSCALAPACK"> T  </i>
   <i type="logical" name="LSCAAWARE"> F  </i>
   <i type="logical" name="LSCALU"> F  </i>
   <i type="logical" name="LASYNC"> F  </i>
   <i type="logical" name="LORBITALREAL"> F  </i>
  </separator>
  <separator name="miscellaneous" >
   <i type="int" name="IDIOT">     3</i>
   <i type="int" name="PHON_NSTRUCT">    -1</i>
   <i type="logical" name="LMUSIC"> F  </i>
   <v name="POMASS">     10.81100000     95.94000000     28.08500000</v>
   <v name="DARWINR">      0.00000000      0.00000000      0.00000000</v>
   <v name="DARWINV">      1.00000000      1.00000000      1.00000000</v>
   <i type="logical" name="LCORR"> T  </i>
  </separator>
  <i type="logical" name="GGA_COMPAT"> T  </i>
  <i type="logical" name="LBERRY"> F  </i>
  <i type="int" name="ICORELEVEL">     0</i>
  <i type="logical" name="LDAU"> F  </i>
  <i type="int" name="I_CONSTRAINED_M">     0</i>
  <separator name="electronic exchange-correlation" >
   <i type="string" name="GGA">--</i>
   <i type="int" name="VOSKOWN">     0</i>
   <i type="logical" name="LHFCALC"> F  </i>
   <i type="string" name="PRECFOCK"></i>
   <i type="logical" name="LSYMGRAD"> F  </i>
   <i type="logical" name="LHFONE"> F  </i>
   <i type="logical" name="LRHFCALC"> F  </i>
   <i type="logical" name="LTHOMAS"> F  </i>
   <i type="logical" name="LMODELHF"> F  </i>
   <i type="logical" name="LFOCKACE"> F  </i>
   <i name="ENCUT4O">     -1.00000000</i>
   <i type="int" name="EXXOEP">     0</i>
   <i type="int" name="FOURORBIT">     0</i>
   <i name="AEXX">      0.00000000</i>
   <i name="HFALPHA">      0.00000000</i>
   <i name="MCALPHA">      0.00000000</i>
   <i name="ALDAX">      1.00000000</i>
   <i name="AGGAX">      1.00000000</i>
   <i name="ALDAC">      1.00000000</i>
   <i name="AGGAC">      1.00000000</i>
   <i type="int" name="NKREDX">     1</i>
   <i type="int" name="NKREDY">     1</i>
   <i type="int" name="NKREDZ">     1</i>
   <i type="logical" name="SHIFTRED"> F  </i>
   <i type="logical" name="ODDONLY"> F  </i>
   <i type="logical" name="EVENONLY"> F  </i>
   <i type="int" name="LMAXFOCK">     0</i>
   <i type="int" name="NMAXFOCKAE">     0</i>
   <i type="logical" name="LFOCKAEDFT"> F  </i>
   <i name="HFSCREEN">      0.00000000</i>
   <i name="HFSCREENC">      0.00000000</i>
   <i type="int" name="NBANDSGWLOW">     0</i>
  </separator>
  <separator name="vdW DFT" >
   <i type="logical" name="LUSE_VDW"> F  </i>
   <i name="Zab_VDW">     -0.84910000</i>
   <i name="PARAM1">      0.12340000</i>
   <i name="PARAM2">      1.00000000</i>
   <i name="PARAM3">      0.00000000</i>
  </separator>
  <separator name="model GW" >
   <i type="int" name="MODEL_GW">     0</i>
   <i name="MODEL_EPS0">      6.64121964</i>
   <i name="MODEL_ALPHA">      1.00000000</i>
  </separator>
  <separator name="linear response parameters" >
   <i type="logical" name="LEPSILON"> F  </i>
   <i type="logical" name="LRPA"> F  </i>
   <i type="logical" name="LNABLA"> F  </i>
   <i type="logical" name="LVEL"> F  </i>
   <i type="int" name="KINTER">     0</i>
   <i name="CSHIFT">      0.10000000</i>
   <i name="OMEGAMAX">     -1.00000000</i>
   <i name="DEG_THRESHOLD">      0.00200000</i>
   <i name="RTIME">     -0.10000000</i>
   <i name="WPLASMAI">      0.00000000</i>
   <v name="DFIELD">      0.00000000      0.00000000      0.00000000</v>
   <v name="WPLASMA">      0.00000000      0.00000000      0.00000000      0.00000000      0.00000000      0.00000000      0.00000000      0.00000000      0.00000000</v>
  </separator>
  <separator name="orbital magnetization" >
   <i type="logical" name="NUCIND"> F  </i>
   <v name="MAGPOS">      0.00000000      0.00000000      0.00000000</v>
   <i type="logical" name="LNICSALL"> T  </i>
   <i type="logical" name="ORBITALMAG"> F  </i>
   <i type="logical" name="LMAGBLOCH"> F  </i>
   <i type="logical" name="LCHIMAG"> F  </i>
   <i type="logical" name="LGAUGE"> T  </i>
   <i type="int" name="MAGATOM">     0</i>
   <v name="MAGDIPOL">      0.00000000      0.00000000      0.00000000</v>
   <v name="AVECCONST">      0.00000000      0.00000000      0.00000000</v>
  </separator>
  <separator name="response functions" >
   <i type="logical" name="LFINITE_TEMPERATURE"> F  </i>
   <i type="logical" name="LADDER"> F  </i>
   <i type="logical" name="LRPAFORCE"> F  </i>
   <i type="logical" name="LFXC"> F  </i>
   <i type="logical" name="LHARTREE"> T  </i>
   <i type="int" name="IBSE">     0</i>
   <v type="int" name="KPOINT">    -1     0     0     0</v>
   <i type="logical" name="LTCTC"> F  </i>
   <i type="logical" name="LTCTE"> F  </i>
   <i type="logical" name="LTETE"> F  </i>
   <i type="logical" name="LTRIPLET"> F  </i>
   <i type="logical" name="LFXCEPS"> F  </i>
   <i type="logical" name="LFXHEG"> F  </i>
   <i type="int" name="NATURALO">     2</i>
   <i type="logical" name="LHOLEGF"> F  </i>
   <i type="logical" name="L2ORDER"> F  </i>
   <i type="logical" name="LDMP1"> F  </i>
   <i type="logical" name="LMP2LT"> F  </i>
   <i type="logical" name="LSMP2LT"> F  </i>
   <i type="logical" name="LGWLF"> F  </i>
   <i name="ENCUTGW">     -2.00000000</i>
   <i name="ENCUTGWSOFT">     -2.00000000</i>
   <i name="ENCUTLF">     -1.00000000</i>
   <i type="logical" name="LESF_SPLINES"> F  </i>
   <i type="int" name="LMAXMP2">    -1</i>
   <i name="SCISSOR">      0.00000000</i>
   <i type="int" name="NOMEGA">     0</i>
   <i type="int" name="NOMEGAR">     0</i>
   <i type="int" name="NBANDSGW">    -1</i>
   <i type="int" name="NBANDSO">    -1</i>
   <i type="int" name="NBANDSV">    -1</i>
   <i type="int" name="NELM">   100</i>
   <i type="int" name="NELMHF">     1</i>
   <i type="int" name="DIM">     3</i>
   <i type="int" name="IESPILON">     4</i>
   <i type="int" name="ANTIRES">     0</i>
   <i name="OMEGAMAX">    -30.00000000</i>
   <i name="OMEGAMIN">    -30.00000000</i>
   <i name="OMEGATL">   -200.00000000</i>
   <i type="int" name="OMEGAGRID">     0</i>
   <i name="CSHIFT">     -0.10000000</i>
   <i type="logical" name="LSELFENERGY"> F  </i>
   <i type="logical" name="LSPECTRAL"> F  </i>
   <i type="logical" name="LSPECTRALGW"> F  </i>
   <i type="logical" name="LSINGLES"> F  </i>
   <i type="logical" name="LFERMIGW"> F  </i>
   <i type="logical" name="ODDONLYGW"> F  </i>
   <i type="logical" name="EVENONLYGW"> F  </i>
   <i type="int" name="NKREDLFX">     1</i>
   <i type="int" name="NKREDLFY">     1</i>
   <i type="int" name="NKREDLFZ">     1</i>
   <i type="int" name="MAXMEM">  2800</i>
   <i type="int" name="TELESCOPE">     0</i>
   <i type="int" name="NTAUPAR">    -1</i>
   <i type="int" name="NOMEGAPAR">    -1</i>
   <i name="DAMP_NEWTON">      0.80000001</i>
   <i name="LAMBDA">      1.00000000</i>
  </separator>
  <separator name="External order field" >
   <i name="OFIELD_KAPPA">      0.00000000</i>
   <v name="OFIELD_K">      0.00000000      0.00000000      0.00000000</v>
   <i name="OFIELD_Q6_NEAR">      0.00000000</i>
   <i name="OFIELD_Q6_FAR">      0.00000000</i>
   <i name="OFIELD_A">      0.00000000</i>
  </separator>
 </parameters>
 <atominfo>
  <atoms>      12 </atoms>
  <types>       3 </types>
  <array name="atoms" >
   <dimension dim="1">ion</dimension>
   <field type="string">element</field>
   <field type="int">atomtype</field>
   <set>
    <rc><c>B </c><c>   1</c></rc>
    <rc><c>B </c><c>   1</c></rc>
    <rc><c>B </c><c>   1</c></rc>
    <rc><c>B </c><c>   1</c></rc>
    <rc><c>Mo</c><c>   2</c></rc>
    <rc><c>Mo</c><c>   2</c></rc>
    <rc><c>Mo</c><c>   2</c></rc>
    <rc><c>Mo</c><c>   2</c></rc>
    <rc><c>Mo</c><c>   2</c></rc>
    <rc><c>Mo</c><c>   2</c></rc>
    <rc><c>Si</c><c>   3</c></rc>
    <rc><c>Si</c><c>   3</c></rc>
   </set>
  </array>
  <array name="atomtypes" >
   <dimension dim="1">type</dimension>
   <field type="int">atomspertype</field>
   <field type="string">element</field>
   <field>mass</field>
   <field>valence</field>
   <field type="string">pseudopotential</field>
   <set>
    <rc><c>   4</c><c>B </c><c>     10.81100000</c><c>      3.00000000</c><c>  PAW_PBE B 06Sep2000                   </c></rc>
    <rc><c>   6</c><c>Mo</c><c>     95.94000000</c><c>     14.00000000</c><c>  PAW_PBE Mo_sv 02Feb2006               </c></rc>
    <rc><c>   2</c><c>Si</c><c>     28.08500000</c><c>      4.00000000</c><c>  PAW_PBE Si 05Jan2001                  </c></rc>
   </set>
  </array>
 </atominfo>
 <structure name="initialpos" >
  <crystal>
   <varray name="basis" >
    <v>       4.93102148       0.00000000      -2.98080697 </v>
    <v>      -1.56858085       4.67488256      -2.98080697 </v>
    <v>       0.00000000       0.00000000       5.76196000 </v>
   </varray>
   <i name="volume">    132.82439273 </i>
   <varray name="rec_basis" >
    <v>       0.20279774       0.06804548       0.00000000 </v>
    <v>       0.00000000       0.21390912       0.00000000 </v>
    <v>       0.10491238       0.14586221       0.17355206 </v>
   </varray>
  </crystal>
  <varray name="positions" >
   <v>       0.00000000       0.50000000       0.00000000 </v>
   <v>       0.50000000       0.50000000       0.50000000 </v>
   <v>       0.50000000       0.00000000       0.00000000 </v>
   <v>       0.00000000       0.00000000       0.50000000 </v>
   <v>       0.24129000       0.74129000       0.98257000 </v>
   <v>       0.25000000       0.75000000       0.50000000 </v>
   <v>       0.75871000       0.25871000       0.01743000 </v>
   <v>       0.75000000       0.25000000       0.50000000 </v>
   <v>       0.74129000       0.75871000       0.50000000 </v>
   <v>       0.25871000       0.24129000       0.50000000 </v>
   <v>       0.25000000       0.25000000       0.00000000 </v>
   <v>       0.75000000       0.75000000       0.00000000 </v>
  </varray>
 </structure>
 <calculation>
  <scstep>
   <time name="total">   23.45   23.67</time>
   <energy>
    <i name="alphaZ">    703.40396958 </i>
    <i name="ewald"> -10064.42756255 </i>
    <i name="hartreedc">  -2166.11909865 </i>
    <i name="XCdc">    492.52419872 </i>
    <i name="pawpsdc">   9250.47132855 </i>
    <i name="pawaedc">  -9210.50234729 </i>
    <i name="eentropy">     -0.00083468 </i>
    <i name="bandstr">    457.13431304 </i>
    <i name="atom">  11664.50664672 </i>
    <i name="e_fr_energy">   1126.99061345 </i>
    <i name="e_wo_entrp">   1126.99144812 </i>
    <i name="e_0_energy">   1126.99103079 </i>
   </energy>
  </scstep>
  <scstep>
   <time name="total">   24.75   24.98</time>
   <energy>
    <i name="e_fr_energy">   -190.83476250 </i>
    <i name="e_wo_entrp">   -190.83410753 </i>
    <i name="e_0_energy">   -190.83443501 </i>
   </energy>
  </scstep>
  <scstep>
   <time name="total">   25.73   25.98</time>
   <energy>
    <i name="e_fr_energy">   -245.44783131 </i>
    <i name="e_wo_entrp">   -245.44668599 </i>
    <i name="e_0_energy">   -245.44725865 </i>
   </energy>
  </scstep>
  <scstep>
   <time name="total">   25.82   26.05</time>
   <energy>
    <i name="e_fr_energy">   -246.51302954 </i>
    <i name="e_wo_entrp">   -246.51225211 </i>
    <i name="e_0_energy">   -246.51264082 </i>
   </energy>
  </scstep>
  <scstep>
   <time name="total">   27.18   27.43</time>
   <energy>
    <i name="e_fr_energy">   -246.52762269 </i>
    <i name="e_wo_entrp">   -246.52684185 </i>
    <i name="e_0_energy">   -246.52723227 </i>
   </energy>
  </scstep>
  <scstep>
   <time name="total">   28.85   29.11</time>
   <energy>
    <i name="e_fr_energy">   -150.52509684 </i>
    <i name="e_wo_entrp">   -150.52435255 </i>
    <i name="e_0_energy">   -150.52472469 </i>
   </energy>
  </scstep>
  <scstep>
   <time name="total">   28.63   28.89</time>
   <energy>
    <i name="e_fr_energy">   -187.38536588 </i>
    <i name="e_wo_entrp">   -187.38436877 </i>
    <i name="e_0_energy">   -187.38486733 </i>
   </energy>
  </scstep>
  <scstep>
   <time name="total">   28.62   28.87</time>
   <energy>
    <i name="e_fr_energy">   -192.68041026 </i>
    <i name="e_wo_entrp">   -192.67921148 </i>
    <i name="e_0_energy">   -192.67981087 </i>
   </energy>
  </scstep>
  <scstep>
   <time name="total">   28.80   29.05</time>
   <energy>
    <i name="e_fr_energy">   -193.99035522 </i>
    <i name="e_wo_entrp">   -193.98905635 </i>
    <i name="e_0_energy">   -193.98970579 </i>
   </energy>
  </scstep>
  <scstep>
   <time name="total">   28.32   28.57</time>
   <energy>
    <i name="e_fr_energy">   -194.35925008 </i>
    <i name="e_wo_entrp">   -194.35791188 </i>
    <i name="e_0_energy">   -194.35858098 </i>
   </energy>
  </scstep>
  <scstep>
   <time name="total">   29.37   29.63</time>
   <energy>
    <i name="e_fr_energy">   -194.46788022 </i>
    <i name="e_wo_entrp">   -194.46671349 </i>
    <i name="e_0_energy">   -194.46729685 </i>
   </energy>
  </scstep>
  <scstep>
   <time name="total">   28.42   28.68</time>
   <energy>
    <i name="e_fr_energy">   -194.51635622 </i>
    <i name="e_wo_entrp">   -194.51524692 </i>
    <i name="e_0_energy">   -194.51580157 </i>
   </energy>
  </scstep>
  <scstep>
   <time name="total">   29.13   29.39</time>
   <energy>
    <i name="e_fr_energy">   -194.53142632 </i>
    <i name="e_wo_entrp">   -194.53034001 </i>
    <i name="e_0_energy">   -194.53088316 </i>
   </energy>
  </scstep>
  <scstep>
   <time name="total">   28.41   28.66</time>
   <energy>
    <i name="e_fr_energy">   -194.53813055 </i>
    <i name="e_wo_entrp">   -194.53705801 </i>
    <i name="e_0_energy">   -194.53759428 </i>
   </energy>
  </scstep>
  <scstep>
   <time name="total">   28.88   29.13</time>
   <energy>
    <i name="e_fr_energy">   -194.54038270 </i>
    <i name="e_wo_entrp">   -194.53931153 </i>
    <i name="e_0_energy">   -194.53984712 </i>
   </energy>
  </scstep>
  <scstep>
   <time name="total">   28.56   28.82</time>
   <energy>
    <i name="e_fr_energy">   -194.54150377 </i>
    <i name="e_wo_entrp">   -194.54042903 </i>
    <i name="e_0_energy">   -194.54096640 </i>
   </energy>
  </scstep>
  <scstep>
   <time name="total">   29.02   29.27</time>
   <energy>
    <i name="e_fr_energy">   -194.54193846 </i>
    <i name="e_wo_entrp">   -194.54086084 </i>
    <i name="e_0_energy">   -194.54139965 </i>
   </energy>
  </scstep>
  <scstep>
   <time name="total">   28.40   28.66</time>
   <energy>
    <i name="e_fr_energy">   -194.54213163 </i>
    <i name="e_wo_entrp">   -194.54105052 </i>
    <i name="e_0_energy">   -194.54159108 </i>
   </energy>
  </scstep>
  <scstep>
   <time name="total">   28.98   29.23</time>
   <energy>
    <i name="e_fr_energy">   -194.54222120 </i>
    <i name="e_wo_entrp">   -194.54113771 </i>
    <i name="e_0_energy">   -194.54167946 </i>
   </energy>
  </scstep>
  <scstep>
   <time name="total">   28.13   28.38</time>
   <energy>
    <i name="e_fr_energy">   -194.54225067 </i>
    <i name="e_wo_entrp">   -194.54116606 </i>
    <i name="e_0_energy">   -194.54170837 </i>
   </energy>
  </scstep>
  <scstep>
   <time name="total">   29.44   29.70</time>
   <energy>
    <i name="e_fr_energy">   -194.54226117 </i>
    <i name="e_wo_entrp">   -194.54117565 </i>
    <i name="e_0_energy">   -194.54171841 </i>
   </energy>
  </scstep>
  <scstep>
   <time name="total">   27.96   28.20</time>
   <energy>
    <i name="e_fr_energy">   -194.54226744 </i>
    <i name="e_wo_entrp">   -194.54118181 </i>
    <i name="e_0_energy">   -194.54172462 </i>
   </energy>
  </scstep>
  <scstep>
   <time name="total">   29.19   29.45</time>
   <energy>
    <i name="e_fr_energy">   -194.54227002 </i>
    <i name="e_wo_entrp">   -194.54118436 </i>
    <i name="e_0_energy">   -194.54172719 </i>
   </energy>
  </scstep>
  <scstep>
   <time name="total">   27.75   27.98</time>
   <energy>
    <i name="e_fr_energy">   -194.54227075 </i>
    <i name="e_wo_entrp">   -194.54118518 </i>
    <i name="e_0_energy">   -194.54172796 </i>
   </energy>
  </scstep>
  <scstep>
   <time name="total">   29.42   29.68</time>
   <energy>
    <i name="e_fr_energy">   -194.54227114 </i>
    <i name="e_wo_entrp">   -194.54118568 </i>
    <i name="e_0_energy">   -194.54172841 </i>
   </energy>
  </scstep>
  <scstep>
   <time name="total">   28.38   28.64</time>
   <energy>
    <i name="e_fr_energy">   -194.54227130 </i>
    <i name="e_wo_entrp">   -194.54118592 </i>
    <i name="e_0_energy">   -194.54172861 </i>
   </energy>
  </scstep>
  <scstep>
   <time name="total">   29.16   29.42</time>
   <energy>
    <i name="e_fr_energy">   -194.54227137 </i>
    <i name="e_wo_entrp">   -194.54118603 </i>
    <i name="e_0_energy">   -194.54172870 </i>
   </energy>
  </scstep>
  <scstep>
   <time name="total">   28.58   28.84</time>
   <energy>
    <i name="e_fr_energy">   -194.54227140 </i>
    <i name="e_wo_entrp">   -194.54118611 </i>
    <i name="e_0_energy">   -194.54172876 </i>
   </energy>
  </scstep>
  <scstep>
   <time name="total">   28.97   29.22</time>
   <energy>
    <i name="e_fr_energy">   -194.54227143 </i>
    <i name="e_wo_entrp">   -194.54118618 </i>
    <i name="e_0_energy">   -194.54172881 </i>
   </energy>
  </scstep>
  <scstep>
   <time name="total">   27.85   28.11</time>
   <energy>
    <i name="e_fr_energy">   -194.54227144 </i>
    <i name="e_wo_entrp">   -194.54118620 </i>
    <i name="e_0_energy">   -194.54172882 </i>
   </energy>
  </scstep>
  <scstep>
   <time name="total">   28.63   28.88</time>
   <energy>
    <i name="e_fr_energy">   -194.54227146 </i>
    <i name="e_wo_entrp">   -194.54118622 </i>
    <i name="e_0_energy">   -194.54172884 </i>
   </energy>
  </scstep>
  <scstep>
   <time name="total">   28.83   29.09</time>
   <energy>
    <i name="e_fr_energy">   -194.54227147 </i>
    <i name="e_wo_entrp">   -194.54118622 </i>
    <i name="e_0_energy">   -194.54172884 </i>
   </energy>
  </scstep>
  <scstep>
   <time name="total">   28.97   29.22</time>
   <energy>
    <i name="e_fr_energy">   -194.54227146 </i>
    <i name="e_wo_entrp">   -194.54118622 </i>
    <i name="e_0_energy">   -194.54172884 </i>
   </energy>
  </scstep>
  <scstep>
   <time name="total">   33.03   33.32</time>
   <energy>
    <i name="alphaZ">    703.40396958 </i>
    <i name="ewald"> -10064.42756255 </i>
    <i name="hartreedc">  -2021.82035932 </i>
    <i name="XCdc">    502.98529960 </i>
    <i name="pawpsdc">  14750.28928157 </i>
    <i name="pawaedc"> -14732.86434525 </i>
    <i name="eentropy">     -0.00108524 </i>
    <i name="bandstr">   -996.61411657 </i>
    <i name="atom">  11664.50664672 </i>
    <i name="e_fr_energy">   -194.54227146 </i>
    <i name="e_wo_entrp">   -194.54118622 </i>
    <i name="e_0_energy">   -194.54172884 </i>
   </energy>
  </scstep>
  <structure>
   <crystal>
    <varray name="basis" >
     <v>       4.93102148       0.00000000      -2.98080697 </v>
     <v>      -1.56858085       4.67488256      -2.98080697 </v>
     <v>       0.00000000       0.00000000       5.76196000 </v>
    </varray>
    <i name="volume">    132.82439273 </i>
    <varray name="rec_basis" >
     <v>       0.20279774       0.06804548       0.00000000 </v>
     <v>       0.00000000       0.21390912       0.00000000 </v>
     <v>       0.10491238       0.14586221       0.17355206 </v>
    </varray>
   </crystal>
   <varray name="positions" >
    <v>       0.00000000       0.50000000       0.00000000 </v>
    <v>       0.50000000       0.50000000       0.50000000 </v>
    <v>       0.50000000       0.00000000       0.00000000 </v>
    <v>       0.00000000       0.00000000       0.50000000 </v>
    <v>       0.24129000       0.74129000       0.98257000 </v>
    <v>       0.25000000       0.75000000       0.50000000 </v>
    <v>       0.75871000       0.25871000       0.01743000 </v>
    <v>       0.75000000       0.25000000       0.50000000 </v>
    <v>       0.74129000       0.75871000       0.50000000 </v>
    <v>       0.25871000       0.24129000       0.50000000 </v>
    <v>       0.25000000       0.25000000       0.00000000 </v>
    <v>       0.75000000       0.75000000       0.00000000 </v>
   </varray>
  </structure>
  <varray name="forces" >
   <v>       0.00000000       0.00000000       0.00000000 </v>
   <v>       0.00000000       0.00000000       0.00000000 </v>
   <v>       0.00000000       0.00000000       0.00000000 </v>
   <v>       0.00000000       0.00000000       0.00000000 </v>
   <v>       0.00000000       0.00000000       0.00000000 </v>
   <v>       0.00000000       0.00000000       0.00000000 </v>
   <v>       0.00000000       0.00000000       0.00000000 </v>
   <v>       0.00000000       0.00000000       0.00000000 </v>
   <v>       0.00000000       0.00000000       0.00000000 </v>
   <v>       0.00000000       0.00000000       0.00000000 </v>
   <v>       0.00000000       0.00000000       0.00000000 </v>
   <v>       0.00000000       0.00000000       0.00000000 </v>
  </varray>
  <varray name="stress" >
   <v>       0.00000000       0.00000000       0.00000000 </v>
   <v>       0.00000000       0.00000000       0.00000000 </v>
   <v>       0.00000000       0.00000000       0.00000000 </v>
  </varray>
  <energy>
   <i name="e_fr_energy">   -194.54227146 </i>
   <i name="e_wo_entrp">   -194.54118622 </i>
   <i name="e_0_energy">   -194.54172884 </i>
  </energy>
  <time name="totalsc">  967.34  975.96</time>
  <eigenvalues>
   <array>
    <dimension dim="1">band</dimension>
    <dimension dim="2">kpoint</dimension>
    <dimension dim="3">spin</dimension>
    <field>eigene</field>
    <field>occ</field>
    <set>
     <set comment="spin 1">
      <set comment="kpoint 1">
       <r>  -50.1418    1.0000 </r>
       <r>  -50.0134    1.0000 </r>
       <r>  -50.0132    1.0000 </r>
       <r>  -49.9318    1.0000 </r>
       <r>  -49.9000    1.0000 </r>
       <r>  -49.8538    1.0000 </r>
       <r>  -24.1017    1.0000 </r>
       <r>  -24.1007    1.0000 </r>
       <r>  -24.0501    1.0000 </r>
       <r>  -23.9979    1.0000 </r>
       <r>  -23.9976    1.0000 </r>
       <r>  -23.9447    1.0000 </r>
       <r>  -23.8994    1.0000 </r>
       <r>  -23.5199    1.0000 </r>
       <r>  -23.5176    1.0000 </r>
       <r>  -23.5169    1.0000 </r>
       <r>  -23.2135    1.0000 </r>
       <r>  -23.2123    1.0000 </r>
       <r>  -23.0768    1.0000 </r>
       <r>  -23.0330    1.0000 </r>
       <r>  -23.0327    1.0000 </r>
       <r>  -22.9689    1.0000 </r>
       <r>  -22.8359    1.0000 </r>
       <r>  -22.8228    1.0000 </r>
       <r>   -1.5591    1.0000 </r>
       <r>    0.4264    1.0000 </r>
       <r>    3.0821    1.0000 </r>
       <r>    4.5949    1.0000 </r>
       <r>    4.5959    1.0000 </r>
       <r>    5.7691    1.0000 </r>
       <r>    6.1558    1.0000 </r>
       <r>    6.1572    1.0000 </r>
       <r>    6.8422    1.0000 </r>
       <r>    6.8479    1.0000 </r>
       <r>    6.8482    1.0000 </r>
       <r>    7.0885    1.0000 </r>
       <r>    7.3540    1.0000 </r>
       <r>    8.3102    1.0000 </r>
       <r>    8.3108    1.0000 </r>
       <r>    8.4702    1.0000 </r>
       <r>    8.9436    1.0000 </r>
       <r>    9.2358    1.0000 </r>
       <r>    9.6250    1.0000 </r>
       <r>    9.6259    1.0000 </r>
       <r>   10.4287    1.0000 </r>
       <r>   11.3638    1.0000 </r>
       <r>   11.9692    1.0000 </r>
       <r>   12.5625    1.0000 </r>
       <r>   12.5626    1.0000 </r>
       <r>   12.6404    1.0000 </r>
       <r>   12.6407    1.0000 </r>
       <r>   12.6786    1.0000 </r>
       <r>   13.6145    0.0000 </r>
       <r>   14.0407    0.0000 </r>
       <r>   14.5084    0.0000 </r>
       <r>   14.5467    0.0000 </r>
       <r>   14.6879    0.0000 </r>
       <r>   14.9820    0.0000 </r>
       <r>   14.9872    0.0000 </r>
       <r>   14.9884    0.0000 </r>
       <r>   15.4204    0.0000 </r>
       <r>   15.6086    0.0000 </r>
       <r>   16.0216    0.0000 </r>
       <r>   16.0220    0.0000 </r>
       <r>   16.8119    0.0000 </r>
       <r>   17.8072    0.0000 </r>
      </set>
      <set comment="kpoint 2">
       <r>  -50.1363    1.0000 </r>
       <r>  -50.0167    1.0000 </r>
       <r>  -50.0103    1.0000 </r>
       <r>  -49.9353    1.0000 </r>
       <r>  -49.8994    1.0000 </r>
       <r>  -49.8561    1.0000 </r>
       <r>  -24.0899    1.0000 </r>
       <r>  -24.0844    1.0000 </r>
       <r>  -24.0220    1.0000 </r>
       <r>  -23.9932    1.0000 </r>
       <r>  -23.9751    1.0000 </r>
       <r>  -23.9253    1.0000 </r>
       <r>  -23.8829    1.0000 </r>
       <r>  -23.5296    1.0000 </r>
       <r>  -23.5290    1.0000 </r>
       <r>  -23.5050    1.0000 </r>
       <r>  -23.2326    1.0000 </r>
       <r>  -23.2283    1.0000 </r>
       <r>  -23.0943    1.0000 </r>
       <r>  -23.0650    1.0000 </r>
       <r>  -23.0343    1.0000 </r>
       <r>  -22.9838    1.0000 </r>
       <r>  -22.8482    1.0000 </r>
       <r>  -22.8344    1.0000 </r>
       <r>   -1.4436    1.0000 </r>
       <r>    0.4771    1.0000 </r>
       <r>    3.0932    1.0000 </r>
       <r>    4.1368    1.0000 </r>
       <r>    4.4032    1.0000 </r>
       <r>    6.0908    1.0000 </r>
       <r>    6.2202    1.0000 </r>
       <r>    6.3920    1.0000 </r>
       <r>    6.4170    1.0000 </r>
       <r>    6.8685    1.0000 </r>
       <r>    6.9580    1.0000 </r>
       <r>    7.1970    1.0000 </r>
       <r>    7.6028    1.0000 </r>
       <r>    8.2308    1.0000 </r>
       <r>    8.4716    1.0000 </r>
       <r>    8.7074    1.0000 </r>
       <r>    9.0371    1.0000 </r>
       <r>    9.1197    1.0000 </r>
       <r>    9.6357    1.0000 </r>
       <r>    9.7525    1.0000 </r>
       <r>   10.4825    1.0000 </r>
       <r>   11.2744    1.0000 </r>
       <r>   12.0038    1.0000 </r>
       <r>   12.3684    1.0000 </r>
       <r>   12.5218    1.0000 </r>
       <r>   12.6589    1.0000 </r>
       <r>   12.6721    1.0000 </r>
       <r>   12.7730    0.9863 </r>
       <r>   13.3085    0.0000 </r>
       <r>   13.4389    0.0000 </r>
       <r>   13.7914    0.0000 </r>
       <r>   14.5788    0.0000 </r>
       <r>   14.7189    0.0000 </r>
       <r>   14.9846    0.0000 </r>
       <r>   15.1290    0.0000 </r>
       <r>   15.2176    0.0000 </r>
       <r>   15.2893    0.0000 </r>
       <r>   15.8815    0.0000 </r>
       <r>   15.9050    0.0000 </r>
       <r>   15.9556    0.0000 </r>
       <r>   16.7158    0.0000 </r>
       <r>   17.5455    0.0000 </r>
      </set>
      <set comment="kpoint 3">
       <r>  -50.1208    1.0000 </r>
       <r>  -50.0276    1.0000 </r>
       <r>  -50.0017    1.0000 </r>
       <r>  -49.9448    1.0000 </r>
       <r>  -49.8971    1.0000 </r>
       <r>  -49.8628    1.0000 </r>
       <r>  -24.0691    1.0000 </r>
       <r>  -24.0387    1.0000 </r>
       <r>  -23.9944    1.0000 </r>
       <r>  -23.9408    1.0000 </r>
       <r>  -23.9197    1.0000 </r>
       <r>  -23.8577    1.0000 </r>
       <r>  -23.8256    1.0000 </r>
       <r>  -23.5616    1.0000 </r>
       <r>  -23.5510    1.0000 </r>
       <r>  -23.4680    1.0000 </r>
       <r>  -23.2931    1.0000 </r>
       <r>  -23.2755    1.0000 </r>
       <r>  -23.1708    1.0000 </r>
       <r>  -23.1497    1.0000 </r>
       <r>  -23.0372    1.0000 </r>
       <r>  -23.0091    1.0000 </r>
       <r>  -22.8715    1.0000 </r>
       <r>  -22.8603    1.0000 </r>
       <r>   -1.1109    1.0000 </r>
       <r>    0.5543    1.0000 </r>
       <r>    3.1357    1.0000 </r>
       <r>    3.5080    1.0000 </r>
       <r>    4.0339    1.0000 </r>
       <r>    5.2977    1.0000 </r>
       <r>    6.3454    1.0000 </r>
       <r>    6.9515    1.0000 </r>
       <r>    6.9769    1.0000 </r>
       <r>    7.0877    1.0000 </r>
       <r>    7.1229    1.0000 </r>
       <r>    7.4338    1.0000 </r>
       <r>    7.7653    1.0000 </r>
       <r>    8.2652    1.0000 </r>
       <r>    8.8262    1.0000 </r>
       <r>    8.9659    1.0000 </r>
       <r>    9.0932    1.0000 </r>
       <r>    9.3017    1.0000 </r>
       <r>    9.5435    1.0000 </r>
       <r>   10.0903    1.0000 </r>
       <r>   10.6278    1.0000 </r>
       <r>   11.1546    1.0000 </r>
       <r>   11.8054    1.0000 </r>
       <r>   11.8427    1.0000 </r>
       <r>   11.9737    1.0000 </r>
       <r>   12.2684    1.0000 </r>
       <r>   12.5518    1.0000 </r>
       <r>   12.9152    0.0000 </r>
       <r>   12.9297    0.0000 </r>
       <r>   13.2756    0.0000 </r>
       <r>   13.5887    0.0000 </r>
       <r>   14.3182    0.0000 </r>
       <r>   14.5782    0.0000 </r>
       <r>   14.7459    0.0000 </r>
       <r>   14.8319    0.0000 </r>
       <r>   14.8369    0.0000 </r>
       <r>   15.3163    0.0000 </r>
       <r>   15.7099    0.0000 </r>
       <r>   15.7100    0.0000 </r>
       <r>   15.9399    0.0000 </r>
       <r>   16.7564    0.0000 </r>
       <r>   17.0232    0.0000 </r>
      </set>
      <set comment="kpoint 4">
       <r>  -50.0979    1.0000 </r>
       <r>  -50.0467    1.0000 </r>
       <r>  -49.9889    1.0000 </r>
       <r>  -49.9583    1.0000 </r>
       <r>  -49.8916    1.0000 </r>
       <r>  -49.8724    1.0000 </r>
       <r>  -24.0477    1.0000 </r>
       <r>  -24.0128    1.0000 </r>
       <r>  -23.9655    1.0000 </r>
       <r>  -23.8790    1.0000 </r>
       <r>  -23.8453    1.0000 </r>
       <r>  -23.7719    1.0000 </r>
       <r>  -23.7031    1.0000 </r>
       <r>  -23.5928    1.0000 </r>
       <r>  -23.5471    1.0000 </r>
       <r>  -23.4243    1.0000 </r>
       <r>  -23.3775    1.0000 </r>
       <r>  -23.3587    1.0000 </r>
       <r>  -23.3276    1.0000 </r>
       <r>  -23.2414    1.0000 </r>
       <r>  -23.0382    1.0000 </r>
       <r>  -23.0258    1.0000 </r>
       <r>  -22.8884    1.0000 </r>
       <r>  -22.8831    1.0000 </r>
       <r>   -0.6070    1.0000 </r>
       <r>    0.4262    1.0000 </r>
       <r>    3.2214    1.0000 </r>
       <r>    3.2863    1.0000 </r>
       <r>    3.6827    1.0000 </r>
       <r>    4.3738    1.0000 </r>
       <r>    6.5794    1.0000 </r>
       <r>    6.9817    1.0000 </r>
       <r>    7.1488    1.0000 </r>
       <r>    7.4842    1.0000 </r>
       <r>    7.7540    1.0000 </r>
       <r>    7.8690    1.0000 </r>
       <r>    8.1609    1.0000 </r>
       <r>    8.5206    1.0000 </r>
       <r>    8.8780    1.0000 </r>
       <r>    9.0127    1.0000 </r>
       <r>    9.0957    1.0000 </r>
       <r>    9.2990    1.0000 </r>
       <r>    9.7856    1.0000 </r>
       <r>   10.4457    1.0000 </r>
       <r>   10.6443    1.0000 </r>
       <r>   10.9812    1.0000 </r>
       <r>   11.3186    1.0000 </r>
       <r>   11.3885    1.0000 </r>
       <r>   11.4951    1.0000 </r>
       <r>   12.0275    1.0000 </r>
       <r>   12.0342    1.0000 </r>
       <r>   12.6940    1.0000 </r>
       <r>   13.2913    0.0000 </r>
       <r>   13.3368    0.0000 </r>
       <r>   13.5337    0.0000 </r>
       <r>   14.0192    0.0000 </r>
       <r>   14.0925    0.0000 </r>
       <r>   14.3520    0.0000 </r>
       <r>   14.3698    0.0000 </r>
       <r>   14.6156    0.0000 </r>
       <r>   14.8292    0.0000 </r>
       <r>   15.9128    0.0000 </r>
       <r>   16.0194    0.0000 </r>
       <r>   16.0984    0.0000 </r>
       <r>   16.2102    0.0000 </r>
       <r>   16.3328    0.0000 </r>
      </set>
      <set comment="kpoint 5">
       <r>  -50.0716    1.0000 </r>
       <r>  -50.0716    1.0000 </r>
       <r>  -49.9736    1.0000 </r>
       <r>  -49.9736    1.0000 </r>
       <r>  -49.8827    1.0000 </r>
       <r>  -49.8827    1.0000 </r>
       <r>  -24.0282    1.0000 </r>
       <r>  -24.0281    1.0000 </r>
       <r>  -23.9022    1.0000 </r>
       <r>  -23.9022    1.0000 </r>
       <r>  -23.7716    1.0000 </r>
       <r>  -23.7716    1.0000 </r>
       <r>  -23.5498    1.0000 </r>
       <r>  -23.5492    1.0000 </r>
       <r>  -23.5177    1.0000 </r>
       <r>  -23.5174    1.0000 </r>
       <r>  -23.4481    1.0000 </r>
       <r>  -23.4474    1.0000 </r>
       <r>  -23.3283    1.0000 </r>
       <r>  -23.3280    1.0000 </r>
       <r>  -23.0348    1.0000 </r>
       <r>  -23.0347    1.0000 </r>
       <r>  -22.8929    1.0000 </r>
       <r>  -22.8928    1.0000 </r>
       <r>   -0.0295    1.0000 </r>
       <r>   -0.0294    1.0000 </r>
       <r>    3.4093    1.0000 </r>
       <r>    3.4095    1.0000 </r>
       <r>    3.6285    1.0000 </r>
       <r>    3.6288    1.0000 </r>
       <r>    6.7860    1.0000 </r>
       <r>    6.7861    1.0000 </r>
       <r>    7.3765    1.0000 </r>
       <r>    7.3767    1.0000 </r>
       <r>    8.4428    1.0000 </r>
       <r>    8.4430    1.0000 </r>
       <r>    8.5025    1.0000 </r>
       <r>    8.5027    1.0000 </r>
       <r>    8.7796    1.0000 </r>
       <r>    8.7800    1.0000 </r>
       <r>    8.9808    1.0000 </r>
       <r>    8.9813    1.0000 </r>
       <r>   10.2575    1.0000 </r>
       <r>   10.2579    1.0000 </r>
       <r>   10.6460    1.0000 </r>
       <r>   10.6461    1.0000 </r>
       <r>   11.2269    1.0000 </r>
       <r>   11.2271    1.0000 </r>
       <r>   11.9198    1.0000 </r>
       <r>   11.9202    1.0000 </r>
       <r>   12.0612    1.0000 </r>
       <r>   12.0613    1.0000 </r>
       <r>   13.2632    0.0000 </r>
       <r>   13.2634    0.0000 </r>
       <r>   13.7320    0.0000 </r>
       <r>   13.7322    0.0000 </r>
       <r>   13.8977    0.0000 </r>
       <r>   13.8977    0.0000 </r>
       <r>   14.4653    0.0000 </r>
       <r>   14.4654    0.0000 </r>
       <r>   15.2180    0.0000 </r>
       <r>   15.2181    0.0000 </r>
       <r>   16.1705    0.0000 </r>
       <r>   16.1707    0.0000 </r>
       <r>   16.5109    0.0000 </r>
       <r>   16.5124    0.0000 </r>
      </set>
      <set comment="kpoint 6">
       <r>  -50.1284    1.0000 </r>
       <r>  -50.0146    1.0000 </r>
       <r>  -50.0136    1.0000 </r>
       <r>  -49.9395    1.0000 </r>
       <r>  -49.8977    1.0000 </r>
       <r>  -49.8610    1.0000 </r>
       <r>  -24.0722    1.0000 </r>
       <r>  -24.0563    1.0000 </r>
       <r>  -23.9758    1.0000 </r>
       <r>  -23.9683    1.0000 </r>
       <r>  -23.9623    1.0000 </r>
       <r>  -23.8805    1.0000 </r>
       <r>  -23.8683    1.0000 </r>
       <r>  -23.5591    1.0000 </r>
       <r>  -23.5274    1.0000 </r>
       <r>  -23.4990    1.0000 </r>
       <r>  -23.2829    1.0000 </r>
       <r>  -23.2480    1.0000 </r>
       <r>  -23.1085    1.0000 </r>
       <r>  -23.0853    1.0000 </r>
       <r>  -23.0612    1.0000 </r>
       <r>  -23.0032    1.0000 </r>
       <r>  -22.8652    1.0000 </r>
       <r>  -22.8560    1.0000 </r>
       <r>   -1.2633    1.0000 </r>
       <r>    0.5529    1.0000 </r>
       <r>    3.1574    1.0000 </r>
       <r>    3.6160    1.0000 </r>
       <r>    4.1829    1.0000 </r>
       <r>    6.1505    1.0000 </r>
       <r>    6.3075    1.0000 </r>
       <r>    6.3294    1.0000 </r>
       <r>    6.6489    1.0000 </r>
       <r>    6.9437    1.0000 </r>
       <r>    6.9973    1.0000 </r>
       <r>    7.4414    1.0000 </r>
       <r>    7.6724    1.0000 </r>
       <r>    8.4352    1.0000 </r>
       <r>    8.6215    1.0000 </r>
       <r>    8.9679    1.0000 </r>
       <r>    8.9899    1.0000 </r>
       <r>    9.0605    1.0000 </r>
       <r>    9.7023    1.0000 </r>
       <r>    9.7676    1.0000 </r>
       <r>   10.4879    1.0000 </r>
       <r>   11.2597    1.0000 </r>
       <r>   11.9798    1.0000 </r>
       <r>   12.1542    1.0000 </r>
       <r>   12.3399    1.0000 </r>
       <r>   12.3817    1.0000 </r>
       <r>   12.6259    1.0000 </r>
       <r>   12.7319    1.0000 </r>
       <r>   13.0949    0.0000 </r>
       <r>   13.1218    0.0000 </r>
       <r>   13.5434    0.0000 </r>
       <r>   14.5648    0.0000 </r>
       <r>   14.6906    0.0000 </r>
       <r>   14.8615    0.0000 </r>
       <r>   14.9183    0.0000 </r>
       <r>   15.0140    0.0000 </r>
       <r>   15.4187    0.0000 </r>
       <r>   15.8021    0.0000 </r>
       <r>   15.8436    0.0000 </r>
       <r>   16.0612    0.0000 </r>
       <r>   16.7227    0.0000 </r>
       <r>   17.0810    0.0000 </r>
      </set>
      <set comment="kpoint 7">
       <r>  -50.1112    1.0000 </r>
       <r>  -50.0267    1.0000 </r>
       <r>  -50.0057    1.0000 </r>
       <r>  -49.9491    1.0000 </r>
       <r>  -49.8935    1.0000 </r>
       <r>  -49.8691    1.0000 </r>
       <r>  -24.0435    1.0000 </r>
       <r>  -24.0116    1.0000 </r>
       <r>  -23.9783    1.0000 </r>
       <r>  -23.9089    1.0000 </r>
       <r>  -23.8678    1.0000 </r>
       <r>  -23.8103    1.0000 </r>
       <r>  -23.7961    1.0000 </r>
       <r>  -23.6000    1.0000 </r>
       <r>  -23.5438    1.0000 </r>
       <r>  -23.4667    1.0000 </r>
       <r>  -23.3668    1.0000 </r>
       <r>  -23.2990    1.0000 </r>
       <r>  -23.1948    1.0000 </r>
       <r>  -23.1586    1.0000 </r>
       <r>  -23.0740    1.0000 </r>
       <r>  -23.0326    1.0000 </r>
       <r>  -22.8826    1.0000 </r>
       <r>  -22.8806    1.0000 </r>
       <r>   -0.8821    1.0000 </r>
       <r>    0.6149    1.0000 </r>
       <r>    3.0172    1.0000 </r>
       <r>    3.1951    1.0000 </r>
       <r>    3.9416    1.0000 </r>
       <r>    5.3465    1.0000 </r>
       <r>    6.4032    1.0000 </r>
       <r>    6.6745    1.0000 </r>
       <r>    6.8899    1.0000 </r>
       <r>    7.0190    1.0000 </r>
       <r>    7.5290    1.0000 </r>
       <r>    7.8989    1.0000 </r>
       <r>    7.9374    1.0000 </r>
       <r>    8.5071    1.0000 </r>
       <r>    8.8938    1.0000 </r>
       <r>    8.9533    1.0000 </r>
       <r>    9.2416    1.0000 </r>
       <r>    9.4439    1.0000 </r>
       <r>    9.5640    1.0000 </r>
       <r>   10.0102    1.0000 </r>
       <r>   10.5981    1.0000 </r>
       <r>   11.1763    1.0000 </r>
       <r>   11.2452    1.0000 </r>
       <r>   11.6869    1.0000 </r>
       <r>   11.8439    1.0000 </r>
       <r>   12.2278    1.0000 </r>
       <r>   12.4685    1.0000 </r>
       <r>   12.6922    1.0000 </r>
       <r>   13.0285    0.0000 </r>
       <r>   13.2970    0.0000 </r>
       <r>   13.4470    0.0000 </r>
       <r>   14.1024    0.0000 </r>
       <r>   14.3544    0.0000 </r>
       <r>   14.4864    0.0000 </r>
       <r>   14.8603    0.0000 </r>
       <r>   14.9993    0.0000 </r>
       <r>   15.3161    0.0000 </r>
       <r>   15.6387    0.0000 </r>
       <r>   15.6560    0.0000 </r>
       <r>   15.8130    0.0000 </r>
       <r>   16.3700    0.0000 </r>
       <r>   16.3986    0.0000 </r>
      </set>
      <set comment="kpoint 8">
       <r>  -50.0879    1.0000 </r>
       <r>  -50.0477    1.0000 </r>
       <r>  -49.9930    1.0000 </r>
       <r>  -49.9624    1.0000 </r>
       <r>  -49.8860    1.0000 </r>
       <r>  -49.8789    1.0000 </r>
       <r>  -24.0201    1.0000 </r>
       <r>  -24.0057    1.0000 </r>
       <r>  -23.9327    1.0000 </r>
       <r>  -23.8809    1.0000 </r>
       <r>  -23.7902    1.0000 </r>
       <r>  -23.7299    1.0000 </r>
       <r>  -23.6661    1.0000 </r>
       <r>  -23.6141    1.0000 </r>
       <r>  -23.5343    1.0000 </r>
       <r>  -23.4887    1.0000 </r>
       <r>  -23.3883    1.0000 </r>
       <r>  -23.3792    1.0000 </r>
       <r>  -23.3565    1.0000 </r>
       <r>  -23.2456    1.0000 </r>
       <r>  -23.0764    1.0000 </r>
       <r>  -23.0493    1.0000 </r>
       <r>  -22.9002    1.0000 </r>
       <r>  -22.8868    1.0000 </r>
       <r>   -0.3596    1.0000 </r>
       <r>    0.4096    1.0000 </r>
       <r>    2.7519    1.0000 </r>
       <r>    3.1964    1.0000 </r>
       <r>    3.8507    1.0000 </r>
       <r>    4.5636    1.0000 </r>
       <r>    6.5830    1.0000 </r>
       <r>    6.7508    1.0000 </r>
       <r>    6.9383    1.0000 </r>
       <r>    7.2661    1.0000 </r>
       <r>    8.1839    1.0000 </r>
       <r>    8.3049    1.0000 </r>
       <r>    8.4718    1.0000 </r>
       <r>    8.6393    1.0000 </r>
       <r>    8.9005    1.0000 </r>
       <r>    9.0100    1.0000 </r>
       <r>    9.1578    1.0000 </r>
       <r>    9.2607    1.0000 </r>
       <r>    9.8752    1.0000 </r>
       <r>   10.2963    1.0000 </r>
       <r>   10.5815    1.0000 </r>
       <r>   10.6138    1.0000 </r>
       <r>   11.2056    1.0000 </r>
       <r>   11.4808    1.0000 </r>
       <r>   11.6469    1.0000 </r>
       <r>   11.9577    1.0000 </r>
       <r>   12.2623    1.0000 </r>
       <r>   12.3340    1.0000 </r>
       <r>   13.1354    0.0000 </r>
       <r>   13.3534    0.0000 </r>
       <r>   13.4589    0.0000 </r>
       <r>   13.8616    0.0000 </r>
       <r>   13.9227    0.0000 </r>
       <r>   14.3361    0.0000 </r>
       <r>   14.5388    0.0000 </r>
       <r>   14.7893    0.0000 </r>
       <r>   15.1032    0.0000 </r>
       <r>   15.3370    0.0000 </r>
       <r>   15.8712    0.0000 </r>
       <r>   15.9319    0.0000 </r>
       <r>   16.1678    0.0000 </r>
       <r>   16.2801    0.0000 </r>
      </set>
      <set comment="kpoint 9">
       <r>  -50.0737    1.0000 </r>
       <r>  -50.0626    1.0000 </r>
       <r>  -49.9781    1.0000 </r>
       <r>  -49.9772    1.0000 </r>
       <r>  -49.8883    1.0000 </r>
       <r>  -49.8762    1.0000 </r>
       <r>  -24.0293    1.0000 </r>
       <r>  -24.0001    1.0000 </r>
       <r>  -23.9209    1.0000 </r>
       <r>  -23.8763    1.0000 </r>
       <r>  -23.7720    1.0000 </r>
       <r>  -23.7426    1.0000 </r>
       <r>  -23.6084    1.0000 </r>
       <r>  -23.5673    1.0000 </r>
       <r>  -23.5193    1.0000 </r>
       <r>  -23.4894    1.0000 </r>
       <r>  -23.4479    1.0000 </r>
       <r>  -23.4058    1.0000 </r>
       <r>  -23.3369    1.0000 </r>
       <r>  -23.3209    1.0000 </r>
       <r>  -23.0719    1.0000 </r>
       <r>  -23.0567    1.0000 </r>
       <r>  -22.9027    1.0000 </r>
       <r>  -22.8818    1.0000 </r>
       <r>   -0.1028    1.0000 </r>
       <r>    0.1842    1.0000 </r>
       <r>    2.7815    1.0000 </r>
       <r>    3.1142    1.0000 </r>
       <r>    4.0994    1.0000 </r>
       <r>    4.1580    1.0000 </r>
       <r>    6.3724    1.0000 </r>
       <r>    6.9677    1.0000 </r>
       <r>    7.1172    1.0000 </r>
       <r>    7.2820    1.0000 </r>
       <r>    8.1352    1.0000 </r>
       <r>    8.3920    1.0000 </r>
       <r>    8.6015    1.0000 </r>
       <r>    8.7752    1.0000 </r>
       <r>    8.8723    1.0000 </r>
       <r>    8.9208    1.0000 </r>
       <r>    9.0944    1.0000 </r>
       <r>    9.2556    1.0000 </r>
       <r>   10.1708    1.0000 </r>
       <r>   10.3591    1.0000 </r>
       <r>   10.4917    1.0000 </r>
       <r>   10.7013    1.0000 </r>
       <r>   11.1549    1.0000 </r>
       <r>   11.4387    1.0000 </r>
       <r>   11.7188    1.0000 </r>
       <r>   11.8639    1.0000 </r>
       <r>   12.0878    1.0000 </r>
       <r>   12.3144    1.0000 </r>
       <r>   13.0680    0.0000 </r>
       <r>   13.3116    0.0000 </r>
       <r>   13.6313    0.0000 </r>
       <r>   13.6539    0.0000 </r>
       <r>   13.9348    0.0000 </r>
       <r>   14.0881    0.0000 </r>
       <r>   14.5465    0.0000 </r>
       <r>   14.5896    0.0000 </r>
       <r>   14.8302    0.0000 </r>
       <r>   15.6239    0.0000 </r>
       <r>   15.9941    0.0000 </r>
       <r>   16.1158    0.0000 </r>
       <r>   16.2982    0.0000 </r>
       <r>   16.4223    0.0000 </r>
      </set>
      <set comment="kpoint 10">
       <r>  -50.0996    1.0000 </r>
       <r>  -50.0399    1.0000 </r>
       <r>  -49.9925    1.0000 </r>
       <r>  -49.9617    1.0000 </r>
       <r>  -49.8954    1.0000 </r>
       <r>  -49.8665    1.0000 </r>
       <r>  -24.0591    1.0000 </r>
       <r>  -23.9924    1.0000 </r>
       <r>  -23.9731    1.0000 </r>
       <r>  -23.8785    1.0000 </r>
       <r>  -23.8577    1.0000 </r>
       <r>  -23.7945    1.0000 </r>
       <r>  -23.7113    1.0000 </r>
       <r>  -23.6006    1.0000 </r>
       <r>  -23.5394    1.0000 </r>
       <r>  -23.4274    1.0000 </r>
       <r>  -23.3826    1.0000 </r>
       <r>  -23.3014    1.0000 </r>
       <r>  -23.2860    1.0000 </r>
       <r>  -23.2494    1.0000 </r>
       <r>  -23.0617    1.0000 </r>
       <r>  -23.0569    1.0000 </r>
       <r>  -22.8904    1.0000 </r>
       <r>  -22.8657    1.0000 </r>
       <r>   -0.6727    1.0000 </r>
       <r>    0.5373    1.0000 </r>
       <r>    2.8428    1.0000 </r>
       <r>    3.1047    1.0000 </r>
       <r>    4.2014    1.0000 </r>
       <r>    4.7344    1.0000 </r>
       <r>    6.1804    1.0000 </r>
       <r>    6.9731    1.0000 </r>
       <r>    7.0325    1.0000 </r>
       <r>    7.2800    1.0000 </r>
       <r>    7.3776    1.0000 </r>
       <r>    8.0002    1.0000 </r>
       <r>    8.2408    1.0000 </r>
       <r>    8.6339    1.0000 </r>
       <r>    8.8312    1.0000 </r>
       <r>    8.9016    1.0000 </r>
       <r>    9.4146    1.0000 </r>
       <r>    9.5367    1.0000 </r>
       <r>    9.7872    1.0000 </r>
       <r>   10.3525    1.0000 </r>
       <r>   10.8300    1.0000 </r>
       <r>   10.9752    1.0000 </r>
       <r>   11.2110    1.0000 </r>
       <r>   11.5002    1.0000 </r>
       <r>   11.5896    1.0000 </r>
       <r>   11.9794    1.0000 </r>
       <r>   12.3070    1.0000 </r>
       <r>   12.8360    0.0123 </r>
       <r>   13.1046    0.0000 </r>
       <r>   13.2497    0.0000 </r>
       <r>   13.3698    0.0000 </r>
       <r>   13.9590    0.0000 </r>
       <r>   14.3643    0.0000 </r>
       <r>   14.4203    0.0000 </r>
       <r>   14.5497    0.0000 </r>
       <r>   14.7424    0.0000 </r>
       <r>   14.8210    0.0000 </r>
       <r>   15.6367    0.0000 </r>
       <r>   16.0171    0.0000 </r>
       <r>   16.1515    0.0000 </r>
       <r>   16.4248    0.0000 </r>
       <r>   16.6042    0.0000 </r>
      </set>
      <set comment="kpoint 11">
       <r>  -50.1207    1.0000 </r>
       <r>  -50.0232    1.0000 </r>
       <r>  -50.0051    1.0000 </r>
       <r>  -49.9477    1.0000 </r>
       <r>  -49.8990    1.0000 </r>
       <r>  -49.8591    1.0000 </r>
       <r>  -24.0891    1.0000 </r>
       <r>  -24.0332    1.0000 </r>
       <r>  -23.9744    1.0000 </r>
       <r>  -23.9492    1.0000 </r>
       <r>  -23.9305    1.0000 </r>
       <r>  -23.8786    1.0000 </r>
       <r>  -23.8162    1.0000 </r>
       <r>  -23.5560    1.0000 </r>
       <r>  -23.5315    1.0000 </r>
       <r>  -23.4815    1.0000 </r>
       <r>  -23.2994    1.0000 </r>
       <r>  -23.2303    1.0000 </r>
       <r>  -23.1652    1.0000 </r>
       <r>  -23.1497    1.0000 </r>
       <r>  -23.0581    1.0000 </r>
       <r>  -23.0365    1.0000 </r>
       <r>  -22.8684    1.0000 </r>
       <r>  -22.8440    1.0000 </r>
       <r>   -1.1304    1.0000 </r>
       <r>    0.5785    1.0000 </r>
       <r>    2.9127    1.0000 </r>
       <r>    3.4492    1.0000 </r>
       <r>    4.4578    1.0000 </r>
       <r>    5.5633    1.0000 </r>
       <r>    6.0616    1.0000 </r>
       <r>    6.5837    1.0000 </r>
       <r>    6.7201    1.0000 </r>
       <r>    6.8065    1.0000 </r>
       <r>    7.2846    1.0000 </r>
       <r>    7.6813    1.0000 </r>
       <r>    7.8469    1.0000 </r>
       <r>    8.3638    1.0000 </r>
       <r>    8.6008    1.0000 </r>
       <r>    9.0054    1.0000 </r>
       <r>    9.2571    1.0000 </r>
       <r>    9.4793    1.0000 </r>
       <r>    9.6924    1.0000 </r>
       <r>   10.1015    1.0000 </r>
       <r>   10.7681    1.0000 </r>
       <r>   10.8075    1.0000 </r>
       <r>   11.9210    1.0000 </r>
       <r>   11.9904    1.0000 </r>
       <r>   12.1098    1.0000 </r>
       <r>   12.3220    1.0000 </r>
       <r>   12.6261    1.0000 </r>
       <r>   12.7366    1.0000 </r>
       <r>   12.9429    0.0000 </r>
       <r>   13.1252    0.0000 </r>
       <r>   13.6130    0.0000 </r>
       <r>   14.4340    0.0000 </r>
       <r>   14.7109    0.0000 </r>
       <r>   14.7267    0.0000 </r>
       <r>   14.9450    0.0000 </r>
       <r>   15.0275    0.0000 </r>
       <r>   15.3183    0.0000 </r>
       <r>   15.6017    0.0000 </r>
       <r>   15.9060    0.0000 </r>
       <r>   15.9755    0.0000 </r>
       <r>   16.2154    0.0000 </r>
       <r>   16.8719    0.0000 </r>
      </set>
      <set comment="kpoint 12">
       <r>  -50.1337    1.0000 </r>
       <r>  -50.0137    1.0000 </r>
       <r>  -50.0134    1.0000 </r>
       <r>  -49.9382    1.0000 </r>
       <r>  -49.8999    1.0000 </r>
       <r>  -49.8554    1.0000 </r>
       <r>  -24.1019    1.0000 </r>
       <r>  -24.0703    1.0000 </r>
       <r>  -24.0121    1.0000 </r>
       <r>  -23.9826    1.0000 </r>
       <r>  -23.9716    1.0000 </r>
       <r>  -23.9258    1.0000 </r>
       <r>  -23.8676    1.0000 </r>
       <r>  -23.5273    1.0000 </r>
       <r>  -23.5182    1.0000 </r>
       <r>  -23.5137    1.0000 </r>
       <r>  -23.2476    1.0000 </r>
       <r>  -23.2126    1.0000 </r>
       <r>  -23.1084    1.0000 </r>
       <r>  -23.0699    1.0000 </r>
       <r>  -23.0524    1.0000 </r>
       <r>  -23.0016    1.0000 </r>
       <r>  -22.8488    1.0000 </r>
       <r>  -22.8299    1.0000 </r>
       <r>   -1.3983    1.0000 </r>
       <r>    0.4973    1.0000 </r>
       <r>    3.0031    1.0000 </r>
       <r>    3.9443    1.0000 </r>
       <r>    4.6233    1.0000 </r>
       <r>    6.0469    1.0000 </r>
       <r>    6.2548    1.0000 </r>
       <r>    6.3506    1.0000 </r>
       <r>    6.3539    1.0000 </r>
       <r>    6.5361    1.0000 </r>
       <r>    7.0688    1.0000 </r>
       <r>    7.3272    1.0000 </r>
       <r>    7.9532    1.0000 </r>
       <r>    8.0325    1.0000 </r>
       <r>    8.3943    1.0000 </r>
       <r>    8.8386    1.0000 </r>
       <r>    9.1420    1.0000 </r>
       <r>    9.2823    1.0000 </r>
       <r>    9.6859    1.0000 </r>
       <r>    9.8234    1.0000 </r>
       <r>   10.5922    1.0000 </r>
       <r>   11.0679    1.0000 </r>
       <r>   12.1651    1.0000 </r>
       <r>   12.3177    1.0000 </r>
       <r>   12.4535    1.0000 </r>
       <r>   12.6044    1.0000 </r>
       <r>   12.6620    1.0000 </r>
       <r>   12.7437    1.0000 </r>
       <r>   12.9860    0.0000 </r>
       <r>   13.3635    0.0000 </r>
       <r>   14.2140    0.0000 </r>
       <r>   14.3492    0.0000 </r>
       <r>   14.6670    0.0000 </r>
       <r>   15.0065    0.0000 </r>
       <r>   15.0890    0.0000 </r>
       <r>   15.2997    0.0000 </r>
       <r>   15.3904    0.0000 </r>
       <r>   15.7888    0.0000 </r>
       <r>   15.9567    0.0000 </r>
       <r>   16.0147    0.0000 </r>
       <r>   16.5690    0.0000 </r>
       <r>   16.9362    0.0000 </r>
      </set>
      <set comment="kpoint 13">
       <r>  -50.0937    1.0000 </r>
       <r>  -50.0252    1.0000 </r>
       <r>  -50.0139    1.0000 </r>
       <r>  -49.9590    1.0000 </r>
       <r>  -49.8871    1.0000 </r>
       <r>  -49.8771    1.0000 </r>
       <r>  -23.9940    1.0000 </r>
       <r>  -23.9894    1.0000 </r>
       <r>  -23.9609    1.0000 </r>
       <r>  -23.8673    1.0000 </r>
       <r>  -23.7790    1.0000 </r>
       <r>  -23.7430    1.0000 </r>
       <r>  -23.7167    1.0000 </r>
       <r>  -23.6417    1.0000 </r>
       <r>  -23.5462    1.0000 </r>
       <r>  -23.5093    1.0000 </r>
       <r>  -23.4004    1.0000 </r>
       <r>  -23.3459    1.0000 </r>
       <r>  -23.2474    1.0000 </r>
       <r>  -23.1968    1.0000 </r>
       <r>  -23.1422    1.0000 </r>
       <r>  -23.0760    1.0000 </r>
       <r>  -22.9050    1.0000 </r>
       <r>  -22.8839    1.0000 </r>
       <r>   -0.4788    1.0000 </r>
       <r>    0.6664    1.0000 </r>
       <r>    2.3877    1.0000 </r>
       <r>    3.1025    1.0000 </r>
       <r>    4.0512    1.0000 </r>
       <r>    5.5788    1.0000 </r>
       <r>    5.7135    1.0000 </r>
       <r>    6.6117    1.0000 </r>
       <r>    6.8957    1.0000 </r>
       <r>    7.0588    1.0000 </r>
       <r>    8.1578    1.0000 </r>
       <r>    8.2781    1.0000 </r>
       <r>    8.5293    1.0000 </r>
       <r>    8.5976    1.0000 </r>
       <r>    8.8296    1.0000 </r>
       <r>    9.2253    1.0000 </r>
       <r>    9.3566    1.0000 </r>
       <r>    9.6162    1.0000 </r>
       <r>    9.6845    1.0000 </r>
       <r>    9.8494    1.0000 </r>
       <r>   10.5098    1.0000 </r>
       <r>   10.7535    1.0000 </r>
       <r>   11.3084    1.0000 </r>
       <r>   11.3139    1.0000 </r>
       <r>   11.8136    1.0000 </r>
       <r>   12.1309    1.0000 </r>
       <r>   12.2105    1.0000 </r>
       <r>   12.8224    0.0991 </r>
       <r>   12.9312    0.0000 </r>
       <r>   13.1097    0.0000 </r>
       <r>   13.6978    0.0000 </r>
       <r>   13.7451    0.0000 </r>
       <r>   13.9048    0.0000 </r>
       <r>   14.5797    0.0000 </r>
       <r>   14.8469    0.0000 </r>
       <r>   14.9019    0.0000 </r>
       <r>   15.2624    0.0000 </r>
       <r>   15.3594    0.0000 </r>
       <r>   15.3640    0.0000 </r>
       <r>   15.6277    0.0000 </r>
       <r>   16.0751    0.0000 </r>
       <r>   16.3028    0.0000 </r>
      </set>
      <set comment="kpoint 14">
       <r>  -50.0714    1.0000 </r>
       <r>  -50.0437    1.0000 </r>
       <r>  -50.0049    1.0000 </r>
       <r>  -49.9722    1.0000 </r>
       <r>  -49.8858    1.0000 </r>
       <r>  -49.8783    1.0000 </r>
       <r>  -24.0161    1.0000 </r>
       <r>  -23.9547    1.0000 </r>
       <r>  -23.9049    1.0000 </r>
       <r>  -23.8374    1.0000 </r>
       <r>  -23.7220    1.0000 </r>
       <r>  -23.6715    1.0000 </r>
       <r>  -23.6625    1.0000 </r>
       <r>  -23.6156    1.0000 </r>
       <r>  -23.5861    1.0000 </r>
       <r>  -23.5153    1.0000 </r>
       <r>  -23.4182    1.0000 </r>
       <r>  -23.3799    1.0000 </r>
       <r>  -23.3409    1.0000 </r>
       <r>  -23.2694    1.0000 </r>
       <r>  -23.1694    1.0000 </r>
       <r>  -23.1034    1.0000 </r>
       <r>  -22.9179    1.0000 </r>
       <r>  -22.8793    1.0000 </r>
       <r>    0.0258    1.0000 </r>
       <r>    0.4732    1.0000 </r>
       <r>    2.0436    1.0000 </r>
       <r>    2.9440    1.0000 </r>
       <r>    4.3051    1.0000 </r>
       <r>    4.9883    1.0000 </r>
       <r>    5.9682    1.0000 </r>
       <r>    6.4614    1.0000 </r>
       <r>    7.0880    1.0000 </r>
       <r>    7.1194    1.0000 </r>
       <r>    8.3952    1.0000 </r>
       <r>    8.4628    1.0000 </r>
       <r>    8.7156    1.0000 </r>
       <r>    8.8356    1.0000 </r>
       <r>    8.9147    1.0000 </r>
       <r>    9.2454    1.0000 </r>
       <r>    9.3347    1.0000 </r>
       <r>    9.4735    1.0000 </r>
       <r>    9.9237    1.0000 </r>
       <r>   10.2262    1.0000 </r>
       <r>   10.3002    1.0000 </r>
       <r>   10.6406    1.0000 </r>
       <r>   11.2339    1.0000 </r>
       <r>   11.5843    1.0000 </r>
       <r>   11.6403    1.0000 </r>
       <r>   11.9196    1.0000 </r>
[...]
       <r>    9.7036    1.0000 </r>
       <r>   10.1118    1.0000 </r>
       <r>   10.7232    1.0000 </r>
       <r>   10.8782    1.0000 </r>
       <r>   11.0645    1.0000 </r>
       <r>   11.5256    1.0000 </r>
       <r>   11.8219    1.0000 </r>
       <r>   12.1736    1.0000 </r>
       <r>   12.4150    1.0000 </r>
       <r>   12.5114    1.0000 </r>
       <r>   13.0033    0.0000 </r>
       <r>   13.1151    0.0000 </r>
       <r>   13.4728    0.0000 </r>
       <r>   13.8745    0.0000 </r>
       <r>   14.1430    0.0000 </r>
       <r>   14.5538    0.0000 </r>
       <r>   14.7414    0.0000 </r>
       <r>   14.8814    0.0000 </r>
       <r>   15.0009    0.0000 </r>
       <r>   15.5733    0.0000 </r>
       <r>   15.7259    0.0000 </r>
       <r>   15.7923    0.0000 </r>
       <r>   16.2343    0.0000 </r>
       <r>   16.3031    0.0000 </r>
      </set>
      <set comment="kpoint 165">
       <r>  -50.0888    1.0000 </r>
       <r>  -50.0194    1.0000 </r>
       <r>  -50.0142    1.0000 </r>
       <r>  -49.9739    1.0000 </r>
       <r>  -49.8945    1.0000 </r>
       <r>  -49.8652    1.0000 </r>
       <r>  -24.0771    1.0000 </r>
       <r>  -23.9421    1.0000 </r>
       <r>  -23.9125    1.0000 </r>
       <r>  -23.8994    1.0000 </r>
       <r>  -23.7685    1.0000 </r>
       <r>  -23.7611    1.0000 </r>
       <r>  -23.7083    1.0000 </r>
       <r>  -23.5959    1.0000 </r>
       <r>  -23.5032    1.0000 </r>
       <r>  -23.4940    1.0000 </r>
       <r>  -23.4334    1.0000 </r>
       <r>  -23.2737    1.0000 </r>
       <r>  -23.2653    1.0000 </r>
       <r>  -23.2422    1.0000 </r>
       <r>  -23.1651    1.0000 </r>
       <r>  -23.1540    1.0000 </r>
       <r>  -22.8923    1.0000 </r>
       <r>  -22.8575    1.0000 </r>
       <r>   -0.4507    1.0000 </r>
       <r>    0.7485    1.0000 </r>
       <r>    2.3403    1.0000 </r>
       <r>    2.5723    1.0000 </r>
       <r>    4.5589    1.0000 </r>
       <r>    5.6701    1.0000 </r>
       <r>    6.0667    1.0000 </r>
       <r>    6.1069    1.0000 </r>
       <r>    6.6841    1.0000 </r>
       <r>    7.2599    1.0000 </r>
       <r>    7.5648    1.0000 </r>
       <r>    8.0848    1.0000 </r>
       <r>    8.6917    1.0000 </r>
       <r>    8.7687    1.0000 </r>
       <r>    8.9196    1.0000 </r>
       <r>    8.9341    1.0000 </r>
       <r>    9.7936    1.0000 </r>
       <r>    9.8702    1.0000 </r>
       <r>    9.9281    1.0000 </r>
       <r>   10.0091    1.0000 </r>
       <r>   10.7777    1.0000 </r>
       <r>   10.8122    1.0000 </r>
       <r>   10.9459    1.0000 </r>
       <r>   11.6007    1.0000 </r>
       <r>   11.8126    1.0000 </r>
       <r>   12.3526    1.0000 </r>
       <r>   12.4117    1.0000 </r>
       <r>   12.6504    1.0000 </r>
       <r>   12.7906    0.8321 </r>
       <r>   12.7950    0.7418 </r>
       <r>   13.4067    0.0000 </r>
       <r>   13.8656    0.0000 </r>
       <r>   14.2785    0.0000 </r>
       <r>   14.4201    0.0000 </r>
       <r>   14.5445    0.0000 </r>
       <r>   14.7828    0.0000 </r>
       <r>   15.2700    0.0000 </r>
       <r>   15.2717    0.0000 </r>
       <r>   15.4563    0.0000 </r>
       <r>   16.0696    0.0000 </r>
       <r>   16.1115    0.0000 </r>
       <r>   16.4451    0.0000 </r>
      </set>
     </set>
    </set>
   </array>
  </eigenvalues>
  <separator name="orbital magnetization" >
   <v name="MAGDIPOLOUT">      0.00000000      0.00000000      0.00000000</v>
  </separator>
  <dos>
   <i name="efermi">     12.80420845 </i>
   <total>
    <array>
     <dimension dim="1">gridpoints</dimension>
     <dimension dim="2">spin</dimension>
     <field>energy</field>
     <field>total</field>
     <field>integrated</field>
     <set>
      <set comment="spin 1">
       <r>   -53.5436     0.0000     0.0000 </r>
       <r>   -53.2941     0.0000     0.0000 </r>
       <r>   -53.0446     0.0000     0.0000 </r>
       <r>   -52.7952     0.0000     0.0000 </r>
       <r>   -52.5457     0.0000     0.0000 </r>
       <r>   -52.2962     0.0000     0.0000 </r>
       <r>   -52.0468     0.0000     0.0000 </r>
       <r>   -51.7973     0.0000     0.0000 </r>
       <r>   -51.5479     0.0000     0.0000 </r>
       <r>   -51.2984     0.0000     0.0000 </r>
       <r>   -51.0489     0.0000     0.0000 </r>
       <r>   -50.7995     0.0000     0.0000 </r>
       <r>   -50.5500     0.0000     0.0000 </r>
       <r>   -50.3005     0.0000     0.0000 </r>
       <r>   -50.0511     9.3621     2.3355 </r>
       <r>   -49.8016    19.9175    12.0000 </r>
       <r>   -49.5521     0.0000    12.0000 </r>
       <r>   -49.3027     0.0000    12.0000 </r>
       <r>   -49.0532     0.0000    12.0000 </r>
       <r>   -48.8037     0.0000    12.0000 </r>
       <r>   -48.5543     0.0000    12.0000 </r>
       <r>   -48.3048     0.0000    12.0000 </r>
       <r>   -48.0553     0.0000    12.0000 </r>
       <r>   -47.8059     0.0000    12.0000 </r>
       <r>   -47.5564     0.0000    12.0000 </r>
       <r>   -47.3069     0.0000    12.0000 </r>
       <r>   -47.0575     0.0000    12.0000 </r>
       <r>   -46.8080     0.0000    12.0000 </r>
       <r>   -46.5585     0.0000    12.0000 </r>
       <r>   -46.3091     0.0000    12.0000 </r>
       <r>   -46.0596     0.0000    12.0000 </r>
       <r>   -45.8101     0.0000    12.0000 </r>
       <r>   -45.5607     0.0000    12.0000 </r>
       <r>   -45.3112     0.0000    12.0000 </r>
       <r>   -45.0617     0.0000    12.0000 </r>
       <r>   -44.8123     0.0000    12.0000 </r>
       <r>   -44.5628     0.0000    12.0000 </r>
       <r>   -44.3133     0.0000    12.0000 </r>
       <r>   -44.0639     0.0000    12.0000 </r>
       <r>   -43.8144     0.0000    12.0000 </r>
       <r>   -43.5650     0.0000    12.0000 </r>
       <r>   -43.3155     0.0000    12.0000 </r>
       <r>   -43.0660     0.0000    12.0000 </r>
       <r>   -42.8166     0.0000    12.0000 </r>
       <r>   -42.5671     0.0000    12.0000 </r>
       <r>   -42.3176     0.0000    12.0000 </r>
       <r>   -42.0682     0.0000    12.0000 </r>
       <r>   -41.8187     0.0000    12.0000 </r>
       <r>   -41.5692     0.0000    12.0000 </r>
       <r>   -41.3198     0.0000    12.0000 </r>
       <r>   -41.0703     0.0000    12.0000 </r>
       <r>   -40.8208     0.0000    12.0000 </r>
       <r>   -40.5714     0.0000    12.0000 </r>
       <r>   -40.3219     0.0000    12.0000 </r>
       <r>   -40.0724     0.0000    12.0000 </r>
       <r>   -39.8230     0.0000    12.0000 </r>
       <r>   -39.5735     0.0000    12.0000 </r>
       <r>   -39.3240     0.0000    12.0000 </r>
       <r>   -39.0746     0.0000    12.0000 </r>
       <r>   -38.8251     0.0000    12.0000 </r>
       <r>   -38.5756     0.0000    12.0000 </r>
       <r>   -38.3262     0.0000    12.0000 </r>
       <r>   -38.0767     0.0000    12.0000 </r>
       <r>   -37.8272     0.0000    12.0000 </r>
       <r>   -37.5778     0.0000    12.0000 </r>
       <r>   -37.3283     0.0000    12.0000 </r>
       <r>   -37.0788     0.0000    12.0000 </r>
       <r>   -36.8294     0.0000    12.0000 </r>
       <r>   -36.5799     0.0000    12.0000 </r>
       <r>   -36.3304     0.0000    12.0000 </r>
       <r>   -36.0810     0.0000    12.0000 </r>
       <r>   -35.8315     0.0000    12.0000 </r>
       <r>   -35.5821     0.0000    12.0000 </r>
       <r>   -35.3326     0.0000    12.0000 </r>
       <r>   -35.0831     0.0000    12.0000 </r>
       <r>   -34.8337     0.0000    12.0000 </r>
       <r>   -34.5842     0.0000    12.0000 </r>
       <r>   -34.3347     0.0000    12.0000 </r>
       <r>   -34.0853     0.0000    12.0000 </r>
       <r>   -33.8358     0.0000    12.0000 </r>
       <r>   -33.5863     0.0000    12.0000 </r>
       <r>   -33.3369     0.0000    12.0000 </r>
       <r>   -33.0874     0.0000    12.0000 </r>
       <r>   -32.8379     0.0000    12.0000 </r>
       <r>   -32.5885     0.0000    12.0000 </r>
       <r>   -32.3390     0.0000    12.0000 </r>
       <r>   -32.0895     0.0000    12.0000 </r>
       <r>   -31.8401     0.0000    12.0000 </r>
       <r>   -31.5906     0.0000    12.0000 </r>
       <r>   -31.3411     0.0000    12.0000 </r>
       <r>   -31.0917     0.0000    12.0000 </r>
       <r>   -30.8422     0.0000    12.0000 </r>
       <r>   -30.5927     0.0000    12.0000 </r>
       <r>   -30.3433     0.0000    12.0000 </r>
       <r>   -30.0938     0.0000    12.0000 </r>
       <r>   -29.8443     0.0000    12.0000 </r>
       <r>   -29.5949     0.0000    12.0000 </r>
       <r>   -29.3454     0.0000    12.0000 </r>
       <r>   -29.0959     0.0000    12.0000 </r>
       <r>   -28.8465     0.0000    12.0000 </r>
       <r>   -28.5970     0.0000    12.0000 </r>
       <r>   -28.3475     0.0000    12.0000 </r>
       <r>   -28.0981     0.0000    12.0000 </r>
       <r>   -27.8486     0.0000    12.0000 </r>
       <r>   -27.5992     0.0000    12.0000 </r>
       <r>   -27.3497     0.0000    12.0000 </r>
       <r>   -27.1002     0.0000    12.0000 </r>
       <r>   -26.8508     0.0000    12.0000 </r>
       <r>   -26.6013     0.0000    12.0000 </r>
       <r>   -26.3518     0.0000    12.0000 </r>
       <r>   -26.1024     0.0000    12.0000 </r>
       <r>   -25.8529     0.0000    12.0000 </r>
       <r>   -25.6034     0.0000    12.0000 </r>
       <r>   -25.3540     0.0000    12.0000 </r>
       <r>   -25.1045     0.0000    12.0000 </r>
       <r>   -24.8550     0.0000    12.0000 </r>
       <r>   -24.6056     0.0000    12.0000 </r>
       <r>   -24.3561     0.0000    12.0000 </r>
       <r>   -24.1066     0.2687    12.0670 </r>
       <r>   -23.8572    23.3151    19.4066 </r>
       <r>   -23.6077    17.7288    26.8186 </r>
       <r>   -23.3582    19.2731    35.2177 </r>
       <r>   -23.1088    13.7661    41.0592 </r>
       <r>   -22.8593    14.3064    47.4266 </r>
       <r>   -22.6098     0.0000    48.0000 </r>
       <r>   -22.3604     0.0000    48.0000 </r>
       <r>   -22.1109     0.0000    48.0000 </r>
       <r>   -21.8614     0.0000    48.0000 </r>
       <r>   -21.6120     0.0000    48.0000 </r>
       <r>   -21.3625     0.0000    48.0000 </r>
       <r>   -21.1130     0.0000    48.0000 </r>
       <r>   -20.8636     0.0000    48.0000 </r>
       <r>   -20.6141     0.0000    48.0000 </r>
       <r>   -20.3647     0.0000    48.0000 </r>
       <r>   -20.1152     0.0000    48.0000 </r>
       <r>   -19.8657     0.0000    48.0000 </r>
       <r>   -19.6163     0.0000    48.0000 </r>
       <r>   -19.3668     0.0000    48.0000 </r>
       <r>   -19.1173     0.0000    48.0000 </r>
       <r>   -18.8679     0.0000    48.0000 </r>
       <r>   -18.6184     0.0000    48.0000 </r>
       <r>   -18.3689     0.0000    48.0000 </r>
       <r>   -18.1195     0.0000    48.0000 </r>
       <r>   -17.8700     0.0000    48.0000 </r>
       <r>   -17.6205     0.0000    48.0000 </r>
       <r>   -17.3711     0.0000    48.0000 </r>
       <r>   -17.1216     0.0000    48.0000 </r>
       <r>   -16.8721     0.0000    48.0000 </r>
       <r>   -16.6227     0.0000    48.0000 </r>
       <r>   -16.3732     0.0000    48.0000 </r>
       <r>   -16.1237     0.0000    48.0000 </r>
       <r>   -15.8743     0.0000    48.0000 </r>
       <r>   -15.6248     0.0000    48.0000 </r>
       <r>   -15.3753     0.0000    48.0000 </r>
       <r>   -15.1259     0.0000    48.0000 </r>
       <r>   -14.8764     0.0000    48.0000 </r>
       <r>   -14.6269     0.0000    48.0000 </r>
       <r>   -14.3775     0.0000    48.0000 </r>
       <r>   -14.1280     0.0000    48.0000 </r>
       <r>   -13.8785     0.0000    48.0000 </r>
       <r>   -13.6291     0.0000    48.0000 </r>
       <r>   -13.3796     0.0000    48.0000 </r>
       <r>   -13.1301     0.0000    48.0000 </r>
       <r>   -12.8807     0.0000    48.0000 </r>
       <r>   -12.6312     0.0000    48.0000 </r>
       <r>   -12.3818     0.0000    48.0000 </r>
       <r>   -12.1323     0.0000    48.0000 </r>
       <r>   -11.8828     0.0000    48.0000 </r>
       <r>   -11.6334     0.0000    48.0000 </r>
       <r>   -11.3839     0.0000    48.0000 </r>
       <r>   -11.1344     0.0000    48.0000 </r>
       <r>   -10.8850     0.0000    48.0000 </r>
       <r>   -10.6355     0.0000    48.0000 </r>
       <r>   -10.3860     0.0000    48.0000 </r>
       <r>   -10.1366     0.0000    48.0000 </r>
       <r>    -9.8871     0.0000    48.0000 </r>
       <r>    -9.6376     0.0000    48.0000 </r>
       <r>    -9.3882     0.0000    48.0000 </r>
       <r>    -9.1387     0.0000    48.0000 </r>
       <r>    -8.8892     0.0000    48.0000 </r>
       <r>    -8.6398     0.0000    48.0000 </r>
       <r>    -8.3903     0.0000    48.0000 </r>
       <r>    -8.1408     0.0000    48.0000 </r>
       <r>    -7.8914     0.0000    48.0000 </r>
       <r>    -7.6419     0.0000    48.0000 </r>
       <r>    -7.3924     0.0000    48.0000 </r>
       <r>    -7.1430     0.0000    48.0000 </r>
       <r>    -6.8935     0.0000    48.0000 </r>
       <r>    -6.6440     0.0000    48.0000 </r>
       <r>    -6.3946     0.0000    48.0000 </r>
       <r>    -6.1451     0.0000    48.0000 </r>
       <r>    -5.8956     0.0000    48.0000 </r>
       <r>    -5.6462     0.0000    48.0000 </r>
       <r>    -5.3967     0.0000    48.0000 </r>
       <r>    -5.1472     0.0000    48.0000 </r>
       <r>    -4.8978     0.0000    48.0000 </r>
       <r>    -4.6483     0.0000    48.0000 </r>
       <r>    -4.3989     0.0000    48.0000 </r>
       <r>    -4.1494     0.0000    48.0000 </r>
       <r>    -3.8999     0.0000    48.0000 </r>
       <r>    -3.6505     0.0000    48.0000 </r>
       <r>    -3.4010     0.0000    48.0000 </r>
       <r>    -3.1515     0.0000    48.0000 </r>
       <r>    -2.9021     0.0000    48.0000 </r>
       <r>    -2.6526     0.0000    48.0000 </r>
       <r>    -2.4031     0.0000    48.0000 </r>
       <r>    -2.1537     0.0000    48.0000 </r>
       <r>    -1.9042     0.0000    48.0000 </r>
       <r>    -1.6547     0.0000    48.0000 </r>
       <r>    -1.4053     0.1836    48.0458 </r>
       <r>    -1.1558     0.4023    48.1594 </r>
       <r>    -0.9063     0.3269    48.2864 </r>
       <r>    -0.6569     0.5777    48.5504 </r>
       <r>    -0.4074     0.9001    48.8252 </r>
       <r>    -0.1579     0.7631    49.2008 </r>
       <r>     0.0915     1.2805    49.6354 </r>
       <r>     0.3410     1.3032    50.1619 </r>
       <r>     0.5905     3.0225    51.1533 </r>
       <r>     0.8399     1.4390    51.9319 </r>
       <r>     1.0894     0.0974    52.0000 </r>
       <r>     1.3389     0.1054    52.0263 </r>
       <r>     1.5883     0.3142    52.1166 </r>
       <r>     1.8378     0.4860    52.2705 </r>
       <r>     2.0873     0.5867    52.4762 </r>
       <r>     2.3367     0.9348    52.8131 </r>
       <r>     2.5862     1.2328    53.2207 </r>
       <r>     2.8357     1.5955    53.7661 </r>
       <r>     3.0851     1.7474    54.4637 </r>
       <r>     3.3346     1.7088    55.2145 </r>
       <r>     3.5840     1.5016    55.7739 </r>
       <r>     3.8335     0.9559    56.2767 </r>
       <r>     4.0830     1.3776    56.7846 </r>
       <r>     4.3324     1.4197    57.3576 </r>
       <r>     4.5819     1.4271    57.9012 </r>
       <r>     4.8314     1.4040    58.4857 </r>
       <r>     5.0808     1.4846    59.0162 </r>
       <r>     5.3303     1.2758    59.5127 </r>
       <r>     5.5798     1.5923    60.1264 </r>
       <r>     5.8292     1.7332    60.7588 </r>
       <r>     6.0787     2.0904    61.4902 </r>
       <r>     6.3282     1.4704    62.1064 </r>
       <r>     6.5776     2.4109    63.1049 </r>
       <r>     6.8271     3.1408    64.3078 </r>
       <r>     7.0766     3.5892    65.6419 </r>
       <r>     7.3260     4.0956    67.0703 </r>
       <r>     7.5755     3.9103    68.5588 </r>
       <r>     7.8250     2.3026    69.5848 </r>
       <r>     8.0744     2.8276    70.6255 </r>
       <r>     8.3239     4.0798    72.0351 </r>
       <r>     8.5734     5.4887    74.0533 </r>
       <r>     8.8228     6.0992    76.2403 </r>
       <r>     9.0723     5.8347    78.8514 </r>
       <r>     9.3218     4.9091    80.8601 </r>
       <r>     9.5712     4.9800    82.7423 </r>
       <r>     9.8207     4.5929    84.6249 </r>
       <r>    10.0702     4.2980    86.3257 </r>
       <r>    10.3196     3.7834    87.8744 </r>
       <r>    10.5691     4.0774    89.4304 </r>
       <r>    10.8186     4.1178    91.1905 </r>
       <r>    11.0680     2.9562    92.3278 </r>
       <r>    11.3175     4.3208    93.7932 </r>
       <r>    11.5669     4.7043    95.5798 </r>
       <r>    11.8164     4.1933    97.3204 </r>
       <r>    12.0659     4.5098    99.0730 </r>
       <r>    12.3153     4.9250   100.9578 </r>
       <r>    12.5648     4.0688   102.7338 </r>
       <r>    12.8143     3.1374   104.0500 </r>
       <r>    13.0637     4.5686   105.5564 </r>
       <r>    13.3132     4.4803   107.5205 </r>
       <r>    13.5627     4.8452   109.5490 </r>
       <r>    13.8121     4.7959   111.4013 </r>
       <r>    14.0616     3.6992   112.8707 </r>
       <r>    14.3111     3.4210   114.3777 </r>
       <r>    14.5605     4.7965   116.3875 </r>
       <r>    14.8100     5.9240   118.6514 </r>
       <r>    15.0595     3.9087   120.2737 </r>
       <r>    15.3089     4.5455   121.9221 </r>
       <r>    15.5584     3.9370   123.4787 </r>
       <r>    15.8079     4.6922   125.2330 </r>
       <r>    16.0573     4.3186   126.9246 </r>
       <r>    16.3068     5.4274   129.0206 </r>
       <r>    16.5563     3.1165   130.3886 </r>
       <r>    16.8057     1.8078   131.0829 </r>
       <r>    17.0552     0.9127   131.4360 </r>
       <r>    17.3047     0.3578   131.6205 </r>
       <r>    17.5541     0.5115   131.8394 </r>
       <r>    17.8036     0.2561   131.9910 </r>
       <r>    18.0531     0.0278   132.0000 </r>
       <r>    18.3025     0.0000   132.0000 </r>
       <r>    18.5520     0.0000   132.0000 </r>
       <r>    18.8015     0.0000   132.0000 </r>
       <r>    19.0509     0.0000   132.0000 </r>
       <r>    19.3004     0.0000   132.0000 </r>
       <r>    19.5498     0.0000   132.0000 </r>
       <r>    19.7993     0.0000   132.0000 </r>
       <r>    20.0488     0.0000   132.0000 </r>
       <r>    20.2982     0.0000   132.0000 </r>
       <r>    20.5477     0.0000   132.0000 </r>
       <r>    20.7972     0.0000   132.0000 </r>
       <r>    21.0466     0.0000   132.0000 </r>
       <r>    21.2961     0.0000   132.0000 </r>
      </set>
     </set>
    </array>
   </total>
  </dos>
 </calculation>
 <structure name="finalpos" >
  <crystal>
   <varray name="basis" >
    <v>       4.93102148       0.00000000      -2.98080697 </v>
    <v>      -1.56858085       4.67488256      -2.98080697 </v>
    <v>       0.00000000       0.00000000       5.76196000 </v>
   </varray>
   <i name="volume">    132.82439273 </i>
   <varray name="rec_basis" >
    <v>       0.20279774       0.06804548       0.00000000 </v>
    <v>       0.00000000       0.21390912       0.00000000 </v>
    <v>       0.10491238       0.14586221       0.17355206 </v>
   </varray>
  </crystal>
  <varray name="positions" >
   <v>       0.00000000       0.50000000       0.00000000 </v>
   <v>       0.50000000       0.50000000       0.50000000 </v>
   <v>       0.50000000       0.00000000       0.00000000 </v>
   <v>       0.00000000       0.00000000       0.50000000 </v>
   <v>       0.24129000       0.74129000       0.98257000 </v>
   <v>       0.25000000       0.75000000       0.50000000 </v>
   <v>       0.75871000       0.25871000       0.01743000 </v>
   <v>       0.75000000       0.25000000       0.50000000 </v>
   <v>       0.74129000       0.75871000       0.50000000 </v>
   <v>       0.25871000       0.24129000       0.50000000 </v>
   <v>       0.25000000       0.25000000       0.00000000 </v>
   <v>       0.75000000       0.75000000       0.00000000 </v>
  </varray>
 </structure>
</modeling>
