 vasp.6.2.0 18Jan21 (build Jan 05 2022 15:41:44) complex                        
  
 executed on             LinuxIFC date 2025.05.07  17:35:46
 running on   24 total cores
 distrk:  each k-point on   12 cores,    2 groups
 distr:  one band on NCORE=   2 cores,    6 groups


--------------------------------------------------------------------------------------------------------


 INCAR:
   SYSTEM = routine with relax: pwdword
   ICHARG = 2
   NPAR = 6
   KPAR = 2
   NCORE = 2
   ADDGRID = T
   PREC = Acc
   ENCUT = 600
   METAGGA = R2SCAN
   LASPH = .TRUE.
   LMIXTAU = .FALSE.
   ALGO = A
   EDIFF = 1E-9
   NELM = 100
   NELMIN = 6
   IALGO = 38
   LREAL = F
   NSW = 0
   ISIF = -1
   ISMEAR = 0
   SIGMA = 0.02

 POTCAR:    PAW_PBE B 06Sep2000                   
 POTCAR:    PAW_PBE Mo_sv 02Feb2006               
 POTCAR:    PAW_PBE Si 05Jan2001                  
 -----------------------------------------------------------------------------
|                                                                             |
|           W    W    AA    RRRRR   N    N  II  N    N   GGGG   !!!           |
|           W    W   A  A   R    R  NN   N  II  NN   N  G    G  !!!           |
|           W    W  A    A  R    R  N N  N  II  N N  N  G       !!!           |
|           W WW W  AAAAAA  RRRRR   N  N N  II  N  N N  G  GGG   !            |
|           WW  WW  A    A  R   R   N   NN  II  N   NN  G    G                |
|           W    W  A    A  R    R  N    N  II  N    N   GGGG   !!!           |
|                                                                             |
|     For optimal performance we recommend to set                             |
|       NCORE = 2 up to number-of-cores-per-socket                            |
|     NCORE specifies how many cores store one orbital (NPAR=cpu/NCORE).      |
|     This setting can greatly improve the performance of VASP for DFT.       |
|     The default, NCORE=1 might be grossly inefficient on modern             |
|     multi-core architectures or massively parallel machines. Do your        |
|     own testing! More info at https://www.vasp.at/wiki/index.php/NCORE      |
|     Unfortunately you need to use the default for GW and RPA                |
|     calculations (for HF NCORE is supported but not extensively tested      |
|     yet).                                                                   |
|                                                                             |
 -----------------------------------------------------------------------------

 POTCAR:    PAW_PBE B 06Sep2000                   
   VRHFIN =B: s2p1                                                                                  
   LEXCH  = PE                                                                                      
   EATOM  =    71.1703 eV,    5.2309 Ry                                                             
                                                                                                    
   TITEL  = PAW_PBE B 06Sep2000                                                                     
   LULTRA =        F    use ultrasoft PP ?                                                          
   IUNSCR =        1    unscreen: 0-lin 1-nonlin 2-no                                               
   RPACOR =    1.200    partial core radius                                                         
   POMASS =   10.811; ZVAL   =    3.000    mass and valenz                                          
   RCORE  =    1.700    outmost cutoff radius                                                       
   RWIGS  =    1.710; RWIGS  =    0.905    wigner-seitz radius (au A)                               
   ENMAX  =  318.614; ENMIN  =  238.960 eV                                                          
   ICORE  =        2    local potential                                                             
   LCOR   =        T    correct aug charges                                                         
   LPAW   =        T    paw PP                                                                      
   EAUG   =  535.514                                                                                
   DEXC   =    0.000                                                                                
   RMAX   =    1.732    core radius for proj-oper                                                   
   RAUG   =    1.300    factor for augmentation sphere                                              
   RDEP   =    1.757    radius for radial grids                                                     
   RDEPT  =    1.436    core radius for aug-charge                                                  
                                                                                                    
   Atomic configuration                                                                             
    4 entries                                                                                       
     n  l   j            E        occ.                                                              
     1  0  0.50      -180.5896   2.0000                                                             
     2  0  0.50        -9.4431   2.0000                                                             
     2  1  0.50        -3.6068   1.0000                                                             
     3  2  1.50        -4.0817   0.0000                                                             
   Description                                                                                      
     l       E           TYP  RCUT    TYP  RCUT                                                     
     0     -9.4430752     23  1.500                                                                 
     0      0.8675899     23  1.500                                                                 
     1     -3.6067955     23  1.700                                                                 
     1      6.1086146     23  1.700                                                                 
     2     -4.0817478      7  1.700                                                                 
  local pseudopotential read in
  partial core-charges read in
  partial kinetic energy density read in
  atomic valenz-charges read in
  non local Contribution for L=           0  read in
    real space projection operators read in
  non local Contribution for L=           0  read in
    real space projection operators read in
  non local Contribution for L=           1  read in
    real space projection operators read in
  non local Contribution for L=           1  read in
    real space projection operators read in
    PAW grid and wavefunctions read in
 
   number of l-projection  operators is LMAX  =           4
   number of lm-projection operators is LMMAX =           8
 
 POTCAR:    PAW_PBE Mo_sv 02Feb2006               
   VRHFIN =Mo: 4p5s4d                                                                               
   LEXCH  = PE                                                                                      
   EATOM  =  1862.2866 eV,  136.8742 Ry                                                             
                                                                                                    
   TITEL  = PAW_PBE Mo_sv 02Feb2006                                                                 
   LULTRA =        F    use ultrasoft PP ?                                                          
   IUNSCR =        1    unscreen: 0-lin 1-nonlin 2-no                                               
   RPACOR =    2.200    partial core radius                                                         
   POMASS =   95.940; ZVAL   =   14.000    mass and valenz                                          
   RCORE  =    2.500    outmost cutoff radius                                                       
   RWIGS  =    2.750; RWIGS  =    1.455    wigner-seitz radius (au A)                               
   ENMAX  =  242.676; ENMIN  =  182.007 eV                                                          
   ICORE  =        3    local potential                                                             
   LCOR   =        T    correct aug charges                                                         
   LPAW   =        T    paw PP                                                                      
   EAUG   =  446.014                                                                                
   DEXC   =    0.000                                                                                
   RMAX   =    2.563    core radius for proj-oper                                                   
   RAUG   =    1.300    factor for augmentation sphere                                              
   RDEP   =    2.641    radius for radial grids                                                     
   RDEPT  =    2.031    core radius for aug-charge                                                  
                                                                                                    
   Atomic configuration                                                                             
   11 entries                                                                                       
     n  l   j            E        occ.                                                              
     1  0  0.50    -19819.0341   2.0000                                                             
     2  0  0.50     -2799.0127   2.0000                                                             
     2  1  1.50     -2502.0276   6.0000                                                             
     3  0  0.50      -476.4449   2.0000                                                             
     3  1  1.50      -379.1496   6.0000                                                             
     3  2  2.50      -220.9367  10.0000                                                             
     4  0  0.50       -64.3378   2.0000                                                             
     5  0  0.50        -4.0862   1.0000                                                             
     4  1  1.50       -38.4773   6.0000                                                             
     4  2  2.50        -3.7535   5.0000                                                             
     4  3  2.50        -1.3606   0.0000                                                             
   Description                                                                                      
     l       E           TYP  RCUT    TYP  RCUT                                                     
     0    -64.3377829     23  2.100                                                                 
     0     -4.0861640     23  2.400                                                                 
     1    -38.4772993     23  2.100                                                                 
     1     13.6058260     23  2.100                                                                 
     2     -3.7534941     23  2.400                                                                 
     2     -5.1140767     23  2.400                                                                 
     3     -4.0817478     23  2.500                                                                 
  local pseudopotential read in
  partial core-charges read in
  partial kinetic energy density read in
  atomic valenz-charges read in
  non local Contribution for L=           0  read in
    real space projection operators read in
  non local Contribution for L=           0  read in
    real space projection operators read in
  non local Contribution for L=           1  read in
    real space projection operators read in
  non local Contribution for L=           1  read in
    real space projection operators read in
  non local Contribution for L=           2  read in
    real space projection operators read in
  non local Contribution for L=           2  read in
    real space projection operators read in
    PAW grid and wavefunctions read in
 
   number of l-projection  operators is LMAX  =           6
   number of lm-projection operators is LMMAX =          18
 
 POTCAR:    PAW_PBE Si 05Jan2001                  
   VRHFIN =Si: s2p2                                                                                 
   LEXCH  = PE                                                                                      
   EATOM  =   103.0669 eV,    7.5752 Ry                                                             
                                                                                                    
   TITEL  = PAW_PBE Si 05Jan2001                                                                    
   LULTRA =        F    use ultrasoft PP ?                                                          
   IUNSCR =        1    unscreen: 0-lin 1-nonlin 2-no                                               
   RPACOR =    1.500    partial core radius                                                         
   POMASS =   28.085; ZVAL   =    4.000    mass and valenz                                          
   RCORE  =    1.900    outmost cutoff radius                                                       
   RWIGS  =    2.480; RWIGS  =    1.312    wigner-seitz radius (au A)                               
   ENMAX  =  245.345; ENMIN  =  184.009 eV                                                          
   ICORE  =        2    local potential                                                             
   LCOR   =        T    correct aug charges                                                         
   LPAW   =        T    paw PP                                                                      
   EAUG   =  322.069                                                                                
   DEXC   =    0.000                                                                                
   RMAX   =    1.950    core radius for proj-oper                                                   
   RAUG   =    1.300    factor for augmentation sphere                                              
   RDEP   =    1.993    radius for radial grids                                                     
   RDEPT  =    1.837    core radius for aug-charge                                                  
                                                                                                    
   Atomic configuration                                                                             
    6 entries                                                                                       
     n  l   j            E        occ.                                                              
     1  0  0.50     -1785.8828   2.0000                                                             
     2  0  0.50      -139.4969   2.0000                                                             
     2  1  1.50       -95.5546   6.0000                                                             
     3  0  0.50       -10.8127   2.0000                                                             
     3  1  0.50        -4.0811   2.0000                                                             
     3  2  1.50        -4.0817   0.0000                                                             
   Description                                                                                      
     l       E           TYP  RCUT    TYP  RCUT                                                     
     0    -10.8127223     23  1.900                                                                 
     0     -7.6451159     23  1.900                                                                 
     1     -4.0811372     23  1.900                                                                 
     1      2.4879257     23  1.900                                                                 
     2     -4.0817478      7  1.900                                                                 
  local pseudopotential read in
  partial core-charges read in
  partial kinetic energy density read in
  atomic valenz-charges read in
  non local Contribution for L=           0  read in
    real space projection operators read in
  non local Contribution for L=           0  read in
    real space projection operators read in
  non local Contribution for L=           1  read in
    real space projection operators read in
  non local Contribution for L=           1  read in
    real space projection operators read in
    PAW grid and wavefunctions read in
 
   number of l-projection  operators is LMAX  =           4
   number of lm-projection operators is LMMAX =           8
 
  PAW_PBE B 06Sep2000                   :
 energy of atom  1       EATOM=  -71.1703
 kinetic energy error for atom=    0.0007 (will be added to EATOM!!)
  PAW_PBE Mo_sv 02Feb2006               :
 energy of atom  2       EATOM=-1862.2866
 kinetic energy error for atom=    0.0041 (will be added to EATOM!!)
  PAW_PBE Si 05Jan2001                  :
 energy of atom  3       EATOM= -103.0669
 kinetic energy error for atom=    0.0003 (will be added to EATOM!!)
 
 
 POSCAR: EA126
  positions in direct lattice
  No initial velocities read in

 METAGGA = R2SCA    LMAXTAU =  6    LMIXTAU =  F

 exchange correlation table for  LEXCH =        8
   RHO(1)=    0.500       N(1)  =     2000
   RHO(2)=  100.500       N(2)  =     4000
 


--------------------------------------------------------------------------------------------------------


 ion  position               nearest neighbor table
   1  0.250  0.250  0.000-   5 2.34   8 2.34   3 2.34   7 2.34
   2  0.750  0.750  0.000-   5 2.34   8 2.34   7 2.34   3 2.34
   3  0.500  0.500  0.500-  11 2.24  12 2.24   2 2.34   1 2.34   6 3.24   4 3.24   4 3.24   6 3.24
                             8 3.32   8 3.32   5 3.32   5 3.32
   4  0.500  0.000  0.500-  11 2.27  12 2.27  10 2.42   9 2.42   5 3.24   5 3.24   3 3.24   7 3.24
                             3 3.24   7 3.24   8 3.24   8 3.24
   5  0.500  0.000  0.000-   9 2.24  10 2.24   1 2.34   2 2.34   4 3.24   4 3.24   6 3.24   6 3.24
                             7 3.32   7 3.32   3 3.32   3 3.32
   6  0.000  0.500  0.500-   9 2.27  10 2.27  11 2.42  12 2.42   8 3.24   8 3.24   3 3.24   7 3.24
                             7 3.24   3 3.24   5 3.24   5 3.24
   7  0.000  0.000  0.500-  11 2.24  12 2.24   1 2.34   2 2.34   6 3.24   4 3.24   6 3.24   4 3.24
                             5 3.32   5 3.32   8 3.32   8 3.32
   8  0.000  0.500  0.000-   9 2.24  10 2.24   1 2.34   2 2.34   6 3.24   6 3.24   4 3.24   4 3.24
                             3 3.32   3 3.32   7 3.32   7 3.32
   9  0.242  0.742  0.984-   8 2.24   5 2.24   6 2.27   4 2.42
  10  0.758  0.258  0.016-   8 2.24   5 2.24   6 2.27   4 2.42
  11  0.742  0.758  0.500-   3 2.24   7 2.24   4 2.27   6 2.42
  12  0.258  0.242  0.500-   3 2.24   7 2.24   4 2.27   6 2.42
 
  LATTYP: Found a body centered tetragonal cell.
 ALAT       =     6.6316619737
 C/A-ratio  =     1.3519333588
  
  Lattice vectors:
  
 A1 = (   5.6999436861,   0.0000000000,  -3.0976513318)
 A2 = (  -2.0157334705,   5.3316204479,  -3.0976513318)
 A3 = (   0.0000000000,   0.0000000000,   6.4872800000)


Analysis of symmetry for initial positions (statically):
=====================================================================
 Subroutine PRICEL returns:
 Original cell was already a primitive cell.
 

 Routine SETGRP: Setting up the symmetry group for a 
 body centered tetragonal supercell.


 Subroutine GETGRP returns: Found 16 space group operations
 (whereof  8 operations were pure point group operations)
 out of a pool of 16 trial point group operations.


The static configuration has the point symmetry C_4h.
 The point group associated with its full space group is D_4h.


Analysis of symmetry for dynamics (positions and initial velocities):
=====================================================================
 Subroutine PRICEL returns:
 Original cell was already a primitive cell.
 

 Routine SETGRP: Setting up the symmetry group for a 
 body centered tetragonal supercell.


 Subroutine GETGRP returns: Found 16 space group operations
 (whereof  8 operations were pure point group operations)
 out of a pool of 16 trial point group operations.


The dynamic configuration has the point symmetry C_4h.
 The point group associated with its full space group is D_4h.


 Subroutine INISYM returns: Found 16 space group operations
 (whereof  8 operations are pure point group operations),
 and found     1 'primitive' translations


----------------------------------------------------------------------------------------

                                     Primitive cell                                     

  volume of cell :     197.1480

  direct lattice vectors                    reciprocal lattice vectors
     5.699943686  0.000000000 -3.097651332     0.175440330  0.066328980  0.000000000
    -2.015733470  5.331620448 -3.097651332     0.000000000  0.187560238  0.000000000
     0.000000000  0.000000000  6.487280000     0.083772085  0.121231128  0.154147809

  length of vectors
     6.487280000  6.487280000  6.487280000     0.187560238  0.187560238  0.213251719

  position of ions in fractional coordinates (direct lattice)
     0.250000000  0.250000000  1.000000000
     0.750000000  0.750000000  1.000000000
     0.500000000  0.500000000  0.500000000
     0.500000000  0.000000000  0.500000000
     0.500000000  0.000000000  1.000000000
     1.000000000  0.500000000  0.500000000
     0.000000000  0.000000000  0.500000000
     1.000000000  0.500000000  1.000000000
     0.242090000  0.742090000  0.984180000
     0.757910000  0.257910000  0.015820000
     0.742090000  0.757910000  0.500000000
     0.257910000  0.242090000  0.500000000

  ion indices of the primitive-cell ions
   primitive index   ion index
                 1           1
                 2           2
                 3           3
                 4           4
                 5           5
                 6           6
                 7           7
                 8           8
                 9           9
                10          10
                11          11
                12          12

----------------------------------------------------------------------------------------

 
 
 KPOINTS: EA                                      

Automatic generation of k-mesh.
 Grid dimensions read from file:
 generate k-points for:    7    7    8

 Generating k-lattice:

  Cartesian coordinates                     Fractional coordinates (reciprocal lattice)
     0.025062904  0.009475569  0.000000000     0.142857143  0.000000000  0.000000000
     0.000000000  0.026794320  0.000000000     0.000000000  0.142857143  0.000000000
     0.010471511  0.015153891  0.019268476    -0.000000000 -0.000000000  0.125000000

  Length of vectors
     0.026794320  0.026794320  0.026656465

  Shift w.r.t. Gamma in fractional coordinates (k-lattice)
     0.000000000  0.000000000  0.000000000

 -----------------------------------------------------------------------------
|                                                                             |
|           W    W    AA    RRRRR   N    N  II  N    N   GGGG   !!!           |
|           W    W   A  A   R    R  NN   N  II  NN   N  G    G  !!!           |
|           W    W  A    A  R    R  N N  N  II  N N  N  G       !!!           |
|           W WW W  AAAAAA  RRRRR   N  N N  II  N  N N  G  GGG   !            |
|           WW  WW  A    A  R   R   N   NN  II  N   NN  G    G                |
|           W    W  A    A  R    R  N    N  II  N    N   GGGG   !!!           |
|                                                                             |
|     Your reciprocal lattice and k-lattice belong to different lattice       |
|     classes:                                                                |
|                                                                             |
|        The reciprocal lattice is body-centered tetragonal,                  |
|        whereas your k-lattice is base-centered monoclinic.                  |
|                                                                             |
|     Results are often still useful ...                                      |
|                                                                             |
 -----------------------------------------------------------------------------

 WARNING: IBZKPT: internal override: KBLOWUP is changed to .FALSE.
      ... skipping the blow-up phase ...

 
 Subroutine IBZKPT returns following result:
 ===========================================
 
 Found    116 irreducible k-points:
 
 Following reciprocal coordinates:
            Coordinates               Weight
  0.000000  0.000000  0.000000      1.000000
  0.142857 -0.000000  0.000000      4.000000
  0.285714  0.000000  0.000000      4.000000
  0.428571 -0.000000  0.000000      4.000000
  0.142857  0.142857  0.000000      2.000000
  0.285714  0.142857  0.000000      4.000000
  0.428571  0.142857  0.000000      4.000000
 -0.428571  0.142857  0.000000      4.000000
 -0.285714  0.142857  0.000000      4.000000
 -0.142857  0.142857  0.000000      2.000000
  0.285714  0.285714  0.000000      2.000000
  0.428571  0.285714  0.000000      4.000000
 -0.428571  0.285714  0.000000      4.000000
 -0.285714  0.285714  0.000000      2.000000
  0.428571  0.428571  0.000000      2.000000
 -0.428571  0.428571  0.000000      2.000000
  0.000000 -0.000000  0.125000      2.000000
  0.142857 -0.000000  0.125000      4.000000
  0.285714  0.000000  0.125000      4.000000
  0.428571  0.000000  0.125000      4.000000
 -0.428571 -0.000000  0.125000      4.000000
 -0.285714  0.000000  0.125000      4.000000
 -0.142857  0.000000  0.125000      4.000000
  0.142857  0.142857  0.125000      2.000000
  0.285714  0.142857  0.125000      4.000000
  0.428571  0.142857  0.125000      4.000000
 -0.428571  0.142857  0.125000      4.000000
 -0.285714  0.142857  0.125000      4.000000
 -0.142857  0.142857  0.125000      4.000000
  0.285714  0.285714  0.125000      2.000000
  0.428571  0.285714  0.125000      4.000000
 -0.428571  0.285714  0.125000      4.000000
 -0.285714  0.285714  0.125000      4.000000
 -0.142857  0.285714  0.125000      4.000000
  0.428571  0.428571  0.125000      2.000000
 -0.428571  0.428571  0.125000      4.000000
 -0.285714  0.428571  0.125000      4.000000
 -0.142857  0.428571  0.125000      4.000000
 -0.428571 -0.428571  0.125000      2.000000
 -0.285714 -0.428571  0.125000      4.000000
 -0.142857 -0.428571  0.125000      4.000000
 -0.285714 -0.285714  0.125000      2.000000
 -0.142857 -0.285714  0.125000      4.000000
 -0.142857 -0.142857  0.125000      2.000000
  0.000000 -0.000000  0.250000      2.000000
  0.142857 -0.000000  0.250000      4.000000
  0.285714 -0.000000  0.250000      4.000000
  0.428571  0.000000  0.250000      4.000000
 -0.428571  0.000000  0.250000      4.000000
 -0.285714  0.000000  0.250000      4.000000
 -0.142857 -0.000000  0.250000      4.000000
  0.142857  0.142857  0.250000      2.000000
  0.285714  0.142857  0.250000      4.000000
  0.428571  0.142857  0.250000      4.000000
 -0.428571  0.142857  0.250000      4.000000
 -0.285714  0.142857  0.250000      4.000000
 -0.142857  0.142857  0.250000      4.000000
  0.285714  0.285714  0.250000      2.000000
  0.428571  0.285714  0.250000      4.000000
 -0.428571  0.285714  0.250000      4.000000
 -0.285714  0.285714  0.250000      4.000000
 -0.142857  0.285714  0.250000      4.000000
  0.428571  0.428571  0.250000      2.000000
 -0.428571  0.428571  0.250000      4.000000
 -0.285714  0.428571  0.250000      4.000000
 -0.142857  0.428571  0.250000      4.000000
 -0.428571 -0.428571  0.250000      2.000000
 -0.285714 -0.428571  0.250000      4.000000
 -0.142857 -0.428571  0.250000      4.000000
 -0.285714 -0.285714  0.250000      2.000000
 -0.142857 -0.285714  0.250000      4.000000
 -0.142857 -0.142857  0.250000      2.000000
  0.000000  0.000000  0.375000      2.000000
  0.142857  0.000000  0.375000      4.000000
  0.285714  0.000000  0.375000      4.000000
  0.428571  0.000000  0.375000      4.000000
 -0.428571  0.000000  0.375000      4.000000
 -0.285714  0.000000  0.375000      4.000000
 -0.142857  0.000000  0.375000      4.000000
  0.142857  0.142857  0.375000      2.000000
  0.285714  0.142857  0.375000      4.000000
  0.428571  0.142857  0.375000      4.000000
 -0.428571  0.142857  0.375000      4.000000
 -0.285714  0.142857  0.375000      4.000000
 -0.142857  0.142857  0.375000      4.000000
  0.285714  0.285714  0.375000      2.000000
  0.428571  0.285714  0.375000      4.000000
 -0.428571  0.285714  0.375000      4.000000
 -0.285714  0.285714  0.375000      4.000000
 -0.142857  0.285714  0.375000      4.000000
  0.428571  0.428571  0.375000      2.000000
 -0.428571  0.428571  0.375000      4.000000
 -0.285714  0.428571  0.375000      4.000000
 -0.142857  0.428571  0.375000      4.000000
 -0.428571 -0.428571  0.375000      2.000000
 -0.285714 -0.428571  0.375000      4.000000
 -0.142857 -0.428571  0.375000      4.000000
 -0.285714 -0.285714  0.375000      2.000000
 -0.142857 -0.285714  0.375000      4.000000
 -0.142857 -0.142857  0.375000      2.000000
  0.000000 -0.000000  0.500000      1.000000
  0.142857  0.000000  0.500000      4.000000
  0.285714 -0.000000  0.500000      4.000000
  0.428571 -0.000000  0.500000      4.000000
  0.142857  0.142857  0.500000      2.000000
  0.285714  0.142857  0.500000      4.000000
  0.428571  0.142857  0.500000      4.000000
 -0.428571  0.142857  0.500000      4.000000
 -0.285714  0.142857  0.500000      4.000000
 -0.142857  0.142857  0.500000      2.000000
  0.285714  0.285714  0.500000      2.000000
  0.428571  0.285714  0.500000      4.000000
 -0.428571  0.285714  0.500000      4.000000
 -0.285714  0.285714  0.500000      2.000000
  0.428571  0.428571  0.500000      2.000000
 -0.428571  0.428571  0.500000      2.000000
 
 Following cartesian coordinates:
            Coordinates               Weight
  0.000000  0.000000  0.000000      1.000000
  0.025063  0.009476  0.000000      4.000000
  0.050126  0.018951  0.000000      4.000000
  0.075189  0.028427  0.000000      4.000000
  0.025063  0.036270  0.000000      2.000000
  0.050126  0.045745  0.000000      4.000000
  0.075189  0.055221  0.000000      4.000000
 -0.075189 -0.001632  0.000000      4.000000
 -0.050126  0.007843  0.000000      4.000000
 -0.025063  0.017319  0.000000      2.000000
  0.050126  0.072540  0.000000      2.000000
  0.075189  0.082015  0.000000      4.000000
 -0.075189  0.025162  0.000000      4.000000
 -0.050126  0.034638  0.000000      2.000000
  0.075189  0.108810  0.000000      2.000000
 -0.075189  0.051956  0.000000      2.000000
  0.010472  0.015154  0.019268      2.000000
  0.035534  0.024629  0.019268      4.000000
  0.060597  0.034105  0.019268      4.000000
  0.085660  0.043581  0.019268      4.000000
 -0.064717 -0.013273  0.019268      4.000000
 -0.039654 -0.003797  0.019268      4.000000
 -0.014591  0.005678  0.019268      4.000000
  0.035534  0.051424  0.019268      2.000000
  0.060597  0.060899  0.019268      4.000000
  0.085660  0.070375  0.019268      4.000000
 -0.064717  0.013522  0.019268      4.000000
 -0.039654  0.022997  0.019268      4.000000
 -0.014591  0.032473  0.019268      4.000000
  0.060597  0.087694  0.019268      2.000000
  0.085660  0.097169  0.019268      4.000000
 -0.064717  0.040316  0.019268      4.000000
 -0.039654  0.049791  0.019268      4.000000
 -0.014591  0.059267  0.019268      4.000000
  0.085660  0.123964  0.019268      2.000000
 -0.064717  0.067110  0.019268      4.000000
 -0.039654  0.076586  0.019268      4.000000
 -0.014591  0.086061  0.019268      4.000000
 -0.064717 -0.093656  0.019268      2.000000
 -0.039654 -0.084180  0.019268      4.000000
 -0.014591 -0.074705  0.019268      4.000000
 -0.039654 -0.057386  0.019268      2.000000
 -0.014591 -0.047910  0.019268      4.000000
 -0.014591 -0.021116  0.019268      2.000000
  0.020943  0.030308  0.038537      2.000000
  0.046006  0.039783  0.038537      4.000000
  0.071069  0.049259  0.038537      4.000000
  0.096132  0.058734  0.038537      4.000000
 -0.054246  0.001881  0.038537      4.000000
 -0.029183  0.011357  0.038537      4.000000
 -0.004120  0.020832  0.038537      4.000000
  0.046006  0.066578  0.038537      2.000000
  0.071069  0.076053  0.038537      4.000000
  0.096132  0.085529  0.038537      4.000000
 -0.054246  0.028675  0.038537      4.000000
 -0.029183  0.038151  0.038537      4.000000
 -0.004120  0.047627  0.038537      4.000000
  0.071069  0.102848  0.038537      2.000000
  0.096132  0.112323  0.038537      4.000000
 -0.054246  0.055470  0.038537      4.000000
 -0.029183  0.064945  0.038537      4.000000
 -0.004120  0.074421  0.038537      4.000000
  0.096132  0.139117  0.038537      2.000000
 -0.054246  0.082264  0.038537      4.000000
 -0.029183  0.091740  0.038537      4.000000
 -0.004120  0.101215  0.038537      4.000000
 -0.054246 -0.078502  0.038537      2.000000
 -0.029183 -0.069026  0.038537      4.000000
 -0.004120 -0.059551  0.038537      4.000000
 -0.029183 -0.042232  0.038537      2.000000
 -0.004120 -0.032756  0.038537      4.000000
 -0.004120 -0.005962  0.038537      2.000000
  0.031415  0.045462  0.057805      2.000000
  0.056477  0.054937  0.057805      4.000000
  0.081540  0.064413  0.057805      4.000000
  0.106603  0.073888  0.057805      4.000000
 -0.043774  0.017035  0.057805      4.000000
 -0.018711  0.026511  0.057805      4.000000
  0.006352  0.035986  0.057805      4.000000
  0.056477  0.081732  0.057805      2.000000
  0.081540  0.091207  0.057805      4.000000
  0.106603  0.100683  0.057805      4.000000
 -0.043774  0.043829  0.057805      4.000000
 -0.018711  0.053305  0.057805      4.000000
  0.006352  0.062780  0.057805      4.000000
  0.081540  0.118001  0.057805      2.000000
  0.106603  0.127477  0.057805      4.000000
 -0.043774  0.070624  0.057805      4.000000
 -0.018711  0.080099  0.057805      4.000000
  0.006352  0.089575  0.057805      4.000000
  0.106603  0.154271  0.057805      2.000000
 -0.043774  0.097418  0.057805      4.000000
 -0.018711  0.106893  0.057805      4.000000
  0.006352  0.116369  0.057805      4.000000
 -0.043774 -0.063348  0.057805      2.000000
 -0.018711 -0.053872  0.057805      4.000000
  0.006352 -0.044397  0.057805      4.000000
 -0.018711 -0.027078  0.057805      2.000000
  0.006352 -0.017603  0.057805      4.000000
  0.006352  0.009192  0.057805      2.000000
  0.041886  0.060616  0.077074      1.000000
  0.066949  0.070091  0.077074      4.000000
  0.092012  0.079567  0.077074      4.000000
  0.117075  0.089042  0.077074      4.000000
  0.066949  0.096885  0.077074      2.000000
  0.092012  0.106361  0.077074      4.000000
  0.117075  0.115837  0.077074      4.000000
 -0.033303  0.058983  0.077074      4.000000
 -0.008240  0.068459  0.077074      4.000000
  0.016823  0.077934  0.077074      2.000000
  0.092012  0.133155  0.077074      2.000000
  0.117075  0.142631  0.077074      4.000000
 -0.033303  0.085777  0.077074      4.000000
 -0.008240  0.095253  0.077074      2.000000
  0.117075  0.169425  0.077074      2.000000
 -0.033303  0.112572  0.077074      2.000000
 


--------------------------------------------------------------------------------------------------------




 Dimension of arrays:
   k-points           NKPTS =    116   k-points in BZ     NKDIM =    116   number of bands    NBANDS=     66
   number of dos      NEDOS =    301   number of ions     NIONS =     12
   non local maximal  LDIM  =      6   non local SUM 2l+1 LMDIM =     18
   total plane-waves  NPLWV = 157464
   max r-space proj   IRMAX =      1   max aug-charges    IRDMAX= 279598
   dimension x,y,z NGX =    54 NGY =   54 NGZ =   54
   dimension x,y,z NGXF=   108 NGYF=  108 NGZF=  108
   support grid    NGXF=   216 NGYF=  216 NGZF=  216
   ions per type =               2   6   4
   NGX,Y,Z   is equivalent  to a cutoff of  13.84, 13.84, 13.84 a.u.
   NGXF,Y,Z  is equivalent  to a cutoff of  27.68, 27.68, 27.68 a.u.

 SYSTEM =  routine with relax: pwdword             
 POSCAR =  EA126                                   

 Startparameter for this run:
   NWRITE =      2    write-flag & timer
   PREC   = acc       normal or accurate (medium, high low for compatibility)
   ISTART =      0    job   : 0-new  1-cont  2-samecut
   ICHARG =      2    charge: 1-file 2-atom 10-const
   ISPIN  =      1    spin polarized calculation?
   LNONCOLLINEAR =      F non collinear calculations
   LSORBIT =      F    spin-orbit coupling
   INIWAV =      1    electr: 0-lowe 1-rand  2-diag
   LASPH  =      T    aspherical Exc in radial PAW
   METAGGA=      F    non-selfconsistent MetaGGA calc.

 Electronic Relaxation 1
   ENCUT  =  600.0 eV  44.10 Ry    6.64 a.u.  12.96 12.96 12.96*2*pi/ulx,y,z
   ENINI  =  600.0     initial cutoff
   ENAUG  =  535.5 eV  augmentation charge cutoff
   NELM   =    100;   NELMIN=  6; NELMDL= -5     # of ELM steps 
   EDIFF  = 0.1E-08   stopping-criterion for ELM
   LREAL  =      F    real-space projection
   NLSPLINE    = F    spline interpolate recip. space projectors
   LCOMPAT=      F    compatible to vasp.4.4
   GGA_COMPAT  = T    GGA compatible to vasp.4.4-vasp.4.6
   LMAXPAW     = -100 max onsite density
   LMAXMIX     =    2 max onsite mixed and CHGCAR
   VOSKOWN=      0    Vosko Wilk Nusair interpolation
   ROPT   =    0.00000   0.00000   0.00000
 Ionic relaxation
   EDIFFG = 0.1E-07   stopping-criterion for IOM
   NSW    =      0    number of steps for IOM
   NBLOCK =      1;   KBLOCK =      1    inner block; outer block 
   IBRION =     -1    ionic relax: 0-MD 1-quasi-New 2-CG
   NFREE  =      0    steps in history (QN), initial steepest desc. (CG)
   ISIF   =     -1    stress and relaxation
   IWAVPR =     10    prediction:  0-non 1-charg 2-wave 3-comb
   ISYM   =      2    0-nonsym 1-usesym 2-fastsym
   LCORR  =      T    Harris-Foulkes like correction to forces

   POTIM  = 0.5000    time-step for ionic-motion
   TEIN   =    0.0    initial temperature
   TEBEG  =    0.0;   TEEND  =   0.0 temperature during run
   SMASS  =  -3.00    Nose mass-parameter (am)
   estimated Nose-frequenzy (Omega)   =  0.10E-29 period in steps = 0.13E+47 mass=  -0.962E-27a.u.
   SCALEE = 1.0000    scale energy and forces
   NPACO  =    256;   APACO  = 16.0  distance and # of slots for P.C.
   PSTRESS=    0.0 pullay stress

  Mass of Ions in am
   POMASS =  10.81 95.94 28.09
  Ionic Valenz
   ZVAL   =   3.00 14.00  4.00
  Atomic Wigner-Seitz radii
   RWIGS  =  -1.00 -1.00 -1.00
  virtual crystal weights 
   VCA    =   1.00  1.00  1.00
   NELECT =     106.0000    total number of electrons
   NUPDOWN=      -1.0000    fix difference up-down

 DOS related values:
   EMIN   =  10.00;   EMAX   =-10.00  energy-range for DOS
   EFERMI =   0.00
   ISMEAR =     0;   SIGMA  =   0.02  broadening in eV -4-tet -1-fermi 0-gaus

 Electronic relaxation 2 (details)
   IALGO  =     58    algorithm
   LDIAG  =      T    sub-space diagonalisation (order eigenvalues)
   LSUBROT=      F    optimize rotation matrix (better conditioning)
   TURBO    =      0    0=normal 1=particle mesh
   IRESTART =      0    0=no restart 2=restart with 2 vectors
   NREBOOT  =      0    no. of reboots
   NMIN     =      0    reboot dimension
   EREF     =   0.00    reference energy to select bands
   IMIX   =      4    mixing-type and parameters
     AMIX     =   0.40;   BMIX     =  1.00
     AMIX_MAG =   1.60;   BMIX_MAG =  1.00
     AMIN     =   0.10
     WC   =   100.;   INIMIX=   1;  MIXPRE=   1;  MAXMIX= -45

 Intra band minimization:
   WEIMIN = 0.0000     energy-eigenvalue tresh-hold
   EBREAK =  0.38E-11  absolut break condition
   DEPER  =   0.30     relativ break condition  

   TIME   =   0.40     timestep for ELM

  volume/ion in A,a.u.               =      16.43       110.87
  Fermi-wavevector in a.u.,A,eV,Ry     =   1.331208  2.515619 24.111091  1.772115
  Thomas-Fermi vector in A             =   2.460237
 
 Write flags
   LWAVE        =      T    write WAVECAR
   LDOWNSAMPLE  =      F    k-point downsampling of WAVECAR
   LCHARG       =      T    write CHGCAR
   LVTOT        =      F    write LOCPOT, total local potential
   LVHAR        =      F    write LOCPOT, Hartree potential only
   LELF         =      F    write electronic localiz. function (ELF)
   LORBIT       =      0    0 simple, 1 ext, 2 COOP (PROOUT), +10 PAW based schemes


 Dipole corrections
   LMONO  =      F    monopole corrections only (constant potential shift)
   LDIPOL =      F    correct potential (dipole corrections)
   IDIPOL =      0    1-x, 2-y, 3-z, 4-all directions 
   EPSILON=  1.0000000 bulk dielectric constant

 Exchange correlation treatment:
   GGA     =    --    GGA type
   LEXCH   =     8    internal setting for exchange type
   VOSKOWN=      0    Vosko Wilk Nusair interpolation
   LHFCALC =     F    Hartree Fock is set to
   LHFONE  =     F    Hartree Fock one center treatment
   AEXX    =    0.0000 exact exchange contribution

 Linear response parameters
   LEPSILON=     F    determine dielectric tensor
   LRPA    =     F    only Hartree local field effects (RPA)
   LNABLA  =     F    use nabla operator in PAW spheres
   LVEL    =     F    velocity operator in full k-point grid
   LINTERFAST=   F  fast interpolation
   KINTER  =     0    interpolate to denser k-point grid
   CSHIFT  =0.1000    complex shift for real part using Kramers Kronig
   OMEGAMAX=  -1.0    maximum frequency
   DEG_THRESHOLD= 0.2000000E-02 threshold for treating states as degnerate
   RTIME   =   -0.100 relaxation time in fs
  (WPLASMAI=    0.000 imaginary part of plasma frequency in eV, 0.658/RTIME)
   DFIELD  = 0.0000000 0.0000000 0.0000000 field for delta impulse in time
 
 Orbital magnetization related:
   ORBITALMAG=     F  switch on orbital magnetization
   LCHIMAG   =     F  perturbation theory with respect to B field
   DQ        =  0.001000  dq finite difference perturbation B field
   LLRAUG    =     F  two centre corrections for induced B field



--------------------------------------------------------------------------------------------------------


 Static calculation
 charge density and potential will be updated during run
 non-spin polarized calculation
 Conjugate gradient for all bands (Freysoldt, et al. PRB 79, 241103 (2009))
 preconditioned conjugated gradient                                        
 perform sub-space diagonalisation
    before iterative eigenvector-optimisation
 modified Broyden-mixing scheme, WC =      100.0
 initial mixing is a Kerker type mixing with AMIX =  0.4000 and BMIX =      1.0000
 Hartree-type preconditioning will be used
 using additional bands           13
 reciprocal scheme for non local part
 use partial core corrections
 no Harris-corrections to forces 
 use gradient corrections 
 use of overlap-Matrix (Vanderbilt PP)
 Gauss-broadening in eV      SIGMA  =   0.02


--------------------------------------------------------------------------------------------------------


  energy-cutoff  :      600.00
  volume of cell :      197.15
      direct lattice vectors                 reciprocal lattice vectors
     5.699943686  0.000000000 -3.097651332     0.175440330  0.066328980  0.000000000
    -2.015733470  5.331620448 -3.097651332     0.000000000  0.187560238  0.000000000
     0.000000000  0.000000000  6.487280000     0.083772085  0.121231128  0.154147809

  length of vectors
     6.487280000  6.487280000  6.487280000     0.187560238  0.187560238  0.213251719


 
 k-points in units of 2pi/SCALE and weight: EA                                      
   0.00000000  0.00000000  0.00000000       0.003
   0.02506290  0.00947557  0.00000000       0.010
   0.05012581  0.01895114  0.00000000       0.010
   0.07518871  0.02842671  0.00000000       0.010
   0.02506290  0.03626989  0.00000000       0.005
   0.05012581  0.04574546  0.00000000       0.010
   0.07518871  0.05522103  0.00000000       0.010
  -0.07518871 -0.00163239  0.00000000       0.010
  -0.05012581  0.00784318  0.00000000       0.010
  -0.02506290  0.01731875  0.00000000       0.005
   0.05012581  0.07253978  0.00000000       0.005
   0.07518871  0.08201535  0.00000000       0.010
  -0.07518871  0.02516193  0.00000000       0.010
  -0.05012581  0.03463750  0.00000000       0.005
   0.07518871  0.10880966  0.00000000       0.005
  -0.07518871  0.05195625  0.00000000       0.005
   0.01047151  0.01515389  0.01926848       0.005
   0.03553441  0.02462946  0.01926848       0.010
   0.06059732  0.03410503  0.01926848       0.010
   0.08566022  0.04358060  0.01926848       0.010
  -0.06471720 -0.01327281  0.01926848       0.010
  -0.03965430 -0.00379725  0.01926848       0.010
  -0.01459139  0.00567832  0.01926848       0.010
   0.03553441  0.05142378  0.01926848       0.005
   0.06059732  0.06089935  0.01926848       0.010
   0.08566022  0.07037492  0.01926848       0.010
  -0.06471720  0.01352151  0.01926848       0.010
  -0.03965430  0.02299707  0.01926848       0.010
  -0.01459139  0.03247264  0.01926848       0.010
   0.06059732  0.08769367  0.01926848       0.005
   0.08566022  0.09716924  0.01926848       0.010
  -0.06471720  0.04031582  0.01926848       0.010
  -0.03965430  0.04979139  0.01926848       0.010
  -0.01459139  0.05926696  0.01926848       0.010
   0.08566022  0.12396356  0.01926848       0.005
  -0.06471720  0.06711014  0.01926848       0.010
  -0.03965430  0.07658571  0.01926848       0.010
  -0.01459139  0.08606128  0.01926848       0.010
  -0.06471720 -0.09365577  0.01926848       0.005
  -0.03965430 -0.08418021  0.01926848       0.010
  -0.01459139 -0.07470464  0.01926848       0.010
  -0.03965430 -0.05738589  0.01926848       0.005
  -0.01459139 -0.04791032  0.01926848       0.010
  -0.01459139 -0.02111600  0.01926848       0.005
   0.02094302  0.03030778  0.03853695       0.005
   0.04600593  0.03978335  0.03853695       0.010
   0.07106883  0.04925892  0.03853695       0.010
   0.09613173  0.05873449  0.03853695       0.010
  -0.05424569  0.00188108  0.03853695       0.010
  -0.02918279  0.01135664  0.03853695       0.010
  -0.00411988  0.02083221  0.03853695       0.010
   0.04600593  0.06657767  0.03853695       0.005
   0.07106883  0.07605324  0.03853695       0.010
   0.09613173  0.08552881  0.03853695       0.010
  -0.05424569  0.02867540  0.03853695       0.010
  -0.02918279  0.03815096  0.03853695       0.010
  -0.00411988  0.04762653  0.03853695       0.010
   0.07106883  0.10284756  0.03853695       0.005
   0.09613173  0.11232313  0.03853695       0.010
  -0.05424569  0.05546972  0.03853695       0.010
  -0.02918279  0.06494528  0.03853695       0.010
  -0.00411988  0.07442085  0.03853695       0.010
   0.09613173  0.13911745  0.03853695       0.005
  -0.05424569  0.08226404  0.03853695       0.010
  -0.02918279  0.09173960  0.03853695       0.010
  -0.00411988  0.10121517  0.03853695       0.010
  -0.05424569 -0.07850188  0.03853695       0.005
  -0.02918279 -0.06902631  0.03853695       0.010
  -0.00411988 -0.05955075  0.03853695       0.010
  -0.02918279 -0.04223199  0.03853695       0.005
  -0.00411988 -0.03275643  0.03853695       0.010
  -0.00411988 -0.00596211  0.03853695       0.005
   0.03141453  0.04546167  0.05780543       0.005
   0.05647744  0.05493724  0.05780543       0.010
   0.08154034  0.06441281  0.05780543       0.010
   0.10660324  0.07388838  0.05780543       0.010
  -0.04377418  0.01703497  0.05780543       0.010
  -0.01871128  0.02651054  0.05780543       0.010
   0.00635163  0.03598610  0.05780543       0.010
   0.05647744  0.08173156  0.05780543       0.005
   0.08154034  0.09120713  0.05780543       0.010
   0.10660324  0.10068270  0.05780543       0.010
  -0.04377418  0.04382929  0.05780543       0.010
  -0.01871128  0.05330486  0.05780543       0.010
   0.00635163  0.06278042  0.05780543       0.010
   0.08154034  0.11800145  0.05780543       0.005
   0.10660324  0.12747702  0.05780543       0.010
  -0.04377418  0.07062361  0.05780543       0.010
  -0.01871128  0.08009918  0.05780543       0.010
   0.00635163  0.08957474  0.05780543       0.010
   0.10660324  0.15427134  0.05780543       0.005
  -0.04377418  0.09741793  0.05780543       0.010
  -0.01871128  0.10689350  0.05780543       0.010
   0.00635163  0.11636906  0.05780543       0.010
  -0.04377418 -0.06334799  0.05780543       0.005
  -0.01871128 -0.05387242  0.05780543       0.010
   0.00635163 -0.04439685  0.05780543       0.010
  -0.01871128 -0.02707810  0.05780543       0.005
   0.00635163 -0.01760253  0.05780543       0.010
   0.00635163  0.00919178  0.05780543       0.005
   0.04188604  0.06061556  0.07707390       0.003
   0.06694895  0.07009113  0.07707390       0.010
   0.09201185  0.07956670  0.07707390       0.010
   0.11707476  0.08904227  0.07707390       0.010
   0.06694895  0.09688545  0.07707390       0.005
   0.09201185  0.10636102  0.07707390       0.010
   0.11707476  0.11583659  0.07707390       0.010
  -0.03330267  0.05898318  0.07707390       0.010
  -0.00823977  0.06845875  0.07707390       0.010
   0.01682314  0.07793432  0.07707390       0.005
   0.09201185  0.13315534  0.07707390       0.005
   0.11707476  0.14263091  0.07707390       0.010
  -0.03330267  0.08577750  0.07707390       0.010
  -0.00823977  0.09525307  0.07707390       0.005
   0.11707476  0.16942523  0.07707390       0.005
  -0.03330267  0.11257182  0.07707390       0.005
 
 k-points in reciprocal lattice and weights: EA                                      
   0.00000000  0.00000000  0.00000000       0.003
   0.14285714 -0.00000000  0.00000000       0.010
   0.28571429  0.00000000  0.00000000       0.010
   0.42857143 -0.00000000  0.00000000       0.010
   0.14285714  0.14285714  0.00000000       0.005
   0.28571429  0.14285714  0.00000000       0.010
   0.42857143  0.14285714  0.00000000       0.010
  -0.42857143  0.14285714  0.00000000       0.010
  -0.28571429  0.14285714  0.00000000       0.010
  -0.14285714  0.14285714  0.00000000       0.005
   0.28571429  0.28571429  0.00000000       0.005
   0.42857143  0.28571429  0.00000000       0.010
  -0.42857143  0.28571429  0.00000000       0.010
  -0.28571429  0.28571429  0.00000000       0.005
   0.42857143  0.42857143  0.00000000       0.005
  -0.42857143  0.42857143  0.00000000       0.005
   0.00000000 -0.00000000  0.12500000       0.005
   0.14285714 -0.00000000  0.12500000       0.010
   0.28571429  0.00000000  0.12500000       0.010
   0.42857143  0.00000000  0.12500000       0.010
  -0.42857143 -0.00000000  0.12500000       0.010
  -0.28571429  0.00000000  0.12500000       0.010
  -0.14285714  0.00000000  0.12500000       0.010
   0.14285714  0.14285714  0.12500000       0.005
   0.28571429  0.14285714  0.12500000       0.010
   0.42857143  0.14285714  0.12500000       0.010
  -0.42857143  0.14285714  0.12500000       0.010
  -0.28571429  0.14285714  0.12500000       0.010
  -0.14285714  0.14285714  0.12500000       0.010
   0.28571429  0.28571429  0.12500000       0.005
   0.42857143  0.28571429  0.12500000       0.010
  -0.42857143  0.28571429  0.12500000       0.010
  -0.28571429  0.28571429  0.12500000       0.010
  -0.14285714  0.28571429  0.12500000       0.010
   0.42857143  0.42857143  0.12500000       0.005
  -0.42857143  0.42857143  0.12500000       0.010
  -0.28571429  0.42857143  0.12500000       0.010
  -0.14285714  0.42857143  0.12500000       0.010
  -0.42857143 -0.42857143  0.12500000       0.005
  -0.28571429 -0.42857143  0.12500000       0.010
  -0.14285714 -0.42857143  0.12500000       0.010
  -0.28571429 -0.28571429  0.12500000       0.005
  -0.14285714 -0.28571429  0.12500000       0.010
  -0.14285714 -0.14285714  0.12500000       0.005
   0.00000000 -0.00000000  0.25000000       0.005
   0.14285714 -0.00000000  0.25000000       0.010
   0.28571429 -0.00000000  0.25000000       0.010
   0.42857143  0.00000000  0.25000000       0.010
  -0.42857143  0.00000000  0.25000000       0.010
  -0.28571429  0.00000000  0.25000000       0.010
  -0.14285714 -0.00000000  0.25000000       0.010
   0.14285714  0.14285714  0.25000000       0.005
   0.28571429  0.14285714  0.25000000       0.010
   0.42857143  0.14285714  0.25000000       0.010
  -0.42857143  0.14285714  0.25000000       0.010
  -0.28571429  0.14285714  0.25000000       0.010
  -0.14285714  0.14285714  0.25000000       0.010
   0.28571429  0.28571429  0.25000000       0.005
   0.42857143  0.28571429  0.25000000       0.010
  -0.42857143  0.28571429  0.25000000       0.010
  -0.28571429  0.28571429  0.25000000       0.010
  -0.14285714  0.28571429  0.25000000       0.010
   0.42857143  0.42857143  0.25000000       0.005
  -0.42857143  0.42857143  0.25000000       0.010
  -0.28571429  0.42857143  0.25000000       0.010
  -0.14285714  0.42857143  0.25000000       0.010
  -0.42857143 -0.42857143  0.25000000       0.005
  -0.28571429 -0.42857143  0.25000000       0.010
  -0.14285714 -0.42857143  0.25000000       0.010
  -0.28571429 -0.28571429  0.25000000       0.005
  -0.14285714 -0.28571429  0.25000000       0.010
  -0.14285714 -0.14285714  0.25000000       0.005
   0.00000000  0.00000000  0.37500000       0.005
   0.14285714  0.00000000  0.37500000       0.010
   0.28571429  0.00000000  0.37500000       0.010
   0.42857143  0.00000000  0.37500000       0.010
  -0.42857143  0.00000000  0.37500000       0.010
  -0.28571429  0.00000000  0.37500000       0.010
  -0.14285714  0.00000000  0.37500000       0.010
   0.14285714  0.14285714  0.37500000       0.005
   0.28571429  0.14285714  0.37500000       0.010
   0.42857143  0.14285714  0.37500000       0.010
  -0.42857143  0.14285714  0.37500000       0.010
  -0.28571429  0.14285714  0.37500000       0.010
  -0.14285714  0.14285714  0.37500000       0.010
   0.28571429  0.28571429  0.37500000       0.005
   0.42857143  0.28571429  0.37500000       0.010
  -0.42857143  0.28571429  0.37500000       0.010
  -0.28571429  0.28571429  0.37500000       0.010
  -0.14285714  0.28571429  0.37500000       0.010
   0.42857143  0.42857143  0.37500000       0.005
  -0.42857143  0.42857143  0.37500000       0.010
  -0.28571429  0.42857143  0.37500000       0.010
  -0.14285714  0.42857143  0.37500000       0.010
  -0.42857143 -0.42857143  0.37500000       0.005
  -0.28571429 -0.42857143  0.37500000       0.010
  -0.14285714 -0.42857143  0.37500000       0.010
  -0.28571429 -0.28571429  0.37500000       0.005
  -0.14285714 -0.28571429  0.37500000       0.010
  -0.14285714 -0.14285714  0.37500000       0.005
   0.00000000 -0.00000000  0.50000000       0.003
   0.14285714  0.00000000  0.50000000       0.010
   0.28571429 -0.00000000  0.50000000       0.010
   0.42857143 -0.00000000  0.50000000       0.010
   0.14285714  0.14285714  0.50000000       0.005
   0.28571429  0.14285714  0.50000000       0.010
   0.42857143  0.14285714  0.50000000       0.010
  -0.42857143  0.14285714  0.50000000       0.010
  -0.28571429  0.14285714  0.50000000       0.010
  -0.14285714  0.14285714  0.50000000       0.005
   0.28571429  0.28571429  0.50000000       0.005
   0.42857143  0.28571429  0.50000000       0.010
  -0.42857143  0.28571429  0.50000000       0.010
  -0.28571429  0.28571429  0.50000000       0.005
   0.42857143  0.42857143  0.50000000       0.005
  -0.42857143  0.42857143  0.50000000       0.005
 
 position of ions in fractional coordinates (direct lattice) 
   0.25000000  0.25000000  0.00000000
   0.75000000  0.75000000  0.00000000
   0.50000000  0.50000000  0.50000000
   0.50000000  0.00000000  0.50000000
   0.50000000  0.00000000  0.00000000
   0.00000000  0.50000000  0.50000000
   0.00000000  0.00000000  0.50000000
   0.00000000  0.50000000  0.00000000
   0.24209000  0.74209000  0.98418000
   0.75791000  0.25791000  0.01582000
   0.74209000  0.75791000  0.50000000
   0.25791000  0.24209000  0.50000000
 
 position of ions in cartesian coordinates  (Angst):
   0.92105255  1.33290511 -1.54882567
   2.76315766  3.99871534 -4.64647700
   1.84210511  2.66581022  0.14598867
   2.84997184  0.00000000  1.69481433
   2.84997184  0.00000000 -1.54882567
  -1.00786674  2.66581022  1.69481433
   0.00000000  0.00000000  3.24364000
  -1.00786674  2.66581022 -1.54882567
  -0.11595628  3.95654222  3.33600474
   3.80016650  1.37507823 -3.04402741
   2.70212666  4.04088845 -1.40283700
   0.98208356  1.29073199  1.69481433
 


--------------------------------------------------------------------------------------------------------


 k-point   1 :   0.0000 0.0000 0.0000  plane waves:    6565
 k-point   2 :   0.1429-0.0000 0.0000  plane waves:    6563
 k-point   3 :   0.2857 0.0000 0.0000  plane waves:    6559
 k-point   4 :   0.4286-0.0000 0.0000  plane waves:    6583
 k-point   5 :   0.1429 0.1429 0.0000  plane waves:    6562
 k-point   6 :   0.2857 0.1429 0.0000  plane waves:    6565
 k-point   7 :   0.4286 0.1429 0.0000  plane waves:    6587
 k-point   8 :  -0.4286 0.1429 0.0000  plane waves:    6578
 k-point   9 :  -0.2857 0.1429 0.0000  plane waves:    6579
 k-point  10 :  -0.1429 0.1429 0.0000  plane waves:    6555
 k-point  11 :   0.2857 0.2857 0.0000  plane waves:    6574
 k-point  12 :   0.4286 0.2857 0.0000  plane waves:    6584
 k-point  13 :  -0.4286 0.2857 0.0000  plane waves:    6572
 k-point  14 :  -0.2857 0.2857 0.0000  plane waves:    6593
 k-point  15 :   0.4286 0.4286 0.0000  plane waves:    6578
 k-point  16 :  -0.4286 0.4286 0.0000  plane waves:    6572
 k-point  17 :   0.0000-0.0000 0.1250  plane waves:    6557
 k-point  18 :   0.1429-0.0000 0.1250  plane waves:    6568
 k-point  19 :   0.2857 0.0000 0.1250  plane waves:    6574
 k-point  20 :   0.4286 0.0000 0.1250  plane waves:    6583
 k-point  21 :  -0.4286-0.0000 0.1250  plane waves:    6566
 k-point  22 :  -0.2857 0.0000 0.1250  plane waves:    6567
 k-point  23 :  -0.1429 0.0000 0.1250  plane waves:    6558
 k-point  24 :   0.1429 0.1429 0.1250  plane waves:    6587
 k-point  25 :   0.2857 0.1429 0.1250  plane waves:    6580
 k-point  26 :   0.4286 0.1429 0.1250  plane waves:    6587
 k-point  27 :  -0.4286 0.1429 0.1250  plane waves:    6579
 k-point  28 :  -0.2857 0.1429 0.1250  plane waves:    6571
 k-point  29 :  -0.1429 0.1429 0.1250  plane waves:    6547
 k-point  30 :   0.2857 0.2857 0.1250  plane waves:    6596
 k-point  31 :   0.4286 0.2857 0.1250  plane waves:    6577
 k-point  32 :  -0.4286 0.2857 0.1250  plane waves:    6573
 k-point  33 :  -0.2857 0.2857 0.1250  plane waves:    6580
 k-point  34 :  -0.1429 0.2857 0.1250  plane waves:    6568
 k-point  35 :   0.4286 0.4286 0.1250  plane waves:    6574
 k-point  36 :  -0.4286 0.4286 0.1250  plane waves:    6581
 k-point  37 :  -0.2857 0.4286 0.1250  plane waves:    6583
 k-point  38 :  -0.1429 0.4286 0.1250  plane waves:    6590
 k-point  39 :  -0.4286-0.4286 0.1250  plane waves:    6576
 k-point  40 :  -0.2857-0.4286 0.1250  plane waves:    6586
 k-point  41 :  -0.1429-0.4286 0.1250  plane waves:    6582
 k-point  42 :  -0.2857-0.2857 0.1250  plane waves:    6600
 k-point  43 :  -0.1429-0.2857 0.1250  plane waves:    6576
 k-point  44 :  -0.1429-0.1429 0.1250  plane waves:    6584
 k-point  45 :   0.0000-0.0000 0.2500  plane waves:    6577
 k-point  46 :   0.1429-0.0000 0.2500  plane waves:    6569
 k-point  47 :   0.2857-0.0000 0.2500  plane waves:    6586
 k-point  48 :   0.4286 0.0000 0.2500  plane waves:    6573
 k-point  49 :  -0.4286 0.0000 0.2500  plane waves:    6569
 k-point  50 :  -0.2857 0.0000 0.2500  plane waves:    6556
 k-point  51 :  -0.1429-0.0000 0.2500  plane waves:    6560
 k-point  52 :   0.1429 0.1429 0.2500  plane waves:    6570
 k-point  53 :   0.2857 0.1429 0.2500  plane waves:    6591
 k-point  54 :   0.4286 0.1429 0.2500  plane waves:    6578
 k-point  55 :  -0.4286 0.1429 0.2500  plane waves:    6576
 k-point  56 :  -0.2857 0.1429 0.2500  plane waves:    6567
 k-point  57 :  -0.1429 0.1429 0.2500  plane waves:    6564
 k-point  58 :   0.2857 0.2857 0.2500  plane waves:    6595
 k-point  59 :   0.4286 0.2857 0.2500  plane waves:    6581
 k-point  60 :  -0.4286 0.2857 0.2500  plane waves:    6576
 k-point  61 :  -0.2857 0.2857 0.2500  plane waves:    6581
 k-point  62 :  -0.1429 0.2857 0.2500  plane waves:    6580
 k-point  63 :   0.4286 0.4286 0.2500  plane waves:    6576
 k-point  64 :  -0.4286 0.4286 0.2500  plane waves:    6579
 k-point  65 :  -0.2857 0.4286 0.2500  plane waves:    6596
 k-point  66 :  -0.1429 0.4286 0.2500  plane waves:    6586
 k-point  67 :  -0.4286-0.4286 0.2500  plane waves:    6580
 k-point  68 :  -0.2857-0.4286 0.2500  plane waves:    6605
 k-point  69 :  -0.1429-0.4286 0.2500  plane waves:    6593
 k-point  70 :  -0.2857-0.2857 0.2500  plane waves:    6584
 k-point  71 :  -0.1429-0.2857 0.2500  plane waves:    6584
 k-point  72 :  -0.1429-0.1429 0.2500  plane waves:    6562
 k-point  73 :   0.0000 0.0000 0.3750  plane waves:    6572
 k-point  74 :   0.1429 0.0000 0.3750  plane waves:    6578
 k-point  75 :   0.2857 0.0000 0.3750  plane waves:    6585
 k-point  76 :   0.4286 0.0000 0.3750  plane waves:    6582
 k-point  77 :  -0.4286 0.0000 0.3750  plane waves:    6575
 k-point  78 :  -0.2857 0.0000 0.3750  plane waves:    6577
 k-point  79 :  -0.1429 0.0000 0.3750  plane waves:    6575
 k-point  80 :   0.1429 0.1429 0.3750  plane waves:    6583
 k-point  81 :   0.2857 0.1429 0.3750  plane waves:    6592
 k-point  82 :   0.4286 0.1429 0.3750  plane waves:    6575
 k-point  83 :  -0.4286 0.1429 0.3750  plane waves:    6591
 k-point  84 :  -0.2857 0.1429 0.3750  plane waves:    6584
 k-point  85 :  -0.1429 0.1429 0.3750  plane waves:    6571
 k-point  86 :   0.2857 0.2857 0.3750  plane waves:    6589
 k-point  87 :   0.4286 0.2857 0.3750  plane waves:    6587
 k-point  88 :  -0.4286 0.2857 0.3750  plane waves:    6588
 k-point  89 :  -0.2857 0.2857 0.3750  plane waves:    6588
 k-point  90 :  -0.1429 0.2857 0.3750  plane waves:    6586
 k-point  91 :   0.4286 0.4286 0.3750  plane waves:    6574
 k-point  92 :  -0.4286 0.4286 0.3750  plane waves:    6582
 k-point  93 :  -0.2857 0.4286 0.3750  plane waves:    6589
 k-point  94 :  -0.1429 0.4286 0.3750  plane waves:    6586
 k-point  95 :  -0.4286-0.4286 0.3750  plane waves:    6606
 k-point  96 :  -0.2857-0.4286 0.3750  plane waves:    6598
 k-point  97 :  -0.1429-0.4286 0.3750  plane waves:    6585
 k-point  98 :  -0.2857-0.2857 0.3750  plane waves:    6589
 k-point  99 :  -0.1429-0.2857 0.3750  plane waves:    6575
 k-point 100 :  -0.1429-0.1429 0.3750  plane waves:    6579
 k-point 101 :   0.0000-0.0000 0.5000  plane waves:    6550
 k-point 102 :   0.1429 0.0000 0.5000  plane waves:    6575
 k-point 103 :   0.2857-0.0000 0.5000  plane waves:    6578
 k-point 104 :   0.4286-0.0000 0.5000  plane waves:    6575
 k-point 105 :   0.1429 0.1429 0.5000  plane waves:    6572
 k-point 106 :   0.2857 0.1429 0.5000  plane waves:    6565
 k-point 107 :   0.4286 0.1429 0.5000  plane waves:    6587
 k-point 108 :  -0.4286 0.1429 0.5000  plane waves:    6593
 k-point 109 :  -0.2857 0.1429 0.5000  plane waves:    6587
 k-point 110 :  -0.1429 0.1429 0.5000  plane waves:    6580
 k-point 111 :   0.2857 0.2857 0.5000  plane waves:    6587
 k-point 112 :   0.4286 0.2857 0.5000  plane waves:    6598
 k-point 113 :  -0.4286 0.2857 0.5000  plane waves:    6590
 k-point 114 :  -0.2857 0.2857 0.5000  plane waves:    6570
 k-point 115 :   0.4286 0.4286 0.5000  plane waves:    6596
 k-point 116 :  -0.4286 0.4286 0.5000  plane waves:    6606

 maximum and minimum number of plane-waves per node :      3322     3260

 maximum number of plane-waves:      6606
 maximum index in each direction: 
   IXMAX=   13   IYMAX=   13   IZMAX=   12
   IXMIN=  -13   IYMIN=  -13   IZMIN=  -13


 parallel 3D FFT for wavefunctions:
    minimum data exchange during FFTs selected (reduces bandwidth)
 parallel 3D FFT for charge:
    minimum data exchange during FFTs selected (reduces bandwidth)


 total amount of memory used by VASP MPI-rank0   434785. kBytes
=======================================================================

   base      :      30000. kBytes
   nonl-proj :     166305. kBytes
   fftplans  :      17768. kBytes
   grid      :      13358. kBytes
   one-center:         93. kBytes
   wavefun   :     207261. kBytes
 
     INWAV:  cpu time    0.0001: real time    0.0001
 Broyden mixing: mesh for mixing (old mesh)
   NGX = 25   NGY = 25   NGZ = 25
  (NGX  =108   NGY  =108   NGZ  =108)
  gives a total of  15625 points

 initial charge density was supplied:
 charge density of overlapping atoms calculated
 number of electron     106.0000000 magnetization 
 keeping initial charge density in first step


--------------------------------------------------------------------------------------------------------


 Maximum index for augmentation-charges        22703 (set IRDMAX)


--------------------------------------------------------------------------------------------------------


 First call to EWALD:  gamma=   0.305
 Maximum number of real-space cells 3x 3x 3
 Maximum number of reciprocal cells 3x 3x 3

    FEWALD:  cpu time    0.0120: real time    0.0122


--------------------------------------- Iteration      1(   1)  ---------------------------------------


    POTLOK:  cpu time    0.2240: real time    0.2273
    SETDIJ:  cpu time    0.6649: real time    0.6692
    TRIAL :  cpu time   32.9614: real time   33.2674
    CORREC:  cpu time    0.0100: real time    0.0100
    --------------------------------------------
      LOOP:  cpu time   33.9424: real time   34.2848

 eigenvalue-minimisations  : 16332
 total energy-change (2. order) : 0.1042277E+04  (-0.7043119E+04)
 number of electron     106.0000000 magnetization 
 augmentation part      106.0000000 magnetization 

 Free energy of the ion-electron system (eV)
  ---------------------------------------------------
  alpha Z        PSCENC =       467.40790762
  Ewald energy   TEWEN  =     -8785.62337035
  -Hartree energ DENC   =     -2858.21075694
  -exchange      EXHF   =         0.00000000
  -V(xc)+E(xc)   XCENC  =       453.94583560
  PAW double counting   =      9333.50011946    -9270.82734050
  entropy T*S    EENTRO =        -0.00109214
  eigenvalues    EBANDS =       -26.21464624
  atomic energy  EATOM  =     11728.30056431
  ---------------------------------------------------
  free energy    TOTEN  =      1042.27722081 eV

  energy without entropy =     1042.27831295  energy(sigma->0) =     1042.27776688


--------------------------------------------------------------------------------------------------------




--------------------------------------- Iteration      1(   2)  ---------------------------------------


    TRIAL :  cpu time   37.6280: real time   38.4746
    CORREC:  cpu time    0.0022: real time    0.0022
    --------------------------------------------
      LOOP:  cpu time   37.6332: real time   38.4806

 eigenvalue-minimisations  : 17244
 total energy-change (2. order) :-0.1228535E+04  (-0.1203983E+04)
 number of electron     106.0000000 magnetization 
 augmentation part      106.0000000 magnetization 

 Free energy of the ion-electron system (eV)
  ---------------------------------------------------
  alpha Z        PSCENC =       467.40790762
  Ewald energy   TEWEN  =     -8785.62337035
  -Hartree energ DENC   =     -2858.21075694
  -exchange      EXHF   =         0.00000000
  -V(xc)+E(xc)   XCENC  =       453.94583560
  PAW double counting   =      9333.50011946    -9270.82734050
  entropy T*S    EENTRO =        -0.00150619
  eigenvalues    EBANDS =     -1254.74965147
  atomic energy  EATOM  =     11728.30056431
  ---------------------------------------------------
  free energy    TOTEN  =      -186.25819846 eV

  energy without entropy =     -186.25669227  energy(sigma->0) =     -186.25744537


--------------------------------------------------------------------------------------------------------




--------------------------------------- Iteration      1(   3)  ---------------------------------------


    TRIAL :  cpu time   42.3745: real time   43.2396
    CORREC:  cpu time    0.0181: real time    0.0182
    --------------------------------------------
      LOOP:  cpu time   42.3931: real time   43.2606

 eigenvalue-minimisations  : 20628
 total energy-change (2. order) :-0.4997535E+02  (-0.4855008E+02)
 number of electron     106.0000000 magnetization 
 augmentation part      106.0000000 magnetization 

 Free energy of the ion-electron system (eV)
  ---------------------------------------------------
  alpha Z        PSCENC =       467.40790762
  Ewald energy   TEWEN  =     -8785.62337035
  -Hartree energ DENC   =     -2858.21075694
  -exchange      EXHF   =         0.00000000
  -V(xc)+E(xc)   XCENC  =       453.94583560
  PAW double counting   =      9333.50011946    -9270.82734050
  entropy T*S    EENTRO =        -0.00358983
  eigenvalues    EBANDS =     -1304.72292253
  atomic energy  EATOM  =     11728.30056431
  ---------------------------------------------------
  free energy    TOTEN  =      -236.23355317 eV

  energy without entropy =     -236.22996334  energy(sigma->0) =     -236.23175826


--------------------------------------------------------------------------------------------------------




--------------------------------------- Iteration      1(   4)  ---------------------------------------


    TRIAL :  cpu time   39.4182: real time   40.2772
    CORREC:  cpu time    0.0020: real time    0.0020
    --------------------------------------------
      LOOP:  cpu time   39.4226: real time   40.2821

 eigenvalue-minimisations  : 18432
 total energy-change (2. order) :-0.1117526E+01  (-0.1105645E+01)
 number of electron     106.0000000 magnetization 
 augmentation part      106.0000000 magnetization 

 Free energy of the ion-electron system (eV)
  ---------------------------------------------------
  alpha Z        PSCENC =       467.40790762
  Ewald energy   TEWEN  =     -8785.62337035
  -Hartree energ DENC   =     -2858.21075694
  -exchange      EXHF   =         0.00000000
  -V(xc)+E(xc)   XCENC  =       453.94583560
  PAW double counting   =      9333.50011946    -9270.82734050
  entropy T*S    EENTRO =        -0.00364246
  eigenvalues    EBANDS =     -1305.84039541
  atomic energy  EATOM  =     11728.30056431
  ---------------------------------------------------
  free energy    TOTEN  =      -237.35107868 eV

  energy without entropy =     -237.34743622  energy(sigma->0) =     -237.34925745


--------------------------------------------------------------------------------------------------------




--------------------------------------- Iteration      1(   5)  ---------------------------------------


    TRIAL :  cpu time   40.4153: real time   41.2064
    CORREC:  cpu time    0.0021: real time    0.0021
    CHARGE:  cpu time    2.5628: real time    2.5834
    --------------------------------------------
      LOOP:  cpu time   42.9813: real time   43.7948

 eigenvalue-minimisations  : 18978
 total energy-change (2. order) :-0.2196830E-01  (-0.2190872E-01)
 number of electron     106.0000000 magnetization 
 augmentation part       11.7018389 magnetization 

 Free energy of the ion-electron system (eV)
  ---------------------------------------------------
  alpha Z        PSCENC =       467.40790762
  Ewald energy   TEWEN  =     -8785.62337035
  -Hartree energ DENC   =     -2858.21075694
  -exchange      EXHF   =         0.00000000
  -V(xc)+E(xc)   XCENC  =       453.94583560
  PAW double counting   =      9333.50011946    -9270.82734050
  entropy T*S    EENTRO =        -0.00362501
  eigenvalues    EBANDS =     -1305.86238116
  atomic energy  EATOM  =     11728.30056431
  ---------------------------------------------------
  free energy    TOTEN  =      -237.37304698 eV

  energy without entropy =     -237.36942197  energy(sigma->0) =     -237.37123448


--------------------------------------------------------------------------------------------------------




--------------------------------------- Iteration      1(   6)  ---------------------------------------


    POTLOK:  cpu time    0.2029: real time    0.2042
    SETDIJ:  cpu time    0.6361: real time    0.6399
    TRIAL :  cpu time   28.9293: real time   29.2729
    CORREC:  cpu time   10.3724: real time   10.4570
    CHARGE:  cpu time    3.8688: real time    3.8933
    --------------------------------------------
      LOOP:  cpu time   44.0118: real time   44.4699

 eigenvalue-minimisations  :     0
 total energy-change (2. order) : 0.5792640E+02  (-0.1209066E+02)
 number of electron     106.0000000 magnetization 
 augmentation part       13.6826720 magnetization 

 Free energy of the ion-electron system (eV)
  ---------------------------------------------------
  alpha Z        PSCENC =       467.40790762
  Ewald energy   TEWEN  =     -8785.62337035
  -Hartree energ DENC   =     -2420.00237861
  -exchange      EXHF   =         0.00000000
  -V(xc)+E(xc)   XCENC  =       449.81283736
  PAW double counting   =     13871.55229147   -13850.14639757
  entropy T*S    EENTRO =        -0.00280348
  eigenvalues    EBANDS =     -1640.74447757
  atomic energy  EATOM  =     11728.30056431
  ---------------------------------------------------
  free energy    TOTEN  =      -179.44664834 eV

  energy without entropy =     -179.44384487  energy(sigma->0) =     -179.44524661


--------------------------------------------------------------------------------------------------------




--------------------------------------- Iteration      1(   7)  ---------------------------------------


    POTLOK:  cpu time    0.1443: real time    0.1451
    SETDIJ:  cpu time    0.6458: real time    0.6505
    TRIAL :  cpu time   32.3527: real time   32.6342
    CORREC:  cpu time   11.8741: real time   12.1994
    CHARGE:  cpu time    2.8633: real time    2.8841
    --------------------------------------------
      LOOP:  cpu time   47.8828: real time   48.5165

 eigenvalue-minimisations  :     0
 total energy-change (2. order) :-0.1187463E+02  (-0.1993770E+01)
 number of electron     106.0000000 magnetization 
 augmentation part       13.7222340 magnetization 

 Free energy of the ion-electron system (eV)
  ---------------------------------------------------
  alpha Z        PSCENC =       467.40790762
  Ewald energy   TEWEN  =     -8785.62337035
  -Hartree energ DENC   =     -2667.47226947
  -exchange      EXHF   =         0.00000000
  -V(xc)+E(xc)   XCENC  =       460.61483765
  PAW double counting   =     13296.73721024   -13260.81532550
  entropy T*S    EENTRO =        -0.00257706
  eigenvalues    EBANDS =     -1430.46803029
  atomic energy  EATOM  =     11728.30056431
  ---------------------------------------------------
  free energy    TOTEN  =      -191.32127927 eV

  energy without entropy =     -191.31870221  energy(sigma->0) =     -191.31999074


--------------------------------------------------------------------------------------------------------




--------------------------------------- Iteration      1(   8)  ---------------------------------------


    POTLOK:  cpu time    0.1571: real time    0.1582
    SETDIJ:  cpu time    0.6257: real time    0.6303
    TRIAL :  cpu time   30.5743: real time   31.1044
    CORREC:  cpu time   11.9774: real time   12.2005
    CHARGE:  cpu time    3.3025: real time    3.3248
    --------------------------------------------
      LOOP:  cpu time   46.6420: real time   47.4236

 eigenvalue-minimisations  :     0
 total energy-change (2. order) :-0.1984085E+01  (-0.5982692E+00)
 number of electron     106.0000000 magnetization 
 augmentation part       13.7125978 magnetization 

 Free energy of the ion-electron system (eV)
  ---------------------------------------------------
  alpha Z        PSCENC =       467.40790762
  Ewald energy   TEWEN  =     -8785.62337035
  -Hartree energ DENC   =     -2716.55496368
  -exchange      EXHF   =         0.00000000
  -V(xc)+E(xc)   XCENC  =       462.65359951
  PAW double counting   =     13173.24330610   -13133.54714353
  entropy T*S    EENTRO =        -0.00272432
  eigenvalues    EBANDS =     -1389.18268761
  atomic energy  EATOM  =     11728.30056431
  ---------------------------------------------------
  free energy    TOTEN  =      -193.30536470 eV

  energy without entropy =     -193.30264038  energy(sigma->0) =     -193.30400254


--------------------------------------------------------------------------------------------------------




--------------------------------------- Iteration      1(   9)  ---------------------------------------


    POTLOK:  cpu time    0.1444: real time    0.1452
    SETDIJ:  cpu time    0.7025: real time    0.7062
    TRIAL :  cpu time   33.7689: real time   34.4647
    CORREC:  cpu time   12.0339: real time   12.1283
    CHARGE:  cpu time    3.7947: real time    3.8188
    --------------------------------------------
      LOOP:  cpu time   50.4504: real time   51.2702

 eigenvalue-minimisations  :     0
 total energy-change (2. order) :-0.5982889E+00  (-0.1599753E+00)
 number of electron     106.0000000 magnetization 
 augmentation part       13.7280435 magnetization 

 Free energy of the ion-electron system (eV)
  ---------------------------------------------------
  alpha Z        PSCENC =       467.40790762
  Ewald energy   TEWEN  =     -8785.62337035
  -Hartree energ DENC   =     -2723.52458709
  -exchange      EXHF   =         0.00000000
  -V(xc)+E(xc)   XCENC  =       463.01560200
  PAW double counting   =     13203.33719376   -13161.10750647
  entropy T*S    EENTRO =        -0.00284845
  eigenvalues    EBANDS =     -1385.70673302
  atomic energy  EATOM  =     11728.30056431
  ---------------------------------------------------
  free energy    TOTEN  =      -193.90365355 eV

  energy without entropy =     -193.90080510  energy(sigma->0) =     -193.90222933


--------------------------------------------------------------------------------------------------------




--------------------------------------- Iteration      1(  10)  ---------------------------------------


    POTLOK:  cpu time    0.1462: real time    0.1471
    SETDIJ:  cpu time    0.7026: real time    0.7075
    TRIAL :  cpu time   32.7288: real time   33.0135
    CORREC:  cpu time    9.7988: real time    9.8815
    CHARGE:  cpu time    4.8371: real time    4.8705
    --------------------------------------------
      LOOP:  cpu time   48.2153: real time   48.6231

 eigenvalue-minimisations  :     0
 total energy-change (2. order) :-0.1599766E+00  (-0.6375857E-01)
 number of electron     106.0000000 magnetization 
 augmentation part       13.7254961 magnetization 

 Free energy of the ion-electron system (eV)
  ---------------------------------------------------
  alpha Z        PSCENC =       467.40790762
  Ewald energy   TEWEN  =     -8785.62337035
  -Hartree energ DENC   =     -2724.45682815
  -exchange      EXHF   =         0.00000000
  -V(xc)+E(xc)   XCENC  =       463.15301101
  PAW double counting   =     13265.17879931   -13221.79278612
  entropy T*S    EENTRO =        -0.00283688
  eigenvalues    EBANDS =     -1386.22807931
  atomic energy  EATOM  =     11728.30056431
  ---------------------------------------------------
  free energy    TOTEN  =      -194.06363013 eV

  energy without entropy =     -194.06079325  energy(sigma->0) =     -194.06221169


--------------------------------------------------------------------------------------------------------




--------------------------------------- Iteration      1(  11)  ---------------------------------------


    POTLOK:  cpu time    0.1462: real time    0.1471
    SETDIJ:  cpu time    0.6393: real time    0.6431
[...]
     58       9.0892      0.00000
     59       9.9336      0.00000
     60      10.1232      0.00000
     61      10.1345      0.00000
     62      10.4388      0.00000
     63      10.4983      0.00000
     64      10.8445      0.00000
     65      11.4006      0.00000
     66      11.5925      0.00000

 k-point   110 :      -0.1429    0.1429    0.5000
  band No.  band energies     occupation 
      1     -54.3600      2.00000
      2     -54.3486      2.00000
      3     -54.3457      2.00000
      4     -54.3446      2.00000
      5     -54.3388      2.00000
      6     -54.3302      2.00000
      7     -28.0849      2.00000
      8     -27.9710      2.00000
      9     -27.9701      2.00000
     10     -27.9650      2.00000
     11     -27.9519      2.00000
     12     -27.9412      2.00000
     13     -27.8711      2.00000
     14     -27.8072      2.00000
     15     -27.7528      2.00000
     16     -27.7445      2.00000
     17     -27.7237      2.00000
     18     -27.6940      2.00000
     19     -27.6727      2.00000
     20     -27.6681      2.00000
     21     -27.6367      2.00000
     22     -27.5972      2.00000
     23     -27.5719      2.00000
     24     -27.5186      2.00000
     25      -1.2671      2.00000
     26      -0.8324      2.00000
     27      -0.3945      2.00000
     28       0.9006      2.00000
     29       1.0056      2.00000
     30       1.7688      2.00000
     31       3.5485      2.00000
     32       3.6235      2.00000
     33       3.8184      2.00000
     34       3.8669      2.00000
     35       4.3982      2.00000
     36       4.4401      2.00000
     37       5.0227      2.00000
     38       5.0879      2.00000
     39       5.4458      2.00000
     40       5.6497      2.00000
     41       5.7231      2.00000
     42       5.8493      2.00000
     43       5.8947      2.00000
     44       6.3796      2.00000
     45       6.3831      2.00000
     46       6.4964      2.00000
     47       6.5749      2.00000
     48       6.5770      2.00000
     49       6.9061      2.00000
     50       7.2592      2.00000
     51       7.5632      2.00000
     52       7.9135      2.00000
     53       7.9829      1.34712
     54       8.1561      0.00000
     55       8.1783      0.00000
     56       8.4509      0.00000
     57       9.0739      0.00000
     58       9.1177      0.00000
     59       9.7516      0.00000
     60       9.8410      0.00000
     61      10.3756      0.00000
     62      10.4896      0.00000
     63      10.7713      0.00000
     64      11.1041      0.00000
     65      11.2557      0.00000
     66      11.3469      0.00000

 k-point   111 :       0.2857    0.2857    0.5000
  band No.  band energies     occupation 
      1     -54.3628      2.00000
      2     -54.3529      2.00000
      3     -54.3442      2.00000
      4     -54.3370      2.00000
      5     -54.3367      2.00000
      6     -54.3342      2.00000
      7     -28.0448      2.00000
      8     -28.0417      2.00000
      9     -28.0057      2.00000
     10     -27.9678      2.00000
     11     -27.9304      2.00000
     12     -27.8943      2.00000
     13     -27.8496      2.00000
     14     -27.8394      2.00000
     15     -27.7871      2.00000
     16     -27.7529      2.00000
     17     -27.7393      2.00000
     18     -27.7340      2.00000
     19     -27.6431      2.00000
     20     -27.6344      2.00000
     21     -27.6071      2.00000
     22     -27.5832      2.00000
     23     -27.5439      2.00000
     24     -27.5417      2.00000
     25      -1.6088      2.00000
     26      -0.4313      2.00000
     27      -0.1749      2.00000
     28       0.3419      2.00000
     29       1.0254      2.00000
     30       1.8332      2.00000
     31       3.4785      2.00000
     32       3.5060      2.00000
     33       4.0541      2.00000
     34       4.3308      2.00000
     35       4.4799      2.00000
     36       4.5835      2.00000
     37       4.9077      2.00000
     38       5.0886      2.00000
     39       5.2492      2.00000
     40       5.4520      2.00000
     41       5.4666      2.00000
     42       5.6952      2.00000
     43       5.7430      2.00000
     44       6.2201      2.00000
     45       6.3936      2.00000
     46       6.6435      2.00000
     47       6.9593      2.00000
     48       6.9993      2.00000
     49       7.0782      2.00000
     50       7.3628      2.00000
     51       7.6496      2.00000
     52       7.7381      2.00000
     53       7.9848      1.24679
     54       8.0278      0.00640
     55       8.1133      0.00000
     56       8.4485      0.00000
     57       8.9499      0.00000
     58       9.1757      0.00000
     59       9.8412      0.00000
     60       9.8970      0.00000
     61       9.9662      0.00000
     62      10.3231      0.00000
     63      10.8790      0.00000
     64      10.9388      0.00000
     65      11.1468      0.00000
     66      11.6538      0.00000

 k-point   112 :       0.4286    0.2857    0.5000
  band No.  band energies     occupation 
      1     -54.3601      2.00000
      2     -54.3526      2.00000
      3     -54.3435      2.00000
      4     -54.3396      2.00000
      5     -54.3380      2.00000
      6     -54.3339      2.00000
      7     -28.0290      2.00000
      8     -28.0176      2.00000
      9     -27.9938      2.00000
     10     -27.9735      2.00000
     11     -27.9197      2.00000
     12     -27.9059      2.00000
     13     -27.8569      2.00000
     14     -27.8553      2.00000
     15     -27.7972      2.00000
     16     -27.7562      2.00000
     17     -27.7424      2.00000
     18     -27.7355      2.00000
     19     -27.6425      2.00000
     20     -27.6258      2.00000
     21     -27.5997      2.00000
     22     -27.5749      2.00000
     23     -27.5619      2.00000
     24     -27.5546      2.00000
     25      -1.4089      2.00000
     26      -0.5864      2.00000
     27      -0.1794      2.00000
     28       0.6654      2.00000
     29       0.7637      2.00000
     30       1.6309      2.00000
     31       3.5819      2.00000
     32       3.8498      2.00000
     33       3.9122      2.00000
     34       4.2052      2.00000
     35       4.4030      2.00000
     36       4.5565      2.00000
     37       4.8662      2.00000
     38       4.9092      2.00000
     39       5.0085      2.00000
     40       5.6858      2.00000
     41       5.7324      2.00000
     42       5.7436      2.00000
     43       5.9478      2.00000
     44       6.3323      2.00000
     45       6.4632      2.00000
     46       6.5240      2.00000
     47       6.7860      2.00000
     48       6.8564      2.00000
     49       6.8725      2.00000
     50       7.2046      2.00000
     51       7.7408      2.00000
     52       7.8279      2.00000
     53       7.8703      2.00000
     54       8.1431      0.00000
     55       8.1957      0.00000
     56       8.5085      0.00000
     57       8.7133      0.00000
     58       9.0698      0.00000
     59       9.9070      0.00000
     60       9.9691      0.00000
     61      10.1470      0.00000
     62      10.1831      0.00000
     63      10.4543      0.00000
     64      11.0286      0.00000
     65      11.2119      0.00000
     66      11.4992      0.00000

 k-point   113 :      -0.4286    0.2857    0.5000
  band No.  band energies     occupation 
      1     -54.3560      2.00000
      2     -54.3533      2.00000
      3     -54.3437      2.00000
      4     -54.3435      2.00000
      5     -54.3375      2.00000
      6     -54.3338      2.00000
      7     -28.0243      2.00000
      8     -27.9979      2.00000
      9     -27.9733      2.00000
     10     -27.9691      2.00000
     11     -27.9294      2.00000
     12     -27.9212      2.00000
     13     -27.8648      2.00000
     14     -27.8557      2.00000
     15     -27.7971      2.00000
     16     -27.7615      2.00000
     17     -27.7400      2.00000
     18     -27.7240      2.00000
     19     -27.6485      2.00000
     20     -27.6257      2.00000
     21     -27.6024      2.00000
     22     -27.5786      2.00000
     23     -27.5743      2.00000
     24     -27.5563      2.00000
     25      -1.1026      2.00000
     26      -0.7310      2.00000
     27      -0.3342      2.00000
     28       0.4781      2.00000
     29       1.0272      2.00000
     30       1.5768      2.00000
     31       3.7201      2.00000
     32       3.7299      2.00000
     33       4.0796      2.00000
     34       4.1377      2.00000
     35       4.4267      2.00000
     36       4.4495      2.00000
     37       4.5121      2.00000
     38       4.9564      2.00000
     39       5.0417      2.00000
     40       5.8904      2.00000
     41       5.9163      2.00000
     42       5.9784      2.00000
     43       6.0884      2.00000
     44       6.2871      2.00000
     45       6.3752      2.00000
     46       6.5447      2.00000
     47       6.5953      2.00000
     48       6.6745      2.00000
     49       6.6925      2.00000
     50       7.0523      2.00000
     51       7.6486      2.00000
     52       7.8951      2.00000
     53       7.9357      1.99985
     54       8.0788      0.00000
     55       8.3107      0.00000
     56       8.4536      0.00000
     57       8.5860      0.00000
     58       9.0544      0.00000
     59       9.9978      0.00000
     60      10.0428      0.00000
     61      10.2049      0.00000
     62      10.3509      0.00000
     63      10.3812      0.00000
     64      11.1187      0.00000
     65      11.1502      0.00000
     66      11.9039      0.00000

 k-point   114 :      -0.2857    0.2857    0.5000
  band No.  band energies     occupation 
      1     -54.3553      2.00000
      2     -54.3525      2.00000
      3     -54.3458      2.00000
      4     -54.3446      2.00000
      5     -54.3349      2.00000
      6     -54.3347      2.00000
      7     -28.0470      2.00000
      8     -27.9712      2.00000
      9     -27.9645      2.00000
     10     -27.9607      2.00000
     11     -27.9518      2.00000
     12     -27.9350      2.00000
     13     -27.8706      2.00000
     14     -27.8379      2.00000
     15     -27.7872      2.00000
     16     -27.7533      2.00000
     17     -27.7438      2.00000
     18     -27.7058      2.00000
     19     -27.6602      2.00000
     20     -27.6343      2.00000
     21     -27.6164      2.00000
     22     -27.5818      2.00000
     23     -27.5798      2.00000
     24     -27.5427      2.00000
     25      -0.8902      2.00000
     26      -0.7962      2.00000
     27      -0.6085      2.00000
     28       0.4913      2.00000
     29       1.1383      2.00000
     30       1.6611      2.00000
     31       3.6501      2.00000
     32       3.8132      2.00000
     33       3.9167      2.00000
     34       4.1689      2.00000
     35       4.2750      2.00000
     36       4.4251      2.00000
     37       4.5835      2.00000
     38       5.0545      2.00000
     39       5.2221      2.00000
     40       5.8104      2.00000
     41       6.0026      2.00000
     42       6.0596      2.00000
     43       6.3246      2.00000
     44       6.3752      2.00000
     45       6.4159      2.00000
     46       6.4776      2.00000
     47       6.5113      2.00000
     48       6.5384      2.00000
     49       6.5393      2.00000
     50       6.6158      2.00000
     51       7.7888      2.00000
     52       7.9587      1.96929
     53       7.9879      1.07223
     54       8.0341      0.00152
     55       8.2925      0.00000
     56       8.3458      0.00000
     57       8.6717      0.00000
     58       9.0798      0.00000
     59      10.0914      0.00000
     60      10.2892      0.00000
     61      10.2970      0.00000
     62      10.3888      0.00000
     63      10.4526      0.00000
     64      10.7348      0.00000
     65      11.4555      0.00000
     66      11.7654      0.00000

 k-point   115 :       0.4286    0.4286    0.5000
  band No.  band energies     occupation 
      1     -54.3571      2.00000
      2     -54.3485      2.00000
      3     -54.3445      2.00000
      4     -54.3436      2.00000
      5     -54.3413      2.00000
      6     -54.3328      2.00000
      7     -28.0025      2.00000
      8     -27.9859      2.00000
      9     -27.9803      2.00000
     10     -27.9592      2.00000
     11     -27.9367      2.00000
     12     -27.9284      2.00000
     13     -27.8670      2.00000
     14     -27.8646      2.00000
     15     -27.8067      2.00000
     16     -27.7553      2.00000
     17     -27.7542      2.00000
     18     -27.7378      2.00000
     19     -27.6181      2.00000
     20     -27.6156      2.00000
     21     -27.6029      2.00000
     22     -27.5826      2.00000
     23     -27.5769      2.00000
     24     -27.5702      2.00000
     25      -1.2369      2.00000
     26      -0.3671      2.00000
     27      -0.3292      2.00000
     28       0.3464      2.00000
     29       1.0090      2.00000
     30       1.5001      2.00000
     31       3.4082      2.00000
     32       3.7426      2.00000
     33       4.3344      2.00000
     34       4.3351      2.00000
     35       4.4287      2.00000
     36       4.4528      2.00000
     37       4.6303      2.00000
     38       4.6488      2.00000
     39       4.8729      2.00000
     40       5.8141      2.00000
     41       5.9359      2.00000
     42       5.9894      2.00000
     43       6.1527      2.00000
     44       6.2812      2.00000
     45       6.3455      2.00000
     46       6.5270      2.00000
     47       6.5396      2.00000
     48       6.8315      2.00000
     49       6.8412      2.00000
     50       7.1703      2.00000
     51       7.4317      2.00000
     52       7.7867      2.00000
     53       7.8146      2.00000
     54       8.3504      0.00000
     55       8.3748      0.00000
     56       8.4715      0.00000
     57       8.6609      0.00000
     58       9.1041      0.00000
     59       9.7361      0.00000
     60       9.7603      0.00000
     61      10.3768      0.00000
     62      10.3857      0.00000
     63      10.6442      0.00000
     64      10.8766      0.00000
     65      11.3529      0.00000
     66      11.6001      0.00000

 k-point   116 :      -0.4286    0.4286    0.5000
  band No.  band energies     occupation 
      1     -54.3547      2.00000
      2     -54.3487      2.00000
      3     -54.3460      2.00000
      4     -54.3446      2.00000
      5     -54.3413      2.00000
      6     -54.3327      2.00000
      7     -27.9993      2.00000
      8     -27.9693      2.00000
      9     -27.9641      2.00000
     10     -27.9529      2.00000
     11     -27.9517      2.00000
     12     -27.9436      2.00000
     13     -27.8700      2.00000
     14     -27.8661      2.00000
     15     -27.8068      2.00000
     16     -27.7573      2.00000
     17     -27.7562      2.00000
     18     -27.7302      2.00000
     19     -27.6200      2.00000
     20     -27.6156      2.00000
     21     -27.6039      2.00000
     22     -27.5902      2.00000
     23     -27.5782      2.00000
     24     -27.5702      2.00000
     25      -1.0933      2.00000
     26      -0.4197      2.00000
     27      -0.3823      2.00000
     28       0.2316      2.00000
     29       1.1280      2.00000
     30       1.4824      2.00000
     31       3.4693      2.00000
     32       3.6603      2.00000
     33       4.3218      2.00000
     34       4.3869      2.00000
     35       4.4255      2.00000
     36       4.4411      2.00000
     37       4.4461      2.00000
     38       4.6771      2.00000
     39       5.0822      2.00000
     40       5.7430      2.00000
     41       5.8775      2.00000
     42       6.0302      2.00000
     43       6.1583      2.00000
     44       6.2445      2.00000
     45       6.5579      2.00000
     46       6.5748      2.00000
     47       6.5977      2.00000
     48       6.6072      2.00000
     49       6.8039      2.00000
     50       7.1015      2.00000
     51       7.3782      2.00000
     52       7.7905      2.00000
     53       7.8200      2.00000
     54       8.3210      0.00000
     55       8.3969      0.00000
     56       8.4235      0.00000
     57       8.6510      0.00000
     58       9.0964      0.00000
     59       9.6649      0.00000
     60       9.7640      0.00000
     61      10.5102      0.00000
     62      10.5160      0.00000
     63      10.6468      0.00000
     64      10.8891      0.00000
     65      11.3346      0.00000
     66      11.7173      0.00000


--------------------------------------------------------------------------------------------------------


 soft charge-density along one line, spin component           1
         0         1         2         3         4         5         6         7         8         9
 total charge-density along one line
 
 pseudopotential strength for first ion, spin component:           1
  6.003   9.103   0.000  -0.000  -0.000   0.000  -0.000  -0.000
  9.103  13.796   0.000  -0.000  -0.000   0.000  -0.000  -0.000
  0.000   0.000  -2.015   0.005  -0.003  -3.368   0.006  -0.003
 -0.000  -0.000   0.005  -2.016   0.003   0.006  -3.370   0.004
 -0.000  -0.000  -0.003   0.003  -2.013  -0.003   0.004  -3.366
  0.000   0.000  -3.368   0.006  -0.003  -5.419   0.006  -0.004
 -0.000  -0.000   0.006  -3.370   0.004   0.006  -5.421   0.004
 -0.000  -0.000  -0.003   0.004  -3.366  -0.004   0.004  -5.416
 total augmentation occupancy for first ion, spin component:           1
  2.881  -0.534   0.000   0.000  -0.000  -0.000  -0.000   0.000
 -0.534   0.110  -0.000   0.000   0.000   0.000   0.000   0.000
  0.000   0.000   1.648   0.494  -0.294  -0.374  -0.107   0.063
  0.000   0.000   0.494   1.499   0.342  -0.107  -0.342  -0.074
 -0.000   0.000  -0.294   0.342   1.870   0.063  -0.074  -0.422
  0.000   0.000  -0.374  -0.107   0.063   0.087   0.024  -0.014
 -0.000  -0.000  -0.107  -0.342  -0.074   0.024   0.080   0.016
  0.000   0.000   0.063  -0.074  -0.422  -0.014   0.016   0.098


------------------------ aborting loop because EDIFF is reached ----------------------------------------




--------------------------------------------------------------------------------------------------------



  FREE ENERGIE OF THE ION-ELECTRON SYSTEM (eV)
  ---------------------------------------------------
  free  energy   TOTEN  =      -194.17989150 eV

  energy  without entropy=     -194.17720726  energy(sigma->0) =     -194.17854938
 


--------------------------------------------------------------------------------------------------------


    POTLOK:  cpu time    0.8720: real time    0.8780


--------------------------------------------------------------------------------------------------------


 writing wavefunctions
     LOOP+:  cpu time 1705.6869: real time 1728.8556
    4ORBIT:  cpu time    0.0000: real time    0.0000

 total amount of memory used by VASP MPI-rank0   434785. kBytes
=======================================================================

   base      :      30000. kBytes
   nonl-proj :     166305. kBytes
   fftplans  :      17768. kBytes
   grid      :      13358. kBytes
   one-center:         93. kBytes
   wavefun   :     207261. kBytes
 
  
  
 General timing and accounting informations for this job:
 ========================================================
  
                  Total CPU time used (sec):     1715.869
                            User time (sec):     1658.736
                          System time (sec):       57.133
                         Elapsed time (sec):     1747.824
  
                   Maximum memory used (kb):      652960.
                   Average memory used (kb):          N/A
  
                          Minor page faults:      6156574
                          Major page faults:           45
                 Voluntary context switches:        15439
