 vasp.6.2.0 18Jan21 (build Jan 05 2022 15:41:44) complex                        
  
 executed on             LinuxIFC date 2025.05.07  15:53:49
 running on   24 total cores
 distrk:  each k-point on   12 cores,    2 groups
 distr:  one band on NCORE=   2 cores,    6 groups


--------------------------------------------------------------------------------------------------------


 INCAR:
   SYSTEM = routine with relax: pwdword
   ICHARG = 2
   NPAR = 6
   KPAR = 2
   NCORE = 2
   ADDGRID = T
   PREC = Acc
   ENCUT = 600
   METAGGA = R2SCAN
   LASPH = .TRUE.
   LMIXTAU = .FALSE.
   ALGO = A
   EDIFF = 1E-9
   NELM = 100
   NELMIN = 6
   IALGO = 38
   LREAL = F
   NSW = 0
   ISIF = -1
   ISMEAR = 0
   SIGMA = 0.02
   SYMPREC = 1E-4

 POTCAR:    PAW_PBE B 06Sep2000                   
 POTCAR:    PAW_PBE Mo_sv 02Feb2006               
 POTCAR:    PAW_PBE Si 05Jan2001                  
 -----------------------------------------------------------------------------
|                                                                             |
|           W    W    AA    RRRRR   N    N  II  N    N   GGGG   !!!           |
|           W    W   A  A   R    R  NN   N  II  NN   N  G    G  !!!           |
|           W    W  A    A  R    R  N N  N  II  N N  N  G       !!!           |
|           W WW W  AAAAAA  RRRRR   N  N N  II  N  N N  G  GGG   !            |
|           WW  WW  A    A  R   R   N   NN  II  N   NN  G    G                |
|           W    W  A    A  R    R  N    N  II  N    N   GGGG   !!!           |
|                                                                             |
|     For optimal performance we recommend to set                             |
|       NCORE = 2 up to number-of-cores-per-socket                            |
|     NCORE specifies how many cores store one orbital (NPAR=cpu/NCORE).      |
|     This setting can greatly improve the performance of VASP for DFT.       |
|     The default, NCORE=1 might be grossly inefficient on modern             |
|     multi-core architectures or massively parallel machines. Do your        |
|     own testing! More info at https://www.vasp.at/wiki/index.php/NCORE      |
|     Unfortunately you need to use the default for GW and RPA                |
|     calculations (for HF NCORE is supported but not extensively tested      |
|     yet).                                                                   |
|                                                                             |
 -----------------------------------------------------------------------------

 POTCAR:    PAW_PBE B 06Sep2000                   
   VRHFIN =B: s2p1                                                                                  
   LEXCH  = PE                                                                                      
   EATOM  =    71.1703 eV,    5.2309 Ry                                                             
                                                                                                    
   TITEL  = PAW_PBE B 06Sep2000                                                                     
   LULTRA =        F    use ultrasoft PP ?                                                          
   IUNSCR =        1    unscreen: 0-lin 1-nonlin 2-no                                               
   RPACOR =    1.200    partial core radius                                                         
   POMASS =   10.811; ZVAL   =    3.000    mass and valenz                                          
   RCORE  =    1.700    outmost cutoff radius                                                       
   RWIGS  =    1.710; RWIGS  =    0.905    wigner-seitz radius (au A)                               
   ENMAX  =  318.614; ENMIN  =  238.960 eV                                                          
   ICORE  =        2    local potential                                                             
   LCOR   =        T    correct aug charges                                                         
   LPAW   =        T    paw PP                                                                      
   EAUG   =  535.514                                                                                
   DEXC   =    0.000                                                                                
   RMAX   =    1.732    core radius for proj-oper                                                   
   RAUG   =    1.300    factor for augmentation sphere                                              
   RDEP   =    1.757    radius for radial grids                                                     
   RDEPT  =    1.436    core radius for aug-charge                                                  
                                                                                                    
   Atomic configuration                                                                             
    4 entries                                                                                       
     n  l   j            E        occ.                                                              
     1  0  0.50      -180.5896   2.0000                                                             
     2  0  0.50        -9.4431   2.0000                                                             
     2  1  0.50        -3.6068   1.0000                                                             
     3  2  1.50        -4.0817   0.0000                                                             
   Description                                                                                      
     l       E           TYP  RCUT    TYP  RCUT                                                     
     0     -9.4430752     23  1.500                                                                 
     0      0.8675899     23  1.500                                                                 
     1     -3.6067955     23  1.700                                                                 
     1      6.1086146     23  1.700                                                                 
     2     -4.0817478      7  1.700                                                                 
  local pseudopotential read in
  partial core-charges read in
  partial kinetic energy density read in
  atomic valenz-charges read in
  non local Contribution for L=           0  read in
    real space projection operators read in
  non local Contribution for L=           0  read in
    real space projection operators read in
  non local Contribution for L=           1  read in
    real space projection operators read in
  non local Contribution for L=           1  read in
    real space projection operators read in
    PAW grid and wavefunctions read in
 
   number of l-projection  operators is LMAX  =           4
   number of lm-projection operators is LMMAX =           8
 
 POTCAR:    PAW_PBE Mo_sv 02Feb2006               
   VRHFIN =Mo: 4p5s4d                                                                               
   LEXCH  = PE                                                                                      
   EATOM  =  1862.2866 eV,  136.8742 Ry                                                             
                                                                                                    
   TITEL  = PAW_PBE Mo_sv 02Feb2006                                                                 
   LULTRA =        F    use ultrasoft PP ?                                                          
   IUNSCR =        1    unscreen: 0-lin 1-nonlin 2-no                                               
   RPACOR =    2.200    partial core radius                                                         
   POMASS =   95.940; ZVAL   =   14.000    mass and valenz                                          
   RCORE  =    2.500    outmost cutoff radius                                                       
   RWIGS  =    2.750; RWIGS  =    1.455    wigner-seitz radius (au A)                               
   ENMAX  =  242.676; ENMIN  =  182.007 eV                                                          
   ICORE  =        3    local potential                                                             
   LCOR   =        T    correct aug charges                                                         
   LPAW   =        T    paw PP                                                                      
   EAUG   =  446.014                                                                                
   DEXC   =    0.000                                                                                
   RMAX   =    2.563    core radius for proj-oper                                                   
   RAUG   =    1.300    factor for augmentation sphere                                              
   RDEP   =    2.641    radius for radial grids                                                     
   RDEPT  =    2.031    core radius for aug-charge                                                  
                                                                                                    
   Atomic configuration                                                                             
   11 entries                                                                                       
     n  l   j            E        occ.                                                              
     1  0  0.50    -19819.0341   2.0000                                                             
     2  0  0.50     -2799.0127   2.0000                                                             
     2  1  1.50     -2502.0276   6.0000                                                             
     3  0  0.50      -476.4449   2.0000                                                             
     3  1  1.50      -379.1496   6.0000                                                             
     3  2  2.50      -220.9367  10.0000                                                             
     4  0  0.50       -64.3378   2.0000                                                             
     5  0  0.50        -4.0862   1.0000                                                             
     4  1  1.50       -38.4773   6.0000                                                             
     4  2  2.50        -3.7535   5.0000                                                             
     4  3  2.50        -1.3606   0.0000                                                             
   Description                                                                                      
     l       E           TYP  RCUT    TYP  RCUT                                                     
     0    -64.3377829     23  2.100                                                                 
     0     -4.0861640     23  2.400                                                                 
     1    -38.4772993     23  2.100                                                                 
     1     13.6058260     23  2.100                                                                 
     2     -3.7534941     23  2.400                                                                 
     2     -5.1140767     23  2.400                                                                 
     3     -4.0817478     23  2.500                                                                 
  local pseudopotential read in
  partial core-charges read in
  partial kinetic energy density read in
  atomic valenz-charges read in
  non local Contribution for L=           0  read in
    real space projection operators read in
  non local Contribution for L=           0  read in
    real space projection operators read in
  non local Contribution for L=           1  read in
    real space projection operators read in
  non local Contribution for L=           1  read in
    real space projection operators read in
  non local Contribution for L=           2  read in
    real space projection operators read in
  non local Contribution for L=           2  read in
    real space projection operators read in
    PAW grid and wavefunctions read in
 
   number of l-projection  operators is LMAX  =           6
   number of lm-projection operators is LMMAX =          18
 
 POTCAR:    PAW_PBE Si 05Jan2001                  
   VRHFIN =Si: s2p2                                                                                 
   LEXCH  = PE                                                                                      
   EATOM  =   103.0669 eV,    7.5752 Ry                                                             
                                                                                                    
   TITEL  = PAW_PBE Si 05Jan2001                                                                    
   LULTRA =        F    use ultrasoft PP ?                                                          
   IUNSCR =        1    unscreen: 0-lin 1-nonlin 2-no                                               
   RPACOR =    1.500    partial core radius                                                         
   POMASS =   28.085; ZVAL   =    4.000    mass and valenz                                          
   RCORE  =    1.900    outmost cutoff radius                                                       
   RWIGS  =    2.480; RWIGS  =    1.312    wigner-seitz radius (au A)                               
   ENMAX  =  245.345; ENMIN  =  184.009 eV                                                          
   ICORE  =        2    local potential                                                             
   LCOR   =        T    correct aug charges                                                         
   LPAW   =        T    paw PP                                                                      
   EAUG   =  322.069                                                                                
   DEXC   =    0.000                                                                                
   RMAX   =    1.950    core radius for proj-oper                                                   
   RAUG   =    1.300    factor for augmentation sphere                                              
   RDEP   =    1.993    radius for radial grids                                                     
   RDEPT  =    1.837    core radius for aug-charge                                                  
                                                                                                    
   Atomic configuration                                                                             
    6 entries                                                                                       
     n  l   j            E        occ.                                                              
     1  0  0.50     -1785.8828   2.0000                                                             
     2  0  0.50      -139.4969   2.0000                                                             
     2  1  1.50       -95.5546   6.0000                                                             
     3  0  0.50       -10.8127   2.0000                                                             
     3  1  0.50        -4.0811   2.0000                                                             
     3  2  1.50        -4.0817   0.0000                                                             
   Description                                                                                      
     l       E           TYP  RCUT    TYP  RCUT                                                     
     0    -10.8127223     23  1.900                                                                 
     0     -7.6451159     23  1.900                                                                 
     1     -4.0811372     23  1.900                                                                 
     1      2.4879257     23  1.900                                                                 
     2     -4.0817478      7  1.900                                                                 
  local pseudopotential read in
  partial core-charges read in
  partial kinetic energy density read in
  atomic valenz-charges read in
  non local Contribution for L=           0  read in
    real space projection operators read in
  non local Contribution for L=           0  read in
    real space projection operators read in
  non local Contribution for L=           1  read in
    real space projection operators read in
  non local Contribution for L=           1  read in
    real space projection operators read in
    PAW grid and wavefunctions read in
 
   number of l-projection  operators is LMAX  =           4
   number of lm-projection operators is LMMAX =           8
 
  PAW_PBE B 06Sep2000                   :
 energy of atom  1       EATOM=  -71.1703
 kinetic energy error for atom=    0.0007 (will be added to EATOM!!)
  PAW_PBE Mo_sv 02Feb2006               :
 energy of atom  2       EATOM=-1862.2866
 kinetic energy error for atom=    0.0041 (will be added to EATOM!!)
  PAW_PBE Si 05Jan2001                  :
 energy of atom  3       EATOM= -103.0669
 kinetic energy error for atom=    0.0003 (will be added to EATOM!!)
 
 
 POSCAR: EA63
  positions in direct lattice
  No initial velocities read in

 METAGGA = R2SCA    LMAXTAU =  6    LMIXTAU =  F

 exchange correlation table for  LEXCH =        8
   RHO(1)=    0.500       N(1)  =     2000
   RHO(2)=  100.500       N(2)  =     4000
 


--------------------------------------------------------------------------------------------------------


 ion  position               nearest neighbor table
   1  0.744  0.244  0.987-   6 2.20  10 2.20   7 2.43   9 2.43
   2  0.256  0.756  0.013-   6 2.20  10 2.20   7 2.43   9 2.43
   3  0.244  0.256  0.500-  10 2.20   6 2.20   5 2.43   8 2.43
   4  0.756  0.744  0.500-   6 2.20  10 2.20   8 2.43   5 2.43
   5  0.500  0.500  0.500-  12 2.20  11 2.20   3 2.43   4 2.43   7 3.11   9 3.11   7 3.11   9 3.11
                            10 3.28  10 3.28   6 3.28   6 3.28
   6  0.000  0.000  0.000-   1 2.20   2 2.20   3 2.20   4 2.20  12 2.43  11 2.43   7 3.28   8 3.28
                             9 3.28   8 3.28   9 3.28   7 3.28   5 3.28   5 3.28
   7  0.500  0.000  0.000-  11 2.20  12 2.20   1 2.43   2 2.43   5 3.11   8 3.11   5 3.11   8 3.11
                            10 3.28   6 3.28   6 3.28  10 3.28
   8  0.000  0.000  0.500-  11 2.20  12 2.20   3 2.43   4 2.43   7 3.11   9 3.11   9 3.11   7 3.11
                             6 3.28   6 3.28  10 3.28  10 3.28
   9  0.000  0.500  0.000-  11 2.20  12 2.20   1 2.43   2 2.43   5 3.11   8 3.11   8 3.11   5 3.11
                             6 3.28   6 3.28  10 3.28  10 3.28
  10  0.500  0.500  0.000-   1 2.20   2 2.20   4 2.20   3 2.20  12 2.43  11 2.43   5 3.28   7 3.28
                             9 3.28   5 3.28   7 3.28   9 3.28   8 3.28   8 3.28
  11  0.250  0.250  0.000-   7 2.20   9 2.20   5 2.20   8 2.20  10 2.43   6 2.43
  12  0.750  0.750  0.000-   7 2.20   9 2.20   8 2.20   5 2.20  10 2.43   6 2.43
 
  LATTYP: Found a body centered tetragonal cell.
 ALAT       =     6.2182999643
 C/A-ratio  =     1.5633867588
  
  Lattice vectors:
  
 A1 = (   5.4741716182,   0.0000000000,  -3.6047551785)
 A2 = (  -1.5893263750,   5.2383772850,  -3.6047551785)
 A3 = (   0.0000000000,   0.0000000000,   6.5544500000)


Analysis of symmetry for initial positions (statically):
=====================================================================
 Subroutine PRICEL returns:
 Original cell was already a primitive cell.
 

 Routine SETGRP: Setting up the symmetry group for a 
 body centered tetragonal supercell.


 Subroutine GETGRP returns: Found 16 space group operations
 (whereof  8 operations were pure point group operations)
 out of a pool of 16 trial point group operations.


The static configuration has the point symmetry C_4h.
 The point group associated with its full space group is D_4h.


Analysis of symmetry for dynamics (positions and initial velocities):
=====================================================================
 Subroutine PRICEL returns:
 Original cell was already a primitive cell.
 

 Routine SETGRP: Setting up the symmetry group for a 
 body centered tetragonal supercell.


 Subroutine GETGRP returns: Found 16 space group operations
 (whereof  8 operations were pure point group operations)
 out of a pool of 16 trial point group operations.


The dynamic configuration has the point symmetry C_4h.
 The point group associated with its full space group is D_4h.


 Subroutine INISYM returns: Found 16 space group operations
 (whereof  8 operations are pure point group operations),
 and found     1 'primitive' translations


----------------------------------------------------------------------------------------

                                     Primitive cell                                     

  volume of cell :     187.9539

  direct lattice vectors                    reciprocal lattice vectors
     5.474171618  0.000000000 -3.604755178     0.182676041  0.055424005  0.000000000
    -1.589326375  5.238377285 -3.604755178     0.000000000  0.190898812  0.000000000
     0.000000000  0.000000000  6.554450000     0.100466463  0.135470322  0.152568103

  length of vectors
     6.554450000  6.554450000  6.554450000     0.190898812  0.190898812  0.227426349

  position of ions in fractional coordinates (direct lattice)
     0.743610000  0.243610000  0.987220000
     0.256390000  0.756390000  0.012780000
     0.243610000  0.256390000  0.500000000
     0.756390000  0.743610000  0.500000000
     0.500000000  0.500000000  0.500000000
     0.000000000  0.000000000  0.000000000
     0.500000000  0.000000000  0.000000000
     0.000000000  0.000000000  0.500000000
     0.000000000  0.500000000  0.000000000
     0.500000000  0.500000000  0.000000000
     0.250000000  0.250000000  0.000000000
     0.750000000  0.750000000  0.000000000

  ion indices of the primitive-cell ions
   primitive index   ion index
                 1           1
                 2           2
                 3           3
                 4           4
                 5           5
                 6           6
                 7           7
                 8           8
                 9           9
                10          10
                11          11
                12          12

----------------------------------------------------------------------------------------

 
 
 KPOINTS: EA                                      

Automatic generation of k-mesh.
 Grid dimensions read from file:
 generate k-points for:    7    7    8

 Generating k-lattice:

  Cartesian coordinates                     Fractional coordinates (reciprocal lattice)
     0.026096577  0.007917715  0.000000000     0.142857143  0.000000000  0.000000000
     0.000000000  0.027271259  0.000000000     0.000000000  0.142857143  0.000000000
     0.012558308  0.016933790  0.019071013     0.000000000  0.000000000  0.125000000

  Length of vectors
     0.027271259  0.027271259  0.028428294

  Shift w.r.t. Gamma in fractional coordinates (k-lattice)
     0.000000000  0.000000000  0.000000000

 -----------------------------------------------------------------------------
|                                                                             |
|           W    W    AA    RRRRR   N    N  II  N    N   GGGG   !!!           |
|           W    W   A  A   R    R  NN   N  II  NN   N  G    G  !!!           |
|           W    W  A    A  R    R  N N  N  II  N N  N  G       !!!           |
|           W WW W  AAAAAA  RRRRR   N  N N  II  N  N N  G  GGG   !            |
|           WW  WW  A    A  R   R   N   NN  II  N   NN  G    G                |
|           W    W  A    A  R    R  N    N  II  N    N   GGGG   !!!           |
|                                                                             |
|     Your reciprocal lattice and k-lattice belong to different lattice       |
|     classes:                                                                |
|                                                                             |
|        The reciprocal lattice is body-centered tetragonal,                  |
|        whereas your k-lattice is base-centered monoclinic.                  |
|                                                                             |
|     Results are often still useful ...                                      |
|                                                                             |
 -----------------------------------------------------------------------------

 WARNING: IBZKPT: internal override: KBLOWUP is changed to .FALSE.
      ... skipping the blow-up phase ...

 
 Subroutine IBZKPT returns following result:
 ===========================================
 
 Found    116 irreducible k-points:
 
 Following reciprocal coordinates:
            Coordinates               Weight
  0.000000  0.000000  0.000000      1.000000
  0.142857 -0.000000  0.000000      4.000000
  0.285714  0.000000  0.000000      4.000000
  0.428571  0.000000  0.000000      4.000000
  0.142857  0.142857  0.000000      2.000000
  0.285714  0.142857  0.000000      4.000000
  0.428571  0.142857  0.000000      4.000000
 -0.428571  0.142857  0.000000      4.000000
 -0.285714  0.142857  0.000000      4.000000
 -0.142857  0.142857  0.000000      2.000000
  0.285714  0.285714  0.000000      2.000000
  0.428571  0.285714  0.000000      4.000000
 -0.428571  0.285714  0.000000      4.000000
 -0.285714  0.285714  0.000000      2.000000
  0.428571  0.428571  0.000000      2.000000
 -0.428571  0.428571  0.000000      2.000000
  0.000000  0.000000  0.125000      2.000000
  0.142857  0.000000  0.125000      4.000000
  0.285714  0.000000  0.125000      4.000000
  0.428571  0.000000  0.125000      4.000000
 -0.428571 -0.000000  0.125000      4.000000
 -0.285714  0.000000  0.125000      4.000000
 -0.142857  0.000000  0.125000      4.000000
  0.142857  0.142857  0.125000      2.000000
  0.285714  0.142857  0.125000      4.000000
  0.428571  0.142857  0.125000      4.000000
 -0.428571  0.142857  0.125000      4.000000
 -0.285714  0.142857  0.125000      4.000000
 -0.142857  0.142857  0.125000      4.000000
  0.285714  0.285714  0.125000      2.000000
  0.428571  0.285714  0.125000      4.000000
 -0.428571  0.285714  0.125000      4.000000
 -0.285714  0.285714  0.125000      4.000000
 -0.142857  0.285714  0.125000      4.000000
  0.428571  0.428571  0.125000      2.000000
 -0.428571  0.428571  0.125000      4.000000
 -0.285714  0.428571  0.125000      4.000000
 -0.142857  0.428571  0.125000      4.000000
 -0.428571 -0.428571  0.125000      2.000000
 -0.285714 -0.428571  0.125000      4.000000
 -0.142857 -0.428571  0.125000      4.000000
 -0.285714 -0.285714  0.125000      2.000000
 -0.142857 -0.285714  0.125000      4.000000
 -0.142857 -0.142857  0.125000      2.000000
  0.000000  0.000000  0.250000      2.000000
  0.142857  0.000000  0.250000      4.000000
  0.285714  0.000000  0.250000      4.000000
  0.428571  0.000000  0.250000      4.000000
 -0.428571 -0.000000  0.250000      4.000000
 -0.285714 -0.000000  0.250000      4.000000
 -0.142857  0.000000  0.250000      4.000000
  0.142857  0.142857  0.250000      2.000000
  0.285714  0.142857  0.250000      4.000000
  0.428571  0.142857  0.250000      4.000000
 -0.428571  0.142857  0.250000      4.000000
 -0.285714  0.142857  0.250000      4.000000
 -0.142857  0.142857  0.250000      4.000000
  0.285714  0.285714  0.250000      2.000000
  0.428571  0.285714  0.250000      4.000000
 -0.428571  0.285714  0.250000      4.000000
 -0.285714  0.285714  0.250000      4.000000
 -0.142857  0.285714  0.250000      4.000000
  0.428571  0.428571  0.250000      2.000000
 -0.428571  0.428571  0.250000      4.000000
 -0.285714  0.428571  0.250000      4.000000
 -0.142857  0.428571  0.250000      4.000000
 -0.428571 -0.428571  0.250000      2.000000
 -0.285714 -0.428571  0.250000      4.000000
 -0.142857 -0.428571  0.250000      4.000000
 -0.285714 -0.285714  0.250000      2.000000
 -0.142857 -0.285714  0.250000      4.000000
 -0.142857 -0.142857  0.250000      2.000000
  0.000000  0.000000  0.375000      2.000000
  0.142857  0.000000  0.375000      4.000000
  0.285714 -0.000000  0.375000      4.000000
  0.428571  0.000000  0.375000      4.000000
 -0.428571  0.000000  0.375000      4.000000
 -0.285714 -0.000000  0.375000      4.000000
 -0.142857  0.000000  0.375000      4.000000
  0.142857  0.142857  0.375000      2.000000
  0.285714  0.142857  0.375000      4.000000
  0.428571  0.142857  0.375000      4.000000
 -0.428571  0.142857  0.375000      4.000000
 -0.285714  0.142857  0.375000      4.000000
 -0.142857  0.142857  0.375000      4.000000
  0.285714  0.285714  0.375000      2.000000
  0.428571  0.285714  0.375000      4.000000
 -0.428571  0.285714  0.375000      4.000000
 -0.285714  0.285714  0.375000      4.000000
 -0.142857  0.285714  0.375000      4.000000
  0.428571  0.428571  0.375000      2.000000
 -0.428571  0.428571  0.375000      4.000000
 -0.285714  0.428571  0.375000      4.000000
 -0.142857  0.428571  0.375000      4.000000
 -0.428571 -0.428571  0.375000      2.000000
 -0.285714 -0.428571  0.375000      4.000000
 -0.142857 -0.428571  0.375000      4.000000
 -0.285714 -0.285714  0.375000      2.000000
 -0.142857 -0.285714  0.375000      4.000000
 -0.142857 -0.142857  0.375000      2.000000
  0.000000  0.000000  0.500000      1.000000
  0.142857  0.000000  0.500000      4.000000
  0.285714  0.000000  0.500000      4.000000
  0.428571  0.000000  0.500000      4.000000
  0.142857  0.142857  0.500000      2.000000
  0.285714  0.142857  0.500000      4.000000
  0.428571  0.142857  0.500000      4.000000
 -0.428571  0.142857  0.500000      4.000000
 -0.285714  0.142857  0.500000      4.000000
 -0.142857  0.142857  0.500000      2.000000
  0.285714  0.285714  0.500000      2.000000
  0.428571  0.285714  0.500000      4.000000
 -0.428571  0.285714  0.500000      4.000000
 -0.285714  0.285714  0.500000      2.000000
  0.428571  0.428571  0.500000      2.000000
 -0.428571  0.428571  0.500000      2.000000
 
 Following cartesian coordinates:
            Coordinates               Weight
  0.000000  0.000000  0.000000      1.000000
  0.026097  0.007918  0.000000      4.000000
  0.052193  0.015835  0.000000      4.000000
  0.078290  0.023753  0.000000      4.000000
  0.026097  0.035189  0.000000      2.000000
  0.052193  0.043107  0.000000      4.000000
  0.078290  0.051024  0.000000      4.000000
 -0.078290  0.003518  0.000000      4.000000
 -0.052193  0.011436  0.000000      4.000000
 -0.026097  0.019354  0.000000      2.000000
  0.052193  0.070378  0.000000      2.000000
  0.078290  0.078296  0.000000      4.000000
 -0.078290  0.030789  0.000000      4.000000
 -0.052193  0.038707  0.000000      2.000000
  0.078290  0.105567  0.000000      2.000000
 -0.078290  0.058061  0.000000      2.000000
  0.012558  0.016934  0.019071      2.000000
  0.038655  0.024852  0.019071      4.000000
  0.064751  0.032769  0.019071      4.000000
  0.090848  0.040687  0.019071      4.000000
 -0.065731 -0.006819  0.019071      4.000000
 -0.039635  0.001098  0.019071      4.000000
 -0.013538  0.009016  0.019071      4.000000
  0.038655  0.052123  0.019071      2.000000
  0.064751  0.060040  0.019071      4.000000
  0.090848  0.067958  0.019071      4.000000
 -0.065731  0.020452  0.019071      4.000000
 -0.039635  0.028370  0.019071      4.000000
 -0.013538  0.036287  0.019071      4.000000
  0.064751  0.087312  0.019071      2.000000
  0.090848  0.095229  0.019071      4.000000
 -0.065731  0.047723  0.019071      4.000000
 -0.039635  0.055641  0.019071      4.000000
 -0.013538  0.063559  0.019071      4.000000
  0.090848  0.122501  0.019071      2.000000
 -0.065731  0.074994  0.019071      4.000000
 -0.039635  0.082912  0.019071      4.000000
 -0.013538  0.090830  0.019071      4.000000
 -0.065731 -0.088633  0.019071      2.000000
 -0.039635 -0.080715  0.019071      4.000000
 -0.013538 -0.072798  0.019071      4.000000
 -0.039635 -0.053444  0.019071      2.000000
 -0.013538 -0.045526  0.019071      4.000000
 -0.013538 -0.018255  0.019071      2.000000
  0.025117  0.033868  0.038142      2.000000
  0.051213  0.041785  0.038142      4.000000
  0.077310  0.049703  0.038142      4.000000
  0.103406  0.057621  0.038142      4.000000
 -0.053173  0.010114  0.038142      4.000000
 -0.027077  0.018032  0.038142      4.000000
 -0.000980  0.025950  0.038142      4.000000
  0.051213  0.069057  0.038142      2.000000
  0.077310  0.076974  0.038142      4.000000
  0.103406  0.084892  0.038142      4.000000
 -0.053173  0.037386  0.038142      4.000000
 -0.027077  0.045303  0.038142      4.000000
 -0.000980  0.053221  0.038142      4.000000
  0.077310  0.104246  0.038142      2.000000
  0.103406  0.112163  0.038142      4.000000
 -0.053173  0.064657  0.038142      4.000000
 -0.027077  0.072575  0.038142      4.000000
 -0.000980  0.080492  0.038142      4.000000
  0.103406  0.139435  0.038142      2.000000
 -0.053173  0.091928  0.038142      4.000000
 -0.027077  0.099846  0.038142      4.000000
 -0.000980  0.107764  0.038142      4.000000
 -0.053173 -0.071699  0.038142      2.000000
 -0.027077 -0.063782  0.038142      4.000000
 -0.000980 -0.055864  0.038142      4.000000
 -0.027077 -0.036510  0.038142      2.000000
 -0.000980 -0.028593  0.038142      4.000000
 -0.000980 -0.001321  0.038142      2.000000
  0.037675  0.050801  0.057213      2.000000
  0.063772  0.058719  0.057213      4.000000
  0.089868  0.066637  0.057213      4.000000
  0.115965  0.074555  0.057213      4.000000
 -0.040615  0.027048  0.057213      4.000000
 -0.014518  0.034966  0.057213      4.000000
  0.011578  0.042884  0.057213      4.000000
  0.063772  0.085990  0.057213      2.000000
  0.089868  0.093908  0.057213      4.000000
  0.115965  0.101826  0.057213      4.000000
 -0.040615  0.054319  0.057213      4.000000
 -0.014518  0.062237  0.057213      4.000000
  0.011578  0.070155  0.057213      4.000000
  0.089868  0.121179  0.057213      2.000000
  0.115965  0.129097  0.057213      4.000000
 -0.040615  0.081591  0.057213      4.000000
 -0.014518  0.089508  0.057213      4.000000
  0.011578  0.097426  0.057213      4.000000
  0.115965  0.156368  0.057213      2.000000
 -0.040615  0.108862  0.057213      4.000000
 -0.014518  0.116780  0.057213      4.000000
  0.011578  0.124697  0.057213      4.000000
 -0.040615 -0.054766  0.057213      2.000000
 -0.014518 -0.046848  0.057213      4.000000
  0.011578 -0.038930  0.057213      4.000000
 -0.014518 -0.019577  0.057213      2.000000
  0.011578 -0.011659  0.057213      4.000000
  0.011578  0.015612  0.057213      2.000000
  0.050233  0.067735  0.076284      1.000000
  0.076330  0.075653  0.076284      4.000000
  0.102426  0.083571  0.076284      4.000000
  0.128523  0.091488  0.076284      4.000000
  0.076330  0.102924  0.076284      2.000000
  0.102426  0.110842  0.076284      4.000000
  0.128523  0.118760  0.076284      4.000000
 -0.028057  0.071253  0.076284      4.000000
 -0.001960  0.079171  0.076284      4.000000
  0.024137  0.087089  0.076284      2.000000
  0.102426  0.138113  0.076284      2.000000
  0.128523  0.146031  0.076284      4.000000
 -0.028057  0.098525  0.076284      4.000000
 -0.001960  0.106442  0.076284      2.000000
  0.128523  0.173302  0.076284      2.000000
 -0.028057  0.125796  0.076284      2.000000
 


--------------------------------------------------------------------------------------------------------




 Dimension of arrays:
   k-points           NKPTS =    116   k-points in BZ     NKDIM =    116   number of bands    NBANDS=     66
   number of dos      NEDOS =    301   number of ions     NIONS =     12
   non local maximal  LDIM  =      6   non local SUM 2l+1 LMDIM =     18
   total plane-waves  NPLWV = 157464
   max r-space proj   IRMAX =      1   max aug-charges    IRDMAX= 293265
   dimension x,y,z NGX =    54 NGY =   54 NGZ =   54
   dimension x,y,z NGXF=   108 NGYF=  108 NGZF=  108
   support grid    NGXF=   216 NGYF=  216 NGZF=  216
   ions per type =               4   6   2
   NGX,Y,Z   is equivalent  to a cutoff of  13.70, 13.70, 13.70 a.u.
   NGXF,Y,Z  is equivalent  to a cutoff of  27.39, 27.39, 27.39 a.u.

 SYSTEM =  routine with relax: pwdword             
 POSCAR =  EA63                                    

 Startparameter for this run:
   NWRITE =      2    write-flag & timer
   PREC   = acc       normal or accurate (medium, high low for compatibility)
   ISTART =      0    job   : 0-new  1-cont  2-samecut
   ICHARG =      2    charge: 1-file 2-atom 10-const
   ISPIN  =      1    spin polarized calculation?
   LNONCOLLINEAR =      F non collinear calculations
   LSORBIT =      F    spin-orbit coupling
   INIWAV =      1    electr: 0-lowe 1-rand  2-diag
   LASPH  =      T    aspherical Exc in radial PAW
   METAGGA=      F    non-selfconsistent MetaGGA calc.

 Electronic Relaxation 1
   ENCUT  =  600.0 eV  44.10 Ry    6.64 a.u.  13.09 13.09 13.09*2*pi/ulx,y,z
   ENINI  =  600.0     initial cutoff
   ENAUG  =  535.5 eV  augmentation charge cutoff
   NELM   =    100;   NELMIN=  6; NELMDL= -5     # of ELM steps 
   EDIFF  = 0.1E-08   stopping-criterion for ELM
   LREAL  =      F    real-space projection
   NLSPLINE    = F    spline interpolate recip. space projectors
   LCOMPAT=      F    compatible to vasp.4.4
   GGA_COMPAT  = T    GGA compatible to vasp.4.4-vasp.4.6
   LMAXPAW     = -100 max onsite density
   LMAXMIX     =    2 max onsite mixed and CHGCAR
   VOSKOWN=      0    Vosko Wilk Nusair interpolation
   ROPT   =    0.00000   0.00000   0.00000
 Ionic relaxation
   EDIFFG = 0.1E-07   stopping-criterion for IOM
   NSW    =      0    number of steps for IOM
   NBLOCK =      1;   KBLOCK =      1    inner block; outer block 
   IBRION =     -1    ionic relax: 0-MD 1-quasi-New 2-CG
   NFREE  =      0    steps in history (QN), initial steepest desc. (CG)
   ISIF   =     -1    stress and relaxation
   IWAVPR =     10    prediction:  0-non 1-charg 2-wave 3-comb
   ISYM   =      2    0-nonsym 1-usesym 2-fastsym
   LCORR  =      T    Harris-Foulkes like correction to forces

   POTIM  = 0.5000    time-step for ionic-motion
   TEIN   =    0.0    initial temperature
   TEBEG  =    0.0;   TEEND  =   0.0 temperature during run
   SMASS  =  -3.00    Nose mass-parameter (am)
   estimated Nose-frequenzy (Omega)   =  0.10E-29 period in steps = 0.13E+47 mass=  -0.982E-27a.u.
   SCALEE = 1.0000    scale energy and forces
   NPACO  =    256;   APACO  = 16.0  distance and # of slots for P.C.
   PSTRESS=    0.0 pullay stress

  Mass of Ions in am
   POMASS =  10.81 95.94 28.09
  Ionic Valenz
   ZVAL   =   3.00 14.00  4.00
  Atomic Wigner-Seitz radii
   RWIGS  =  -1.00 -1.00 -1.00
  virtual crystal weights 
   VCA    =   1.00  1.00  1.00
   NELECT =     104.0000    total number of electrons
   NUPDOWN=      -1.0000    fix difference up-down

 DOS related values:
   EMIN   =  10.00;   EMAX   =-10.00  energy-range for DOS
   EFERMI =   0.00
   ISMEAR =     0;   SIGMA  =   0.02  broadening in eV -4-tet -1-fermi 0-gaus

 Electronic relaxation 2 (details)
   IALGO  =     58    algorithm
   LDIAG  =      T    sub-space diagonalisation (order eigenvalues)
   LSUBROT=      F    optimize rotation matrix (better conditioning)
   TURBO    =      0    0=normal 1=particle mesh
   IRESTART =      0    0=no restart 2=restart with 2 vectors
   NREBOOT  =      0    no. of reboots
   NMIN     =      0    reboot dimension
   EREF     =   0.00    reference energy to select bands
   IMIX   =      4    mixing-type and parameters
     AMIX     =   0.40;   BMIX     =  1.00
     AMIX_MAG =   1.60;   BMIX_MAG =  1.00
     AMIN     =   0.10
     WC   =   100.;   INIMIX=   1;  MIXPRE=   1;  MAXMIX= -45

 Intra band minimization:
   WEIMIN = 0.0000     energy-eigenvalue tresh-hold
   EBREAK =  0.38E-11  absolut break condition
   DEPER  =   0.30     relativ break condition  

   TIME   =   0.40     timestep for ELM

  volume/ion in A,a.u.               =      15.66       105.70
  Fermi-wavevector in a.u.,A,eV,Ry     =   1.344009  2.539808 24.577017  1.806360
  Thomas-Fermi vector in A             =   2.472037
 
 Write flags
   LWAVE        =      T    write WAVECAR
   LDOWNSAMPLE  =      F    k-point downsampling of WAVECAR
   LCHARG       =      T    write CHGCAR
   LVTOT        =      F    write LOCPOT, total local potential
   LVHAR        =      F    write LOCPOT, Hartree potential only
   LELF         =      F    write electronic localiz. function (ELF)
   LORBIT       =      0    0 simple, 1 ext, 2 COOP (PROOUT), +10 PAW based schemes


 Dipole corrections
   LMONO  =      F    monopole corrections only (constant potential shift)
   LDIPOL =      F    correct potential (dipole corrections)
   IDIPOL =      0    1-x, 2-y, 3-z, 4-all directions 
   EPSILON=  1.0000000 bulk dielectric constant

 Exchange correlation treatment:
   GGA     =    --    GGA type
   LEXCH   =     8    internal setting for exchange type
   VOSKOWN=      0    Vosko Wilk Nusair interpolation
   LHFCALC =     F    Hartree Fock is set to
   LHFONE  =     F    Hartree Fock one center treatment
   AEXX    =    0.0000 exact exchange contribution

 Linear response parameters
   LEPSILON=     F    determine dielectric tensor
   LRPA    =     F    only Hartree local field effects (RPA)
   LNABLA  =     F    use nabla operator in PAW spheres
   LVEL    =     F    velocity operator in full k-point grid
   LINTERFAST=   F  fast interpolation
   KINTER  =     0    interpolate to denser k-point grid
   CSHIFT  =0.1000    complex shift for real part using Kramers Kronig
   OMEGAMAX=  -1.0    maximum frequency
   DEG_THRESHOLD= 0.2000000E-02 threshold for treating states as degnerate
   RTIME   =   -0.100 relaxation time in fs
  (WPLASMAI=    0.000 imaginary part of plasma frequency in eV, 0.658/RTIME)
   DFIELD  = 0.0000000 0.0000000 0.0000000 field for delta impulse in time
 
 Orbital magnetization related:
   ORBITALMAG=     F  switch on orbital magnetization
   LCHIMAG   =     F  perturbation theory with respect to B field
   DQ        =  0.001000  dq finite difference perturbation B field
   LLRAUG    =     F  two centre corrections for induced B field



--------------------------------------------------------------------------------------------------------


 Static calculation
 charge density and potential will be updated during run
 non-spin polarized calculation
 Conjugate gradient for all bands (Freysoldt, et al. PRB 79, 241103 (2009))
 preconditioned conjugated gradient                                        
 perform sub-space diagonalisation
    before iterative eigenvector-optimisation
 modified Broyden-mixing scheme, WC =      100.0
 initial mixing is a Kerker type mixing with AMIX =  0.4000 and BMIX =      1.0000
 Hartree-type preconditioning will be used
 using additional bands           14
 reciprocal scheme for non local part
 use partial core corrections
 no Harris-corrections to forces 
 use gradient corrections 
 use of overlap-Matrix (Vanderbilt PP)
 Gauss-broadening in eV      SIGMA  =   0.02


--------------------------------------------------------------------------------------------------------


  energy-cutoff  :      600.00
  volume of cell :      187.95
      direct lattice vectors                 reciprocal lattice vectors
     5.474171618  0.000000000 -3.604755178     0.182676041  0.055424005  0.000000000
    -1.589326375  5.238377285 -3.604755178     0.000000000  0.190898812  0.000000000
     0.000000000  0.000000000  6.554450000     0.100466463  0.135470322  0.152568103

  length of vectors
     6.554450000  6.554450000  6.554450000     0.190898812  0.190898812  0.227426349


 
 k-points in units of 2pi/SCALE and weight: EA                                      
   0.00000000  0.00000000  0.00000000       0.003
   0.02609658  0.00791772  0.00000000       0.010
   0.05219315  0.01583543  0.00000000       0.010
   0.07828973  0.02375315  0.00000000       0.010
   0.02609658  0.03518897  0.00000000       0.005
   0.05219315  0.04310669  0.00000000       0.010
   0.07828973  0.05102440  0.00000000       0.010
  -0.07828973  0.00351811  0.00000000       0.010
  -0.05219315  0.01143583  0.00000000       0.010
  -0.02609658  0.01935354  0.00000000       0.005
   0.05219315  0.07037795  0.00000000       0.005
   0.07828973  0.07829566  0.00000000       0.010
  -0.07828973  0.03078937  0.00000000       0.010
  -0.05219315  0.03870709  0.00000000       0.005
   0.07828973  0.10556692  0.00000000       0.005
  -0.07828973  0.05806063  0.00000000       0.005
   0.01255831  0.01693379  0.01907101       0.005
   0.03865489  0.02485151  0.01907101       0.010
   0.06475146  0.03276922  0.01907101       0.010
   0.09084804  0.04068694  0.01907101       0.010
  -0.06573142 -0.00681935  0.01907101       0.010
  -0.03963485  0.00109836  0.01907101       0.010
  -0.01353827  0.00901608  0.01907101       0.010
   0.03865489  0.05212276  0.01907101       0.005
   0.06475146  0.06004048  0.01907101       0.010
   0.09084804  0.06795819  0.01907101       0.010
  -0.06573142  0.02045190  0.01907101       0.010
  -0.03963485  0.02836962  0.01907101       0.010
  -0.01353827  0.03628733  0.01907101       0.010
   0.06475146  0.08731174  0.01907101       0.005
   0.09084804  0.09522945  0.01907101       0.010
  -0.06573142  0.04772316  0.01907101       0.010
  -0.03963485  0.05564088  0.01907101       0.010
  -0.01353827  0.06355859  0.01907101       0.010
   0.09084804  0.12250071  0.01907101       0.005
  -0.06573142  0.07499442  0.01907101       0.010
  -0.03963485  0.08291214  0.01907101       0.010
  -0.01353827  0.09082985  0.01907101       0.010
  -0.06573142 -0.08863313  0.01907101       0.005
  -0.03963485 -0.08071542  0.01907101       0.010
  -0.01353827 -0.07279770  0.01907101       0.010
  -0.03963485 -0.05344416  0.01907101       0.005
  -0.01353827 -0.04552644  0.01907101       0.010
  -0.01353827 -0.01825518  0.01907101       0.005
   0.02511662  0.03386758  0.03814203       0.005
   0.05121319  0.04178530  0.03814203       0.010
   0.07730977  0.04970301  0.03814203       0.010
   0.10340635  0.05762073  0.03814203       0.010
  -0.05317312  0.01011444  0.03814203       0.010
  -0.02707654  0.01803215  0.03814203       0.010
  -0.00097996  0.02594987  0.03814203       0.010
   0.05121319  0.06905655  0.03814203       0.005
   0.07730977  0.07697427  0.03814203       0.010
   0.10340635  0.08489198  0.03814203       0.010
  -0.05317312  0.03738569  0.03814203       0.010
  -0.02707654  0.04530341  0.03814203       0.010
  -0.00097996  0.05322112  0.03814203       0.010
   0.07730977  0.10424553  0.03814203       0.005
   0.10340635  0.11216324  0.03814203       0.010
  -0.05317312  0.06465695  0.03814203       0.010
  -0.02707654  0.07257467  0.03814203       0.010
  -0.00097996  0.08049238  0.03814203       0.010
   0.10340635  0.13943450  0.03814203       0.005
  -0.05317312  0.09192821  0.03814203       0.010
  -0.02707654  0.09984593  0.03814203       0.010
  -0.00097996  0.10776364  0.03814203       0.010
  -0.05317312 -0.07169934  0.03814203       0.005
  -0.02707654 -0.06378163  0.03814203       0.010
  -0.00097996 -0.05586391  0.03814203       0.010
  -0.02707654 -0.03651037  0.03814203       0.005
  -0.00097996 -0.02859265  0.03814203       0.010
  -0.00097996 -0.00132139  0.03814203       0.005
   0.03767492  0.05080137  0.05721304       0.005
   0.06377150  0.05871909  0.05721304       0.010
   0.08986808  0.06663680  0.05721304       0.010
   0.11596466  0.07455452  0.05721304       0.010
  -0.04061481  0.02704823  0.05721304       0.010
  -0.01451823  0.03496594  0.05721304       0.010
   0.01157835  0.04288366  0.05721304       0.010
   0.06377150  0.08599034  0.05721304       0.005
   0.08986808  0.09390806  0.05721304       0.010
   0.11596466  0.10182577  0.05721304       0.010
  -0.04061481  0.05431948  0.05721304       0.010
  -0.01451823  0.06223720  0.05721304       0.010
   0.01157835  0.07015491  0.05721304       0.010
   0.08986808  0.12117932  0.05721304       0.005
   0.11596466  0.12909703  0.05721304       0.010
  -0.04061481  0.08159074  0.05721304       0.010
  -0.01451823  0.08950846  0.05721304       0.010
   0.01157835  0.09742617  0.05721304       0.010
   0.11596466  0.15636829  0.05721304       0.005
  -0.04061481  0.10886200  0.05721304       0.010
  -0.01451823  0.11677972  0.05721304       0.010
   0.01157835  0.12469743  0.05721304       0.010
  -0.04061481 -0.05476555  0.05721304       0.005
  -0.01451823 -0.04684784  0.05721304       0.010
   0.01157835 -0.03893012  0.05721304       0.010
  -0.01451823 -0.01957658  0.05721304       0.005
   0.01157835 -0.01165886  0.05721304       0.010
   0.01157835  0.01561240  0.05721304       0.005
   0.05023323  0.06773516  0.07628405       0.003
   0.07632981  0.07565288  0.07628405       0.010
   0.10242639  0.08357059  0.07628405       0.010
   0.12852296  0.09148831  0.07628405       0.010
   0.07632981  0.10292413  0.07628405       0.005
   0.10242639  0.11084185  0.07628405       0.010
   0.12852296  0.11875956  0.07628405       0.010
  -0.02805650  0.07125327  0.07628405       0.010
  -0.00195992  0.07917099  0.07628405       0.010
   0.02413665  0.08708870  0.07628405       0.005
   0.10242639  0.13811311  0.07628405       0.005
   0.12852296  0.14603082  0.07628405       0.010
  -0.02805650  0.09852453  0.07628405       0.010
  -0.00195992  0.10644225  0.07628405       0.005
   0.12852296  0.17330208  0.07628405       0.005
  -0.02805650  0.12579579  0.07628405       0.005
 
 k-points in reciprocal lattice and weights: EA                                      
   0.00000000  0.00000000  0.00000000       0.003
   0.14285714 -0.00000000  0.00000000       0.010
   0.28571429  0.00000000  0.00000000       0.010
   0.42857143  0.00000000  0.00000000       0.010
   0.14285714  0.14285714  0.00000000       0.005
   0.28571429  0.14285714  0.00000000       0.010
   0.42857143  0.14285714  0.00000000       0.010
  -0.42857143  0.14285714  0.00000000       0.010
  -0.28571429  0.14285714  0.00000000       0.010
  -0.14285714  0.14285714  0.00000000       0.005
   0.28571429  0.28571429  0.00000000       0.005
   0.42857143  0.28571429  0.00000000       0.010
  -0.42857143  0.28571429  0.00000000       0.010
  -0.28571429  0.28571429  0.00000000       0.005
   0.42857143  0.42857143  0.00000000       0.005
  -0.42857143  0.42857143  0.00000000       0.005
   0.00000000  0.00000000  0.12500000       0.005
   0.14285714  0.00000000  0.12500000       0.010
   0.28571429  0.00000000  0.12500000       0.010
   0.42857143  0.00000000  0.12500000       0.010
  -0.42857143 -0.00000000  0.12500000       0.010
  -0.28571429  0.00000000  0.12500000       0.010
  -0.14285714  0.00000000  0.12500000       0.010
   0.14285714  0.14285714  0.12500000       0.005
   0.28571429  0.14285714  0.12500000       0.010
   0.42857143  0.14285714  0.12500000       0.010
  -0.42857143  0.14285714  0.12500000       0.010
  -0.28571429  0.14285714  0.12500000       0.010
  -0.14285714  0.14285714  0.12500000       0.010
   0.28571429  0.28571429  0.12500000       0.005
   0.42857143  0.28571429  0.12500000       0.010
  -0.42857143  0.28571429  0.12500000       0.010
  -0.28571429  0.28571429  0.12500000       0.010
  -0.14285714  0.28571429  0.12500000       0.010
   0.42857143  0.42857143  0.12500000       0.005
  -0.42857143  0.42857143  0.12500000       0.010
  -0.28571429  0.42857143  0.12500000       0.010
  -0.14285714  0.42857143  0.12500000       0.010
  -0.42857143 -0.42857143  0.12500000       0.005
  -0.28571429 -0.42857143  0.12500000       0.010
  -0.14285714 -0.42857143  0.12500000       0.010
  -0.28571429 -0.28571429  0.12500000       0.005
  -0.14285714 -0.28571429  0.12500000       0.010
  -0.14285714 -0.14285714  0.12500000       0.005
   0.00000000  0.00000000  0.25000000       0.005
   0.14285714  0.00000000  0.25000000       0.010
   0.28571429  0.00000000  0.25000000       0.010
   0.42857143  0.00000000  0.25000000       0.010
  -0.42857143 -0.00000000  0.25000000       0.010
  -0.28571429 -0.00000000  0.25000000       0.010
  -0.14285714  0.00000000  0.25000000       0.010
   0.14285714  0.14285714  0.25000000       0.005
   0.28571429  0.14285714  0.25000000       0.010
   0.42857143  0.14285714  0.25000000       0.010
  -0.42857143  0.14285714  0.25000000       0.010
  -0.28571429  0.14285714  0.25000000       0.010
  -0.14285714  0.14285714  0.25000000       0.010
   0.28571429  0.28571429  0.25000000       0.005
   0.42857143  0.28571429  0.25000000       0.010
  -0.42857143  0.28571429  0.25000000       0.010
  -0.28571429  0.28571429  0.25000000       0.010
  -0.14285714  0.28571429  0.25000000       0.010
   0.42857143  0.42857143  0.25000000       0.005
  -0.42857143  0.42857143  0.25000000       0.010
  -0.28571429  0.42857143  0.25000000       0.010
  -0.14285714  0.42857143  0.25000000       0.010
  -0.42857143 -0.42857143  0.25000000       0.005
  -0.28571429 -0.42857143  0.25000000       0.010
  -0.14285714 -0.42857143  0.25000000       0.010
  -0.28571429 -0.28571429  0.25000000       0.005
  -0.14285714 -0.28571429  0.25000000       0.010
  -0.14285714 -0.14285714  0.25000000       0.005
   0.00000000  0.00000000  0.37500000       0.005
   0.14285714  0.00000000  0.37500000       0.010
   0.28571429 -0.00000000  0.37500000       0.010
   0.42857143  0.00000000  0.37500000       0.010
  -0.42857143  0.00000000  0.37500000       0.010
  -0.28571429 -0.00000000  0.37500000       0.010
  -0.14285714  0.00000000  0.37500000       0.010
   0.14285714  0.14285714  0.37500000       0.005
   0.28571429  0.14285714  0.37500000       0.010
   0.42857143  0.14285714  0.37500000       0.010
  -0.42857143  0.14285714  0.37500000       0.010
  -0.28571429  0.14285714  0.37500000       0.010
  -0.14285714  0.14285714  0.37500000       0.010
   0.28571429  0.28571429  0.37500000       0.005
   0.42857143  0.28571429  0.37500000       0.010
  -0.42857143  0.28571429  0.37500000       0.010
  -0.28571429  0.28571429  0.37500000       0.010
  -0.14285714  0.28571429  0.37500000       0.010
   0.42857143  0.42857143  0.37500000       0.005
  -0.42857143  0.42857143  0.37500000       0.010
  -0.28571429  0.42857143  0.37500000       0.010
  -0.14285714  0.42857143  0.37500000       0.010
  -0.42857143 -0.42857143  0.37500000       0.005
  -0.28571429 -0.42857143  0.37500000       0.010
  -0.14285714 -0.42857143  0.37500000       0.010
  -0.28571429 -0.28571429  0.37500000       0.005
  -0.14285714 -0.28571429  0.37500000       0.010
  -0.14285714 -0.14285714  0.37500000       0.005
   0.00000000  0.00000000  0.50000000       0.003
   0.14285714  0.00000000  0.50000000       0.010
   0.28571429  0.00000000  0.50000000       0.010
   0.42857143  0.00000000  0.50000000       0.010
   0.14285714  0.14285714  0.50000000       0.005
   0.28571429  0.14285714  0.50000000       0.010
   0.42857143  0.14285714  0.50000000       0.010
  -0.42857143  0.14285714  0.50000000       0.010
  -0.28571429  0.14285714  0.50000000       0.010
  -0.14285714  0.14285714  0.50000000       0.005
   0.28571429  0.28571429  0.50000000       0.005
   0.42857143  0.28571429  0.50000000       0.010
  -0.42857143  0.28571429  0.50000000       0.010
  -0.28571429  0.28571429  0.50000000       0.005
   0.42857143  0.42857143  0.50000000       0.005
  -0.42857143  0.42857143  0.50000000       0.005
 
 position of ions in fractional coordinates (direct lattice) 
   0.74361000  0.24361000  0.98722000
   0.25639000  0.75639000  0.01278000
   0.24361000  0.25639000  0.50000000
   0.75639000  0.74361000  0.50000000
   0.50000000  0.50000000  0.50000000
   0.00000000  0.00000000  0.00000000
   0.50000000  0.00000000  0.00000000
   0.00000000  0.00000000  0.50000000
   0.00000000  0.50000000  0.00000000
   0.50000000  0.50000000  0.00000000
   0.25000000  0.25000000  0.00000000
   0.75000000  0.75000000  0.00000000
 
 position of ions in cartesian coordinates  (Angst):
   3.68347296  1.27612109  2.91199772
   0.20137228  3.96225619 -3.56705808
   0.92607556  1.34306755  1.47484741
   2.95876968  3.89530973 -2.12990777
   1.94242262  2.61918864 -0.32753018
   0.00000000  0.00000000  0.00000000
   2.73708581  0.00000000 -1.80237759
   0.00000000  0.00000000  3.27722500
  -0.79466319  2.61918864 -1.80237759
   1.94242262  2.61918864 -3.60475518
   0.97121131  1.30959432 -1.80237759
   2.91363393  3.92878296 -5.40713277
 


--------------------------------------------------------------------------------------------------------


 k-point   1 :   0.0000 0.0000 0.0000  plane waves:    6259
 k-point   2 :   0.1429-0.0000 0.0000  plane waves:    6248
 k-point   3 :   0.2857 0.0000 0.0000  plane waves:    6268
 k-point   4 :   0.4286 0.0000 0.0000  plane waves:    6252
 k-point   5 :   0.1429 0.1429 0.0000  plane waves:    6280
 k-point   6 :   0.2857 0.1429 0.0000  plane waves:    6266
 k-point   7 :   0.4286 0.1429 0.0000  plane waves:    6262
 k-point   8 :  -0.4286 0.1429 0.0000  plane waves:    6273
 k-point   9 :  -0.2857 0.1429 0.0000  plane waves:    6277
 k-point  10 :  -0.1429 0.1429 0.0000  plane waves:    6271
 k-point  11 :   0.2857 0.2857 0.0000  plane waves:    6277
 k-point  12 :   0.4286 0.2857 0.0000  plane waves:    6270
 k-point  13 :  -0.4286 0.2857 0.0000  plane waves:    6266
 k-point  14 :  -0.2857 0.2857 0.0000  plane waves:    6270
 k-point  15 :   0.4286 0.4286 0.0000  plane waves:    6281
 k-point  16 :  -0.4286 0.4286 0.0000  plane waves:    6262
 k-point  17 :   0.0000 0.0000 0.1250  plane waves:    6271
 k-point  18 :   0.1429 0.0000 0.1250  plane waves:    6271
 k-point  19 :   0.2857 0.0000 0.1250  plane waves:    6271
 k-point  20 :   0.4286 0.0000 0.1250  plane waves:    6257
 k-point  21 :  -0.4286-0.0000 0.1250  plane waves:    6269
 k-point  22 :  -0.2857 0.0000 0.1250  plane waves:    6280
 k-point  23 :  -0.1429 0.0000 0.1250  plane waves:    6252
 k-point  24 :   0.1429 0.1429 0.1250  plane waves:    6256
 k-point  25 :   0.2857 0.1429 0.1250  plane waves:    6270
 k-point  26 :   0.4286 0.1429 0.1250  plane waves:    6259
 k-point  27 :  -0.4286 0.1429 0.1250  plane waves:    6266
 k-point  28 :  -0.2857 0.1429 0.1250  plane waves:    6274
 k-point  29 :  -0.1429 0.1429 0.1250  plane waves:    6261
 k-point  30 :   0.2857 0.2857 0.1250  plane waves:    6258
 k-point  31 :   0.4286 0.2857 0.1250  plane waves:    6258
 k-point  32 :  -0.4286 0.2857 0.1250  plane waves:    6271
 k-point  33 :  -0.2857 0.2857 0.1250  plane waves:    6265
 k-point  34 :  -0.1429 0.2857 0.1250  plane waves:    6268
 k-point  35 :   0.4286 0.4286 0.1250  plane waves:    6287
 k-point  36 :  -0.4286 0.4286 0.1250  plane waves:    6283
 k-point  37 :  -0.2857 0.4286 0.1250  plane waves:    6268
 k-point  38 :  -0.1429 0.4286 0.1250  plane waves:    6270
 k-point  39 :  -0.4286-0.4286 0.1250  plane waves:    6268
 k-point  40 :  -0.2857-0.4286 0.1250  plane waves:    6283
 k-point  41 :  -0.1429-0.4286 0.1250  plane waves:    6277
 k-point  42 :  -0.2857-0.2857 0.1250  plane waves:    6291
 k-point  43 :  -0.1429-0.2857 0.1250  plane waves:    6273
 k-point  44 :  -0.1429-0.1429 0.1250  plane waves:    6276
 k-point  45 :   0.0000 0.0000 0.2500  plane waves:    6268
 k-point  46 :   0.1429 0.0000 0.2500  plane waves:    6273
 k-point  47 :   0.2857 0.0000 0.2500  plane waves:    6269
 k-point  48 :   0.4286 0.0000 0.2500  plane waves:    6272
 k-point  49 :  -0.4286-0.0000 0.2500  plane waves:    6273
 k-point  50 :  -0.2857-0.0000 0.2500  plane waves:    6273
 k-point  51 :  -0.1429 0.0000 0.2500  plane waves:    6270
 k-point  52 :   0.1429 0.1429 0.2500  plane waves:    6265
 k-point  53 :   0.2857 0.1429 0.2500  plane waves:    6259
 k-point  54 :   0.4286 0.1429 0.2500  plane waves:    6262
 k-point  55 :  -0.4286 0.1429 0.2500  plane waves:    6266
 k-point  56 :  -0.2857 0.1429 0.2500  plane waves:    6270
 k-point  57 :  -0.1429 0.1429 0.2500  plane waves:    6279
 k-point  58 :   0.2857 0.2857 0.2500  plane waves:    6249
 k-point  59 :   0.4286 0.2857 0.2500  plane waves:    6271
 k-point  60 :  -0.4286 0.2857 0.2500  plane waves:    6269
 k-point  61 :  -0.2857 0.2857 0.2500  plane waves:    6278
 k-point  62 :  -0.1429 0.2857 0.2500  plane waves:    6267
 k-point  63 :   0.4286 0.4286 0.2500  plane waves:    6279
 k-point  64 :  -0.4286 0.4286 0.2500  plane waves:    6257
 k-point  65 :  -0.2857 0.4286 0.2500  plane waves:    6283
 k-point  66 :  -0.1429 0.4286 0.2500  plane waves:    6270
 k-point  67 :  -0.4286-0.4286 0.2500  plane waves:    6283
 k-point  68 :  -0.2857-0.4286 0.2500  plane waves:    6297
 k-point  69 :  -0.1429-0.4286 0.2500  plane waves:    6288
 k-point  70 :  -0.2857-0.2857 0.2500  plane waves:    6303
 k-point  71 :  -0.1429-0.2857 0.2500  plane waves:    6283
 k-point  72 :  -0.1429-0.1429 0.2500  plane waves:    6276
 k-point  73 :   0.0000 0.0000 0.3750  plane waves:    6256
 k-point  74 :   0.1429 0.0000 0.3750  plane waves:    6279
 k-point  75 :   0.2857-0.0000 0.3750  plane waves:    6269
 k-point  76 :   0.4286 0.0000 0.3750  plane waves:    6273
 k-point  77 :  -0.4286 0.0000 0.3750  plane waves:    6261
 k-point  78 :  -0.2857-0.0000 0.3750  plane waves:    6262
 k-point  79 :  -0.1429 0.0000 0.3750  plane waves:    6272
 k-point  80 :   0.1429 0.1429 0.3750  plane waves:    6260
 k-point  81 :   0.2857 0.1429 0.3750  plane waves:    6256
 k-point  82 :   0.4286 0.1429 0.3750  plane waves:    6263
 k-point  83 :  -0.4286 0.1429 0.3750  plane waves:    6266
 k-point  84 :  -0.2857 0.1429 0.3750  plane waves:    6267
 k-point  85 :  -0.1429 0.1429 0.3750  plane waves:    6272
 k-point  86 :   0.2857 0.2857 0.3750  plane waves:    6273
 k-point  87 :   0.4286 0.2857 0.3750  plane waves:    6270
 k-point  88 :  -0.4286 0.2857 0.3750  plane waves:    6274
 k-point  89 :  -0.2857 0.2857 0.3750  plane waves:    6269
 k-point  90 :  -0.1429 0.2857 0.3750  plane waves:    6272
 k-point  91 :   0.4286 0.4286 0.3750  plane waves:    6289
 k-point  92 :  -0.4286 0.4286 0.3750  plane waves:    6292
 k-point  93 :  -0.2857 0.4286 0.3750  plane waves:    6295
 k-point  94 :  -0.1429 0.4286 0.3750  plane waves:    6284
 k-point  95 :  -0.4286-0.4286 0.3750  plane waves:    6314
 k-point  96 :  -0.2857-0.4286 0.3750  plane waves:    6305
 k-point  97 :  -0.1429-0.4286 0.3750  plane waves:    6281
 k-point  98 :  -0.2857-0.2857 0.3750  plane waves:    6297
 k-point  99 :  -0.1429-0.2857 0.3750  plane waves:    6269
 k-point 100 :  -0.1429-0.1429 0.3750  plane waves:    6257
 k-point 101 :   0.0000 0.0000 0.5000  plane waves:    6278
 k-point 102 :   0.1429 0.0000 0.5000  plane waves:    6272
 k-point 103 :   0.2857 0.0000 0.5000  plane waves:    6276
 k-point 104 :   0.4286 0.0000 0.5000  plane waves:    6249
 k-point 105 :   0.1429 0.1429 0.5000  plane waves:    6256
 k-point 106 :   0.2857 0.1429 0.5000  plane waves:    6267
 k-point 107 :   0.4286 0.1429 0.5000  plane waves:    6270
 k-point 108 :  -0.4286 0.1429 0.5000  plane waves:    6278
 k-point 109 :  -0.2857 0.1429 0.5000  plane waves:    6266
 k-point 110 :  -0.1429 0.1429 0.5000  plane waves:    6282
 k-point 111 :   0.2857 0.2857 0.5000  plane waves:    6292
 k-point 112 :   0.4286 0.2857 0.5000  plane waves:    6293
 k-point 113 :  -0.4286 0.2857 0.5000  plane waves:    6296
 k-point 114 :  -0.2857 0.2857 0.5000  plane waves:    6272
 k-point 115 :   0.4286 0.4286 0.5000  plane waves:    6308
 k-point 116 :  -0.4286 0.4286 0.5000  plane waves:    6320

 maximum and minimum number of plane-waves per node :      3190     3083

 maximum number of plane-waves:      6320
 maximum index in each direction: 
   IXMAX=   13   IYMAX=   13   IZMAX=   13
   IXMIN=  -13   IYMIN=  -13   IZMIN=  -13


 parallel 3D FFT for wavefunctions:
    minimum data exchange during FFTs selected (reduces bandwidth)
 parallel 3D FFT for charge:
    minimum data exchange during FFTs selected (reduces bandwidth)


 total amount of memory used by VASP MPI-rank0   422067. kBytes
=======================================================================

   base      :      30000. kBytes
   nonl-proj :     160570. kBytes
   fftplans  :      17766. kBytes
   grid      :      13358. kBytes
   one-center:         93. kBytes
   wavefun   :     200280. kBytes
 
     INWAV:  cpu time    0.0001: real time    0.0001
 Broyden mixing: mesh for mixing (old mesh)
   NGX = 27   NGY = 27   NGZ = 27
  (NGX  =108   NGY  =108   NGZ  =108)
  gives a total of  19683 points

 initial charge density was supplied:
 charge density of overlapping atoms calculated
 number of electron     104.0000000 magnetization 
 keeping initial charge density in first step


--------------------------------------------------------------------------------------------------------


 Maximum index for augmentation-charges        23783 (set IRDMAX)


--------------------------------------------------------------------------------------------------------


 First call to EWALD:  gamma=   0.309
 Maximum number of real-space cells 3x 3x 3
 Maximum number of reciprocal cells 3x 3x 3

    FEWALD:  cpu time    0.0323: real time    0.0325


--------------------------------------- Iteration      1(   1)  ---------------------------------------


    POTLOK:  cpu time    0.2259: real time    0.2278
    SETDIJ:  cpu time    0.6065: real time    0.6108
    TRIAL :  cpu time   33.5065: real time   33.8213
    CORREC:  cpu time    0.0021: real time    0.0021
    --------------------------------------------
      LOOP:  cpu time   34.4667: real time   34.8343

 eigenvalue-minimisations  : 15852
 total energy-change (2. order) : 0.1038808E+04  (-0.6928203E+04)
 number of electron     104.0000000 magnetization 
 augmentation part      104.0000000 magnetization 

 Free energy of the ion-electron system (eV)
  ---------------------------------------------------
  alpha Z        PSCENC =       497.08563843
  Ewald energy   TEWEN  =     -8546.35319940
  -Hartree energ DENC   =     -2967.80848696
  -exchange      EXHF   =         0.00000000
  -V(xc)+E(xc)   XCENC  =       480.17436193
  PAW double counting   =      9250.47132855    -9210.50234729
  entropy T*S    EENTRO =        -0.00107903
  eigenvalues    EBANDS =      -128.76489819
  atomic energy  EATOM  =     11664.50664672
  ---------------------------------------------------
  free energy    TOTEN  =      1038.80796476 eV

  energy without entropy =     1038.80904379  energy(sigma->0) =     1038.80850428


--------------------------------------------------------------------------------------------------------




--------------------------------------- Iteration      1(   2)  ---------------------------------------


    TRIAL :  cpu time   37.6427: real time   37.9931
    CORREC:  cpu time    0.0021: real time    0.0021
    --------------------------------------------
      LOOP:  cpu time   37.6469: real time   37.9980

 eigenvalue-minimisations  : 17286
 total energy-change (2. order) :-0.1224030E+04  (-0.1196109E+04)
 number of electron     104.0000000 magnetization 
 augmentation part      104.0000000 magnetization 

 Free energy of the ion-electron system (eV)
  ---------------------------------------------------
  alpha Z        PSCENC =       497.08563843
  Ewald energy   TEWEN  =     -8546.35319940
  -Hartree energ DENC   =     -2967.80848696
  -exchange      EXHF   =         0.00000000
  -V(xc)+E(xc)   XCENC  =       480.17436193
  PAW double counting   =      9250.47132855    -9210.50234729
  entropy T*S    EENTRO =        -0.00214556
  eigenvalues    EBANDS =     -1352.79423256
  atomic energy  EATOM  =     11664.50664672
  ---------------------------------------------------
  free energy    TOTEN  =      -185.22243614 eV

  energy without entropy =     -185.22029058  energy(sigma->0) =     -185.22136336


--------------------------------------------------------------------------------------------------------




--------------------------------------- Iteration      1(   3)  ---------------------------------------


    TRIAL :  cpu time   41.7088: real time   42.0895
    CORREC:  cpu time    0.0022: real time    0.0022
    --------------------------------------------
      LOOP:  cpu time   41.7133: real time   42.0946

 eigenvalue-minimisations  : 20580
 total energy-change (2. order) :-0.4907481E+02  (-0.4773489E+02)
 number of electron     104.0000000 magnetization 
 augmentation part      104.0000000 magnetization 

 Free energy of the ion-electron system (eV)
  ---------------------------------------------------
  alpha Z        PSCENC =       497.08563843
  Ewald energy   TEWEN  =     -8546.35319940
  -Hartree energ DENC   =     -2967.80848696
  -exchange      EXHF   =         0.00000000
  -V(xc)+E(xc)   XCENC  =       480.17436193
  PAW double counting   =      9250.47132855    -9210.50234729
  entropy T*S    EENTRO =        -0.00200440
  eigenvalues    EBANDS =     -1401.86917915
  atomic energy  EATOM  =     11664.50664672
  ---------------------------------------------------
  free energy    TOTEN  =      -234.29724157 eV

  energy without entropy =     -234.29523717  energy(sigma->0) =     -234.29623937


--------------------------------------------------------------------------------------------------------




--------------------------------------- Iteration      1(   4)  ---------------------------------------


    TRIAL :  cpu time   39.0812: real time   39.4442
    CORREC:  cpu time    0.0022: real time    0.0023
    --------------------------------------------
      LOOP:  cpu time   39.0846: real time   39.4493

 eigenvalue-minimisations  : 18804
 total energy-change (2. order) :-0.1107646E+01  (-0.1094923E+01)
 number of electron     104.0000000 magnetization 
 augmentation part      104.0000000 magnetization 

 Free energy of the ion-electron system (eV)
  ---------------------------------------------------
  alpha Z        PSCENC =       497.08563843
  Ewald energy   TEWEN  =     -8546.35319940
  -Hartree energ DENC   =     -2967.80848696
  -exchange      EXHF   =         0.00000000
  -V(xc)+E(xc)   XCENC  =       480.17436193
  PAW double counting   =      9250.47132855    -9210.50234729
  entropy T*S    EENTRO =        -0.00194150
  eigenvalues    EBANDS =     -1402.97688774
  atomic energy  EATOM  =     11664.50664672
  ---------------------------------------------------
  free energy    TOTEN  =      -235.40488726 eV

  energy without entropy =     -235.40294576  energy(sigma->0) =     -235.40391651


--------------------------------------------------------------------------------------------------------




--------------------------------------- Iteration      1(   5)  ---------------------------------------


    TRIAL :  cpu time   39.7395: real time   40.1092
    CORREC:  cpu time    0.0020: real time    0.0020
    CHARGE:  cpu time    2.3873: real time    2.4045
    --------------------------------------------
      LOOP:  cpu time   42.1298: real time   42.5187

 eigenvalue-minimisations  : 19296
 total energy-change (2. order) :-0.2461416E-01  (-0.2454621E-01)
 number of electron     104.0000001 magnetization 
 augmentation part       11.9107441 magnetization 

 Free energy of the ion-electron system (eV)
  ---------------------------------------------------
  alpha Z        PSCENC =       497.08563843
  Ewald energy   TEWEN  =     -8546.35319940
  -Hartree energ DENC   =     -2967.80848696
  -exchange      EXHF   =         0.00000000
  -V(xc)+E(xc)   XCENC  =       480.17436193
  PAW double counting   =      9250.47132855    -9210.50234729
  entropy T*S    EENTRO =        -0.00196040
  eigenvalues    EBANDS =     -1403.00148300
  atomic energy  EATOM  =     11664.50664672
  ---------------------------------------------------
  free energy    TOTEN  =      -235.42950142 eV

  energy without entropy =     -235.42754102  energy(sigma->0) =     -235.42852122


--------------------------------------------------------------------------------------------------------




--------------------------------------- Iteration      1(   6)  ---------------------------------------


    POTLOK:  cpu time    0.1965: real time    0.1976
    SETDIJ:  cpu time    0.6463: real time    0.6510
    TRIAL :  cpu time   29.9342: real time   30.2949
    CORREC:  cpu time    9.3161: real time    9.3874
    CHARGE:  cpu time    2.9672: real time    2.9867
    --------------------------------------------
      LOOP:  cpu time   43.0904: real time   43.5484

 eigenvalue-minimisations  :     0
 total energy-change (2. order) : 0.6433027E+02  (-0.1503913E+02)
 number of electron     104.0000001 magnetization 
 augmentation part       14.1977031 magnetization 

 Free energy of the ion-electron system (eV)
  ---------------------------------------------------
  alpha Z        PSCENC =       497.08563843
  Ewald energy   TEWEN  =     -8546.35319940
  -Hartree energ DENC   =     -2505.24710273
  -exchange      EXHF   =         0.00000000
  -V(xc)+E(xc)   XCENC  =       474.24605415
  PAW double counting   =     13908.26856780   -13912.73406286
  entropy T*S    EENTRO =        -0.00236565
  eigenvalues    EBANDS =     -1750.86981284
  atomic energy  EATOM  =     11664.50664672
  ---------------------------------------------------
  free energy    TOTEN  =      -171.09923114 eV

  energy without entropy =     -171.09686549  energy(sigma->0) =     -171.09804831


--------------------------------------------------------------------------------------------------------




--------------------------------------- Iteration      1(   7)  ---------------------------------------


    POTLOK:  cpu time    0.1480: real time    0.1489
    SETDIJ:  cpu time    1.1140: real time    1.1214
    TRIAL :  cpu time   33.4320: real time   33.6933
    CORREC:  cpu time   12.9998: real time   13.0866
    CHARGE:  cpu time    2.8965: real time    2.9146
    --------------------------------------------
      LOOP:  cpu time   50.5909: real time   50.9667

 eigenvalue-minimisations  :     0
 total energy-change (2. order) :-0.1526629E+02  (-0.2939231E+01)
 number of electron     104.0000000 magnetization 
 augmentation part       14.1857477 magnetization 

 Free energy of the ion-electron system (eV)
  ---------------------------------------------------
  alpha Z        PSCENC =       497.08563843
  Ewald energy   TEWEN  =     -8546.35319940
  -Hartree energ DENC   =     -2790.76703362
  -exchange      EXHF   =         0.00000000
  -V(xc)+E(xc)   XCENC  =       486.69028074
  PAW double counting   =     13301.54563217   -13288.61466321
  entropy T*S    EENTRO =        -0.00245038
  eigenvalues    EBANDS =     -1510.45645902
  atomic energy  EATOM  =     11664.50664672
  ---------------------------------------------------
  free energy    TOTEN  =      -186.36552285 eV

  energy without entropy =     -186.36307247  energy(sigma->0) =     -186.36429766


--------------------------------------------------------------------------------------------------------




--------------------------------------- Iteration      1(   8)  ---------------------------------------


    POTLOK:  cpu time    0.1482: real time    0.1492
    SETDIJ:  cpu time    1.0492: real time    1.0555
    TRIAL :  cpu time   33.9771: real time   34.2441
    CORREC:  cpu time   11.0521: real time   11.1280
    CHARGE:  cpu time    3.6294: real time    3.6524
    --------------------------------------------
      LOOP:  cpu time   49.8582: real time   50.2322

 eigenvalue-minimisations  :     0
 total energy-change (2. order) :-0.2935964E+01  (-0.9010007E+00)
 number of electron     104.0000000 magnetization 
 augmentation part       14.1331040 magnetization 

 Free energy of the ion-electron system (eV)
  ---------------------------------------------------
  alpha Z        PSCENC =       497.08563843
  Ewald energy   TEWEN  =     -8546.35319940
  -Hartree energ DENC   =     -2829.60032005
  -exchange      EXHF   =         0.00000000
  -V(xc)+E(xc)   XCENC  =       488.57204681
  PAW double counting   =     13197.39710025   -13180.42928461
  entropy T*S    EENTRO =        -0.00235272
  eigenvalues    EBANDS =     -1480.47766432
  atomic energy  EATOM  =     11664.50664672
  ---------------------------------------------------
  free energy    TOTEN  =      -189.30148657 eV

  energy without entropy =     -189.29913385  energy(sigma->0) =     -189.30031021


--------------------------------------------------------------------------------------------------------




--------------------------------------- Iteration      1(   9)  ---------------------------------------


    POTLOK:  cpu time    0.1476: real time    0.1485
    SETDIJ:  cpu time    0.6688: real time    0.6734
    TRIAL :  cpu time   31.4212: real time   31.6687
    CORREC:  cpu time   11.3983: real time   11.4803
    CHARGE:  cpu time    3.3326: real time    3.3558
    --------------------------------------------
      LOOP:  cpu time   46.9774: real time   47.3363

 eigenvalue-minimisations  :     0
 total energy-change (2. order) :-0.9011478E+00  (-0.2733392E+00)
 number of electron     104.0000000 magnetization 
 augmentation part       14.1304046 magnetization 

 Free energy of the ion-electron system (eV)
  ---------------------------------------------------
  alpha Z        PSCENC =       497.08563843
  Ewald energy   TEWEN  =     -8546.35319940
  -Hartree energ DENC   =     -2829.50212959
  -exchange      EXHF   =         0.00000000
  -V(xc)+E(xc)   XCENC  =       488.73366052
  PAW double counting   =     13222.52994788   -13203.24900974
  entropy T*S    EENTRO =        -0.00228547
  eigenvalues    EBANDS =     -1483.95183642
  atomic energy  EATOM  =     11664.50664672
  ---------------------------------------------------
  free energy    TOTEN  =      -190.20263433 eV

  energy without entropy =     -190.20034886  energy(sigma->0) =     -190.20149160


--------------------------------------------------------------------------------------------------------




--------------------------------------- Iteration      1(  10)  ---------------------------------------


    POTLOK:  cpu time    0.1477: real time    0.1487
    SETDIJ:  cpu time    0.6531: real time    0.6575
    TRIAL :  cpu time   31.6777: real time   31.9234
    CORREC:  cpu time   11.4746: real time   11.5551
    CHARGE:  cpu time    2.9939: real time    3.0144
    --------------------------------------------
      LOOP:  cpu time   46.9558: real time   47.3085

 eigenvalue-minimisations  :     0
 total energy-change (2. order) :-0.2734197E+00  (-0.1393125E+00)
 number of electron     104.0000000 magnetization 
 augmentation part       14.1297476 magnetization 

 Free energy of the ion-electron system (eV)
  ---------------------------------------------------
  alpha Z        PSCENC =       497.08563843
  Ewald energy   TEWEN  =     -8546.35319940
  -Hartree energ DENC   =     -2831.06158570
  -exchange      EXHF   =         0.00000000
  -V(xc)+E(xc)   XCENC  =       488.86784714
  PAW double counting   =     13269.48273778   -13248.89902999
  entropy T*S    EENTRO =        -0.00198960
  eigenvalues    EBANDS =     -1484.10282352
  atomic energy  EATOM  =     11664.50664672
  ---------------------------------------------------
  free energy    TOTEN  =      -190.47605401 eV

  energy without entropy =     -190.47406441  energy(sigma->0) =     -190.47505921


--------------------------------------------------------------------------------------------------------




--------------------------------------- Iteration      1(  11)  ---------------------------------------


[...]
     58       8.6594      0.00000
     59       9.0045      0.00000
     60       9.1888      0.00000
     61       9.9426      0.00000
     62      10.0442      0.00000
     63      10.4038      0.00000
     64      10.5059      0.00000
     65      10.7538      0.00000
     66      11.1922      0.00000

 k-point   110 :      -0.1429    0.1429    0.5000
  band No.  band energies     occupation 
      1     -55.2408      2.00000
      2     -55.2392      2.00000
      3     -55.1170      2.00000
      4     -55.1036      2.00000
      5     -55.1034      2.00000
      6     -55.0919      2.00000
      7     -28.9036      2.00000
      8     -28.8724      2.00000
      9     -28.8347      2.00000
     10     -28.7583      2.00000
     11     -28.7359      2.00000
     12     -28.7005      2.00000
     13     -28.6702      2.00000
     14     -28.6339      2.00000
     15     -28.6334      2.00000
     16     -28.6277      2.00000
     17     -28.6246      2.00000
     18     -28.5882      2.00000
     19     -28.5787      2.00000
     20     -28.5237      2.00000
     21     -28.3514      2.00000
     22     -28.2697      2.00000
     23     -28.2662      2.00000
     24     -28.2043      2.00000
     25      -2.0509      2.00000
     26      -1.6027      2.00000
     27      -0.2552      2.00000
     28       0.0336      2.00000
     29       0.4540      2.00000
     30       1.3254      2.00000
     31       2.4591      2.00000
     32       2.4732      2.00000
     33       2.9001      2.00000
     34       3.6096      2.00000
     35       3.8997      2.00000
     36       4.0339      2.00000
     37       4.2208      2.00000
     38       4.2589      2.00000
     39       4.2678      2.00000
     40       4.3653      2.00000
     41       4.5832      2.00000
     42       4.6258      2.00000
     43       4.7648      2.00000
     44       4.8268      2.00000
     45       5.6155      2.00000
     46       5.9096      2.00000
     47       6.1713      2.00000
     48       6.3097      2.00000
     49       6.5350      2.00000
     50       7.0214      2.00000
     51       7.2787      2.00000
     52       7.4146      2.00000
     53       7.7094      2.00000
     54       8.1547      0.00000
     55       8.2741      0.00000
     56       8.3123      0.00000
     57       8.4412      0.00000
     58       8.5924      0.00000
     59       8.8422      0.00000
     60       9.1937      0.00000
     61       9.9683      0.00000
     62       9.9749      0.00000
     63      10.0930      0.00000
     64      10.2373      0.00000
     65      11.0138      0.00000
     66      11.3641      0.00000

 k-point   111 :       0.2857    0.2857    0.5000
  band No.  band energies     occupation 
      1     -55.2405      2.00000
      2     -55.2398      2.00000
      3     -55.1261      2.00000
      4     -55.1038      2.00000
      5     -55.1035      2.00000
      6     -55.0820      2.00000
      7     -28.9969      2.00000
      8     -28.8763      2.00000
      9     -28.7940      2.00000
     10     -28.7581      2.00000
     11     -28.7567      2.00000
     12     -28.7026      2.00000
     13     -28.6818      2.00000
     14     -28.6742      2.00000
     15     -28.6083      2.00000
     16     -28.6070      2.00000
     17     -28.5941      2.00000
     18     -28.5590      2.00000
     19     -28.5572      2.00000
     20     -28.5528      2.00000
     21     -28.4109      2.00000
     22     -28.2477      2.00000
     23     -28.2458      2.00000
     24     -28.1457      2.00000
     25      -2.6621      2.00000
     26      -1.1834      2.00000
     27      -0.5481      2.00000
     28       0.6517      2.00000
     29       0.7899      2.00000
     30       0.8408      2.00000
     31       2.3627      2.00000
     32       2.3893      2.00000
     33       3.1297      2.00000
     34       3.2622      2.00000
     35       3.8476      2.00000
     36       3.9435      2.00000
     37       3.9838      2.00000
     38       4.2195      2.00000
     39       4.4511      2.00000
     40       4.5882      2.00000
     41       4.6470      2.00000
     42       4.6880      2.00000
     43       5.0098      2.00000
     44       5.0911      2.00000
     45       5.4239      2.00000
     46       5.5677      2.00000
     47       5.6608      2.00000
     48       6.6818      2.00000
     49       6.7109      2.00000
     50       7.0334      2.00000
     51       7.3096      2.00000
     52       7.6227      2.00000
     53       7.8727      0.00000
     54       8.1434      0.00000
     55       8.2723      0.00000
     56       8.3356      0.00000
     57       8.5873      0.00000
     58       9.0637      0.00000
     59       9.2030      0.00000
     60       9.2032      0.00000
     61       9.8120      0.00000
     62      10.0262      0.00000
     63      10.0891      0.00000
     64      10.3842      0.00000
     65      10.6943      0.00000
     66      11.3120      0.00000

 k-point   112 :       0.4286    0.2857    0.5000
  band No.  band energies     occupation 
      1     -55.2399      2.00000
      2     -55.2398      2.00000
      3     -55.1296      2.00000
      4     -55.1063      2.00000
      5     -55.1009      2.00000
      6     -55.0793      2.00000
      7     -28.9955      2.00000
      8     -28.8692      2.00000
      9     -28.7805      2.00000
     10     -28.7771      2.00000
     11     -28.7596      2.00000
     12     -28.6792      2.00000
     13     -28.6705      2.00000
     14     -28.6700      2.00000
     15     -28.6392      2.00000
     16     -28.5974      2.00000
     17     -28.5931      2.00000
     18     -28.5774      2.00000
     19     -28.5714      2.00000
     20     -28.5547      2.00000
     21     -28.4270      2.00000
     22     -28.2557      2.00000
     23     -28.2222      2.00000
     24     -28.1289      2.00000
     25      -2.6369      2.00000
     26      -1.0870      2.00000
     27      -0.6784      2.00000
     28       0.7123      2.00000
     29       0.7318      2.00000
     30       0.9869      2.00000
     31       2.3770      2.00000
     32       2.5103      2.00000
     33       3.0897      2.00000
     34       3.0907      2.00000
     35       3.8332      2.00000
     36       3.9046      2.00000
     37       4.1484      2.00000
     38       4.2684      2.00000
     39       4.4226      2.00000
     40       4.5447      2.00000
     41       4.6494      2.00000
     42       4.6637      2.00000
     43       4.7368      2.00000
     44       4.7748      2.00000
     45       5.3930      2.00000
     46       5.4818      2.00000
     47       5.5292      2.00000
     48       6.7016      2.00000
     49       6.7532      2.00000
     50       6.7952      2.00000
     51       7.2056      2.00000
     52       7.6086      2.00000
     53       7.9433      0.00000
     54       8.1773      0.00000
     55       8.2204      0.00000
     56       8.6200      0.00000
     57       8.8157      0.00000
     58       9.1489      0.00000
     59       9.4621      0.00000
     60       9.6205      0.00000
     61       9.6650      0.00000
     62      10.1064      0.00000
     63      10.2408      0.00000
     64      10.6541      0.00000
     65      11.6242      0.00000
     66      11.7816      0.00000

 k-point   113 :      -0.4286    0.2857    0.5000
  band No.  band energies     occupation 
      1     -55.2399      2.00000
      2     -55.2394      2.00000
      3     -55.1301      2.00000
      4     -55.1062      2.00000
      5     -55.1009      2.00000
      6     -55.0793      2.00000
      7     -28.9765      2.00000
      8     -28.8650      2.00000
      9     -28.7973      2.00000
     10     -28.7726      2.00000
     11     -28.7448      2.00000
     12     -28.6849      2.00000
     13     -28.6568      2.00000
     14     -28.6481      2.00000
     15     -28.6474      2.00000
     16     -28.6107      2.00000
     17     -28.6037      2.00000
     18     -28.5997      2.00000
     19     -28.5710      2.00000
     20     -28.5581      2.00000
     21     -28.4270      2.00000
     22     -28.2556      2.00000
     23     -28.2222      2.00000
     24     -28.1289      2.00000
     25      -2.4760      2.00000
     26      -1.1818      2.00000
     27      -0.7117      2.00000
     28       0.6295      2.00000
     29       0.6477      2.00000
     30       1.1187      2.00000
     31       2.5060      2.00000
     32       2.6524      2.00000
     33       3.0372      2.00000
     34       3.1761      2.00000
     35       3.6668      2.00000
     36       3.9062      2.00000
     37       4.1727      2.00000
     38       4.2763      2.00000
     39       4.3528      2.00000
     40       4.5845      2.00000
     41       4.6179      2.00000
     42       4.6513      2.00000
     43       4.6611      2.00000
     44       4.6853      2.00000
     45       5.2947      2.00000
     46       5.4423      2.00000
     47       5.5093      2.00000
     48       6.5610      2.00000
     49       6.6154      2.00000
     50       6.7819      2.00000
     51       7.2027      2.00000
     52       7.6760      2.00000
     53       7.8456      0.00774
     54       8.1426      0.00000
     55       8.2074      0.00000
     56       8.6628      0.00000
     57       8.9021      0.00000
     58       9.1469      0.00000
     59       9.4749      0.00000
     60       9.6897      0.00000
     61       9.8266      0.00000
     62      10.3372      0.00000
     63      10.4196      0.00000
     64      10.9067      0.00000
     65      11.4640      0.00000
     66      11.6889      0.00000

 k-point   114 :      -0.2857    0.2857    0.5000
  band No.  band energies     occupation 
      1     -55.2402      2.00000
      2     -55.2392      2.00000
      3     -55.1274      2.00000
      4     -55.1036      2.00000
      5     -55.1035      2.00000
      6     -55.0820      2.00000
      7     -28.9470      2.00000
      8     -28.8710      2.00000
      9     -28.8139      2.00000
     10     -28.7771      2.00000
     11     -28.7126      2.00000
     12     -28.7077      2.00000
     13     -28.6471      2.00000
     14     -28.6333      2.00000
     15     -28.6332      2.00000
     16     -28.6269      2.00000
     17     -28.6249      2.00000
     18     -28.6093      2.00000
     19     -28.5661      2.00000
     20     -28.5530      2.00000
     21     -28.4108      2.00000
     22     -28.2473      2.00000
     23     -28.2458      2.00000
     24     -28.1457      2.00000
     25      -2.2275      2.00000
     26      -1.4700      2.00000
     27      -0.6175      2.00000
     28       0.4555      2.00000
     29       0.5471      2.00000
     30       1.2021      2.00000
     31       2.5897      2.00000
     32       2.8857      2.00000
     33       3.1551      2.00000
     34       3.3003      2.00000
     35       3.3388      2.00000
     36       3.9459      2.00000
     37       4.1763      2.00000
     38       4.1878      2.00000
     39       4.2708      2.00000
     40       4.5093      2.00000
     41       4.5972      2.00000
     42       4.6294      2.00000
     43       4.7030      2.00000
     44       5.0561      2.00000
     45       5.3026      2.00000
     46       5.5541      2.00000
     47       5.6218      2.00000
     48       6.2366      2.00000
     49       6.6605      2.00000
     50       6.7325      2.00000
     51       7.2827      2.00000
     52       7.5343      2.00000
     53       8.0079      0.00000
     54       8.1136      0.00000
     55       8.3601      0.00000
     56       8.4042      0.00000
     57       8.8266      0.00000
     58       8.9348      0.00000
     59       9.0745      0.00000
     60       9.3944      0.00000
     61       9.9823      0.00000
     62      10.2481      0.00000
     63      10.8486      0.00000
     64      11.0686      0.00000
     65      11.3189      0.00000
     66      11.3890      0.00000

 k-point   115 :       0.4286    0.4286    0.5000
  band No.  band energies     occupation 
      1     -55.2396      2.00000
      2     -55.2394      2.00000
      3     -55.1330      2.00000
      4     -55.1037      2.00000
      5     -55.1034      2.00000
      6     -55.0767      2.00000
      7     -28.9972      2.00000
      8     -28.8268      2.00000
      9     -28.7938      2.00000
     10     -28.7858      2.00000
     11     -28.7725      2.00000
     12     -28.6670      2.00000
     13     -28.6560      2.00000
     14     -28.6537      2.00000
     15     -28.6262      2.00000
     16     -28.6232      2.00000
     17     -28.6040      2.00000
     18     -28.6037      2.00000
     19     -28.5906      2.00000
     20     -28.5493      2.00000
     21     -28.4440      2.00000
     22     -28.2307      2.00000
     23     -28.2304      2.00000
     24     -28.1132      2.00000
     25      -2.6711      2.00000
     26      -0.8448      2.00000
     27      -0.6812      2.00000
     28       0.6541      2.00000
     29       0.7188      2.00000
     30       1.0835      2.00000
     31       2.3902      2.00000
     32       2.3953      2.00000
     33       3.0316      2.00000
     34       3.2576      2.00000
     35       3.7373      2.00000
     36       3.8067      2.00000
     37       3.9617      2.00000
     38       4.1548      2.00000
     39       4.3167      2.00000
     40       4.5177      2.00000
     41       4.5439      2.00000
     42       4.6422      2.00000
     43       4.6731      2.00000
     44       4.9145      2.00000
     45       5.2952      2.00000
     46       5.3393      2.00000
     47       5.4031      2.00000
     48       6.4365      2.00000
     49       6.9694      2.00000
     50       6.9924      2.00000
     51       7.0528      2.00000
     52       7.5559      2.00000
     53       7.7499      1.99996
     54       7.9265      0.00000
     55       8.1915      0.00000
     56       9.0009      0.00000
     57       9.3856      0.00000
     58       9.5331      0.00000
     59       9.7411      0.00000
     60       9.9328      0.00000
     61      10.0774      0.00000
     62      10.3302      0.00000
     63      10.5646      0.00000
     64      10.7168      0.00000
     65      11.2546      0.00000
     66      12.0154      0.00000

 k-point   116 :      -0.4286    0.4286    0.5000
  band No.  band energies     occupation 
      1     -55.2396      2.00000
      2     -55.2392      2.00000
      3     -55.1332      2.00000
      4     -55.1037      2.00000
      5     -55.1034      2.00000
      6     -55.0767      2.00000
      7     -28.9896      2.00000
      8     -28.8230      2.00000
      9     -28.7935      2.00000
     10     -28.7913      2.00000
     11     -28.7672      2.00000
     12     -28.6743      2.00000
     13     -28.6332      2.00000
     14     -28.6300      2.00000
     15     -28.6290      2.00000
     16     -28.6281      2.00000
     17     -28.6262      2.00000
     18     -28.6252      2.00000
     19     -28.5909      2.00000
     20     -28.5495      2.00000
     21     -28.4440      2.00000
     22     -28.2306      2.00000
     23     -28.2305      2.00000
     24     -28.1132      2.00000
     25      -2.6092      2.00000
     26      -0.8622      2.00000
     27      -0.7138      2.00000
     28       0.6271      2.00000
     29       0.6889      2.00000
     30       1.1329      2.00000
     31       2.4118      2.00000
     32       2.4317      2.00000
     33       3.1152      2.00000
     34       3.3183      2.00000
     35       3.6014      2.00000
     36       3.7720      2.00000
     37       3.9379      2.00000
     38       4.1522      2.00000
     39       4.3277      2.00000
     40       4.5306      2.00000
     41       4.5599      2.00000
     42       4.6581      2.00000
     43       4.6888      2.00000
     44       4.8103      2.00000
     45       5.2936      2.00000
     46       5.3107      2.00000
     47       5.3539      2.00000
     48       6.3703      2.00000
     49       6.9657      2.00000
     50       6.9679      2.00000
     51       7.0500      2.00000
     52       7.5762      2.00000
     53       7.7010      2.00000
     54       7.9075      0.00000
     55       8.1620      0.00000
     56       9.0298      0.00000
     57       9.4139      0.00000
     58       9.5543      0.00000
     59       9.7735      0.00000
     60      10.0407      0.00000
     61      10.0778      0.00000
     62      10.5927      0.00000
     63      10.6398      0.00000
     64      11.0013      0.00000
     65      11.2894      0.00000
     66      11.6711      0.00000


--------------------------------------------------------------------------------------------------------


 soft charge-density along one line, spin component           1
         0         1         2         3         4         5         6         7         8         9
 total charge-density along one line
 
 pseudopotential strength for first ion, spin component:           1
  6.064   9.199   0.000   0.000   0.000   0.000   0.000   0.000
  9.199  13.947   0.000   0.000   0.000   0.000   0.000   0.000
  0.000   0.000  -2.036  -0.001   0.003  -3.411  -0.001   0.007
  0.000   0.000  -0.001  -2.033  -0.001  -0.001  -3.405  -0.001
  0.000   0.000   0.003  -0.001  -2.038   0.007  -0.001  -3.415
  0.000   0.000  -3.411  -0.001   0.007  -5.505   0.000   0.015
  0.000   0.000  -0.001  -3.405  -0.001   0.000  -5.494   0.000
  0.000   0.000   0.007  -0.001  -3.415   0.015   0.000  -5.514
 total augmentation occupancy for first ion, spin component:           1
  2.953  -0.556   0.022   0.025   0.017  -0.007  -0.008  -0.005
 -0.556   0.116  -0.006  -0.006  -0.004   0.002   0.002   0.001
  0.022  -0.006   1.718  -0.374  -0.405  -0.395   0.091   0.095
  0.025  -0.006  -0.374   1.511  -0.277   0.091  -0.347   0.067
  0.017  -0.004  -0.405  -0.277   1.964   0.095   0.067  -0.453
 -0.007   0.002  -0.395   0.091   0.095   0.094  -0.022  -0.024
 -0.008   0.002   0.091  -0.347   0.067  -0.022   0.081  -0.017
 -0.005   0.001   0.095   0.067  -0.453  -0.024  -0.017   0.109


------------------------ aborting loop because EDIFF is reached ----------------------------------------




--------------------------------------------------------------------------------------------------------



  FREE ENERGIE OF THE ION-ELECTRON SYSTEM (eV)
  ---------------------------------------------------
  free  energy   TOTEN  =      -190.71542476 eV

  energy  without entropy=     -190.71323178  energy(sigma->0) =     -190.71432827
 


--------------------------------------------------------------------------------------------------------


    POTLOK:  cpu time    1.4282: real time    1.4378


--------------------------------------------------------------------------------------------------------


 writing wavefunctions
     LOOP+:  cpu time 1716.7242: real time 1730.0517
    4ORBIT:  cpu time    0.0000: real time    0.0000

 total amount of memory used by VASP MPI-rank0   422067. kBytes
=======================================================================

   base      :      30000. kBytes
   nonl-proj :     160570. kBytes
   fftplans  :      17766. kBytes
   grid      :      13358. kBytes
   one-center:         93. kBytes
   wavefun   :     200280. kBytes
 
  
  
 General timing and accounting informations for this job:
 ========================================================
  
                  Total CPU time used (sec):     1726.315
                            User time (sec):     1705.372
                          System time (sec):       20.943
                         Elapsed time (sec):     1749.157
  
                   Maximum memory used (kb):      598188.
                   Average memory used (kb):          N/A
  
                          Minor page faults:      2360318
                          Major page faults:           26
                 Voluntary context switches:        14184
