 vasp.6.2.0 18Jan21 (build Jan 05 2022 15:41:44) complex                        
  
 executed on             LinuxIFC date 2025.05.07  18:30:53
 running on   24 total cores
 distrk:  each k-point on   12 cores,    2 groups
 distr:  one band on NCORE=   2 cores,    6 groups


--------------------------------------------------------------------------------------------------------


 INCAR:
   SYSTEM = routine with relax: pwdword
   ICHARG = 2
   NPAR = 6
   KPAR = 2
   NCORE = 2
   ADDGRID = T
   PREC = Acc
   ENCUT = 600
   METAGGA = R2SCAN
   LASPH = .TRUE.
   LMIXTAU = .FALSE.
   ALGO = A
   EDIFF = 1E-9
   NELM = 100
   NELMIN = 6
   IALGO = 38
   LREAL = F
   NSW = 0
   ISIF = -1
   ISMEAR = 0
   SIGMA = 0.02
   SYMPREC = 1E-4

 POTCAR:    PAW_PBE B 06Sep2000                   
 POTCAR:    PAW_PBE Mo_sv 02Feb2006               
 POTCAR:    PAW_PBE Si 05Jan2001                  
 -----------------------------------------------------------------------------
|                                                                             |
|           W    W    AA    RRRRR   N    N  II  N    N   GGGG   !!!           |
|           W    W   A  A   R    R  NN   N  II  NN   N  G    G  !!!           |
|           W    W  A    A  R    R  N N  N  II  N N  N  G       !!!           |
|           W WW W  AAAAAA  RRRRR   N  N N  II  N  N N  G  GGG   !            |
|           WW  WW  A    A  R   R   N   NN  II  N   NN  G    G                |
|           W    W  A    A  R    R  N    N  II  N    N   GGGG   !!!           |
|                                                                             |
|     For optimal performance we recommend to set                             |
|       NCORE = 2 up to number-of-cores-per-socket                            |
|     NCORE specifies how many cores store one orbital (NPAR=cpu/NCORE).      |
|     This setting can greatly improve the performance of VASP for DFT.       |
|     The default, NCORE=1 might be grossly inefficient on modern             |
|     multi-core architectures or massively parallel machines. Do your        |
|     own testing! More info at https://www.vasp.at/wiki/index.php/NCORE      |
|     Unfortunately you need to use the default for GW and RPA                |
|     calculations (for HF NCORE is supported but not extensively tested      |
|     yet).                                                                   |
|                                                                             |
 -----------------------------------------------------------------------------

 POTCAR:    PAW_PBE B 06Sep2000                   
   VRHFIN =B: s2p1                                                                                  
   LEXCH  = PE                                                                                      
   EATOM  =    71.1703 eV,    5.2309 Ry                                                             
                                                                                                    
   TITEL  = PAW_PBE B 06Sep2000                                                                     
   LULTRA =        F    use ultrasoft PP ?                                                          
   IUNSCR =        1    unscreen: 0-lin 1-nonlin 2-no                                               
   RPACOR =    1.200    partial core radius                                                         
   POMASS =   10.811; ZVAL   =    3.000    mass and valenz                                          
   RCORE  =    1.700    outmost cutoff radius                                                       
   RWIGS  =    1.710; RWIGS  =    0.905    wigner-seitz radius (au A)                               
   ENMAX  =  318.614; ENMIN  =  238.960 eV                                                          
   ICORE  =        2    local potential                                                             
   LCOR   =        T    correct aug charges                                                         
   LPAW   =        T    paw PP                                                                      
   EAUG   =  535.514                                                                                
   DEXC   =    0.000                                                                                
   RMAX   =    1.732    core radius for proj-oper                                                   
   RAUG   =    1.300    factor for augmentation sphere                                              
   RDEP   =    1.757    radius for radial grids                                                     
   RDEPT  =    1.436    core radius for aug-charge                                                  
                                                                                                    
   Atomic configuration                                                                             
    4 entries                                                                                       
     n  l   j            E        occ.                                                              
     1  0  0.50      -180.5896   2.0000                                                             
     2  0  0.50        -9.4431   2.0000                                                             
     2  1  0.50        -3.6068   1.0000                                                             
     3  2  1.50        -4.0817   0.0000                                                             
   Description                                                                                      
     l       E           TYP  RCUT    TYP  RCUT                                                     
     0     -9.4430752     23  1.500                                                                 
     0      0.8675899     23  1.500                                                                 
     1     -3.6067955     23  1.700                                                                 
     1      6.1086146     23  1.700                                                                 
     2     -4.0817478      7  1.700                                                                 
  local pseudopotential read in
  partial core-charges read in
  partial kinetic energy density read in
  atomic valenz-charges read in
  non local Contribution for L=           0  read in
    real space projection operators read in
  non local Contribution for L=           0  read in
    real space projection operators read in
  non local Contribution for L=           1  read in
    real space projection operators read in
  non local Contribution for L=           1  read in
    real space projection operators read in
    PAW grid and wavefunctions read in
 
   number of l-projection  operators is LMAX  =           4
   number of lm-projection operators is LMMAX =           8
 
 POTCAR:    PAW_PBE Mo_sv 02Feb2006               
   VRHFIN =Mo: 4p5s4d                                                                               
   LEXCH  = PE                                                                                      
   EATOM  =  1862.2866 eV,  136.8742 Ry                                                             
                                                                                                    
   TITEL  = PAW_PBE Mo_sv 02Feb2006                                                                 
   LULTRA =        F    use ultrasoft PP ?                                                          
   IUNSCR =        1    unscreen: 0-lin 1-nonlin 2-no                                               
   RPACOR =    2.200    partial core radius                                                         
   POMASS =   95.940; ZVAL   =   14.000    mass and valenz                                          
   RCORE  =    2.500    outmost cutoff radius                                                       
   RWIGS  =    2.750; RWIGS  =    1.455    wigner-seitz radius (au A)                               
   ENMAX  =  242.676; ENMIN  =  182.007 eV                                                          
   ICORE  =        3    local potential                                                             
   LCOR   =        T    correct aug charges                                                         
   LPAW   =        T    paw PP                                                                      
   EAUG   =  446.014                                                                                
   DEXC   =    0.000                                                                                
   RMAX   =    2.563    core radius for proj-oper                                                   
   RAUG   =    1.300    factor for augmentation sphere                                              
   RDEP   =    2.641    radius for radial grids                                                     
   RDEPT  =    2.031    core radius for aug-charge                                                  
                                                                                                    
   Atomic configuration                                                                             
   11 entries                                                                                       
     n  l   j            E        occ.                                                              
     1  0  0.50    -19819.0341   2.0000                                                             
     2  0  0.50     -2799.0127   2.0000                                                             
     2  1  1.50     -2502.0276   6.0000                                                             
     3  0  0.50      -476.4449   2.0000                                                             
     3  1  1.50      -379.1496   6.0000                                                             
     3  2  2.50      -220.9367  10.0000                                                             
     4  0  0.50       -64.3378   2.0000                                                             
     5  0  0.50        -4.0862   1.0000                                                             
     4  1  1.50       -38.4773   6.0000                                                             
     4  2  2.50        -3.7535   5.0000                                                             
     4  3  2.50        -1.3606   0.0000                                                             
   Description                                                                                      
     l       E           TYP  RCUT    TYP  RCUT                                                     
     0    -64.3377829     23  2.100                                                                 
     0     -4.0861640     23  2.400                                                                 
     1    -38.4772993     23  2.100                                                                 
     1     13.6058260     23  2.100                                                                 
     2     -3.7534941     23  2.400                                                                 
     2     -5.1140767     23  2.400                                                                 
     3     -4.0817478     23  2.500                                                                 
  local pseudopotential read in
  partial core-charges read in
  partial kinetic energy density read in
  atomic valenz-charges read in
  non local Contribution for L=           0  read in
    real space projection operators read in
  non local Contribution for L=           0  read in
    real space projection operators read in
  non local Contribution for L=           1  read in
    real space projection operators read in
  non local Contribution for L=           1  read in
    real space projection operators read in
  non local Contribution for L=           2  read in
    real space projection operators read in
  non local Contribution for L=           2  read in
    real space projection operators read in
    PAW grid and wavefunctions read in
 
   number of l-projection  operators is LMAX  =           6
   number of lm-projection operators is LMMAX =          18
 
 POTCAR:    PAW_PBE Si 05Jan2001                  
   VRHFIN =Si: s2p2                                                                                 
   LEXCH  = PE                                                                                      
   EATOM  =   103.0669 eV,    7.5752 Ry                                                             
                                                                                                    
   TITEL  = PAW_PBE Si 05Jan2001                                                                    
   LULTRA =        F    use ultrasoft PP ?                                                          
   IUNSCR =        1    unscreen: 0-lin 1-nonlin 2-no                                               
   RPACOR =    1.500    partial core radius                                                         
   POMASS =   28.085; ZVAL   =    4.000    mass and valenz                                          
   RCORE  =    1.900    outmost cutoff radius                                                       
   RWIGS  =    2.480; RWIGS  =    1.312    wigner-seitz radius (au A)                               
   ENMAX  =  245.345; ENMIN  =  184.009 eV                                                          
   ICORE  =        2    local potential                                                             
   LCOR   =        T    correct aug charges                                                         
   LPAW   =        T    paw PP                                                                      
   EAUG   =  322.069                                                                                
   DEXC   =    0.000                                                                                
   RMAX   =    1.950    core radius for proj-oper                                                   
   RAUG   =    1.300    factor for augmentation sphere                                              
   RDEP   =    1.993    radius for radial grids                                                     
   RDEPT  =    1.837    core radius for aug-charge                                                  
                                                                                                    
   Atomic configuration                                                                             
    6 entries                                                                                       
     n  l   j            E        occ.                                                              
     1  0  0.50     -1785.8828   2.0000                                                             
     2  0  0.50      -139.4969   2.0000                                                             
     2  1  1.50       -95.5546   6.0000                                                             
     3  0  0.50       -10.8127   2.0000                                                             
     3  1  0.50        -4.0811   2.0000                                                             
     3  2  1.50        -4.0817   0.0000                                                             
   Description                                                                                      
     l       E           TYP  RCUT    TYP  RCUT                                                     
     0    -10.8127223     23  1.900                                                                 
     0     -7.6451159     23  1.900                                                                 
     1     -4.0811372     23  1.900                                                                 
     1      2.4879257     23  1.900                                                                 
     2     -4.0817478      7  1.900                                                                 
  local pseudopotential read in
  partial core-charges read in
  partial kinetic energy density read in
  atomic valenz-charges read in
  non local Contribution for L=           0  read in
    real space projection operators read in
  non local Contribution for L=           0  read in
    real space projection operators read in
  non local Contribution for L=           1  read in
    real space projection operators read in
  non local Contribution for L=           1  read in
    real space projection operators read in
    PAW grid and wavefunctions read in
 
   number of l-projection  operators is LMAX  =           4
   number of lm-projection operators is LMMAX =           8
 
  PAW_PBE B 06Sep2000                   :
 energy of atom  1       EATOM=  -71.1703
 kinetic energy error for atom=    0.0007 (will be added to EATOM!!)
  PAW_PBE Mo_sv 02Feb2006               :
 energy of atom  2       EATOM=-1862.2866
 kinetic energy error for atom=    0.0041 (will be added to EATOM!!)
  PAW_PBE Si 05Jan2001                  :
 energy of atom  3       EATOM= -103.0669
 kinetic energy error for atom=    0.0003 (will be added to EATOM!!)
 
 
 POSCAR: EA133
  positions in direct lattice
  No initial velocities read in

 METAGGA = R2SCA    LMAXTAU =  6    LMIXTAU =  F

 exchange correlation table for  LEXCH =        8
   RHO(1)=    0.500       N(1)  =     2000
   RHO(2)=  100.500       N(2)  =     4000
 


--------------------------------------------------------------------------------------------------------


 ion  position               nearest neighbor table
   1  0.354  0.854  0.500-  13 1.72   6 2.69   8 2.69  10 2.78   9 2.78
   2  0.646  0.146  0.500-  13 1.72   8 2.69   6 2.69  10 2.78   9 2.78
   3  0.854  0.354  0.500-  14 1.72   9 2.69  10 2.69   8 2.78   6 2.78
   4  0.146  0.646  0.500-  14 1.72  10 2.69   9 2.69   6 2.78   8 2.78
   5  0.378  0.378  0.000-  10 2.56   9 2.56   8 2.56   6 2.56   7 2.87  11 3.03
   6  0.743  0.243  0.987-  13 2.07  14 2.18  11 2.56   7 2.56  12 2.56   5 2.56   1 2.69   2 2.69
                             4 2.78   3 2.78   9 3.00  10 3.00  10 3.00   9 3.00
   7  0.622  0.622  0.000-   9 2.56  10 2.56   6 2.56   8 2.56   5 2.87  12 3.03
   8  0.257  0.757  0.013-  13 2.07  14 2.18   5 2.56  12 2.56  11 2.56   7 2.56   2 2.69   1 2.69
                             3 2.78   4 2.78  10 3.00   9 3.00   9 3.00  10 3.00
   9  0.243  0.257  0.500-  14 2.07  13 2.18  12 2.56   7 2.56  11 2.56   5 2.56   3 2.69   4 2.69
                             1 2.78   2 2.78   6 3.00   8 3.00   8 3.00   6 3.00
  10  0.757  0.743  0.500-  14 2.07  13 2.18  11 2.56   5 2.56  12 2.56   7 2.56   4 2.69   3 2.69
                             1 2.78   2 2.78   8 3.00   6 3.00   6 3.00   8 3.00
  11  0.122  0.122  0.000-  10 2.56   9 2.56   6 2.56   8 2.56  12 2.87   5 3.03
  12  0.878  0.878  0.000-   9 2.56  10 2.56   8 2.56   6 2.56  11 2.87   7 3.03
  13  0.500  0.000  0.500-   1 1.72   2 1.72   6 2.07   8 2.07   9 2.18  10 2.18
  14  0.000  0.500  0.500-   3 1.72   4 1.72   9 2.07  10 2.07   8 2.18   6 2.18
 
  LATTYP: Found a body centered tetragonal cell.
 ALAT       =     6.0049593798
 C/A-ratio  =     1.9642812761
  
  Lattice vectors:
  
 A1 = (   5.4684884956,   0.0000000000,  -4.7862883465)
 A2 = (  -1.1256131990,   5.3513887312,  -4.7862883465)
 A3 = (   0.0000000000,   0.0000000000,   7.2672500000)


Analysis of symmetry for initial positions (statically):
=====================================================================
 Subroutine PRICEL returns:
 Original cell was already a primitive cell.
 

 Routine SETGRP: Setting up the symmetry group for a 
 body centered tetragonal supercell.


 Subroutine GETGRP returns: Found 16 space group operations
 (whereof  8 operations were pure point group operations)
 out of a pool of 16 trial point group operations.


The static configuration has the point symmetry C_4h.
 The point group associated with its full space group is D_4h.


Analysis of symmetry for dynamics (positions and initial velocities):
=====================================================================
 Subroutine PRICEL returns:
 Original cell was already a primitive cell.
 

 Routine SETGRP: Setting up the symmetry group for a 
 body centered tetragonal supercell.


 Subroutine GETGRP returns: Found 16 space group operations
 (whereof  8 operations were pure point group operations)
 out of a pool of 16 trial point group operations.


The dynamic configuration has the point symmetry C_4h.
 The point group associated with its full space group is D_4h.


 Subroutine INISYM returns: Found 16 space group operations
 (whereof  8 operations are pure point group operations),
 and found     1 'primitive' translations


----------------------------------------------------------------------------------------

                                     Primitive cell                                     

  volume of cell :     212.6689

  direct lattice vectors                    reciprocal lattice vectors
     5.468488496  0.000000000 -4.786288347     0.182865887  0.038464082  0.000000000
    -1.125613199  5.351388731 -4.786288347     0.000000000  0.186867382  0.000000000
     0.000000000  0.000000000  7.267250000     0.120437423  0.148405705  0.137603633

  length of vectors
     7.267250000  7.267250000  7.267250000     0.186867382  0.186867382  0.235508356

  position of ions in fractional coordinates (direct lattice)
     0.353950000  0.853950000  0.500000000
     0.646050000  0.146050000  0.500000000
     0.853950000  0.353950000  0.500000000
     0.146050000  0.646050000  0.500000000
     0.378260000  0.378260000  0.000000000
     0.743460000  0.243460000  0.986920000
     0.621740000  0.621740000  0.000000000
     0.256540000  0.756540000  0.013080000
     0.243460000  0.256540000  0.500000000
     0.756540000  0.743460000  0.500000000
     0.121740000  0.121740000  0.000000000
     0.878260000  0.878260000  0.000000000
     0.500000000  0.000000000  0.500000000
     0.000000000  0.500000000  0.500000000

  ion indices of the primitive-cell ions
   primitive index   ion index
                 1           1
                 2           2
                 3           3
                 4           4
                 5           5
                 6           6
                 7           7
                 8           8
                 9           9
                10          10
                11          11
                12          12
                13          13
                14          14

----------------------------------------------------------------------------------------

 
 
 KPOINTS: EA                                      

Automatic generation of k-mesh.
 Grid dimensions read from file:
 generate k-points for:    7    7    8

 Generating k-lattice:

  Cartesian coordinates                     Fractional coordinates (reciprocal lattice)
     0.026123698  0.005494869  0.000000000     0.142857143  0.000000000  0.000000000
     0.000000000  0.026695340  0.000000000     0.000000000  0.142857143  0.000000000
     0.015054678  0.018550713  0.017200454     0.000000000  0.000000000  0.125000000

  Length of vectors
     0.026695340  0.026695340  0.029438545

  Shift w.r.t. Gamma in fractional coordinates (k-lattice)
     0.000000000  0.000000000  0.000000000

 -----------------------------------------------------------------------------
|                                                                             |
|           W    W    AA    RRRRR   N    N  II  N    N   GGGG   !!!           |
|           W    W   A  A   R    R  NN   N  II  NN   N  G    G  !!!           |
|           W    W  A    A  R    R  N N  N  II  N N  N  G       !!!           |
|           W WW W  AAAAAA  RRRRR   N  N N  II  N  N N  G  GGG   !            |
|           WW  WW  A    A  R   R   N   NN  II  N   NN  G    G                |
|           W    W  A    A  R    R  N    N  II  N    N   GGGG   !!!           |
|                                                                             |
|     Your reciprocal lattice and k-lattice belong to different lattice       |
|     classes:                                                                |
|                                                                             |
|        The reciprocal lattice is body-centered tetragonal,                  |
|        whereas your k-lattice is base-centered monoclinic.                  |
|                                                                             |
|     Results are often still useful ...                                      |
|                                                                             |
 -----------------------------------------------------------------------------

 WARNING: IBZKPT: internal override: KBLOWUP is changed to .FALSE.
      ... skipping the blow-up phase ...

 
 Subroutine IBZKPT returns following result:
 ===========================================
 
 Found    116 irreducible k-points:
 
 Following reciprocal coordinates:
            Coordinates               Weight
  0.000000  0.000000  0.000000      1.000000
  0.142857  0.000000  0.000000      4.000000
  0.285714  0.000000  0.000000      4.000000
  0.428571  0.000000  0.000000      4.000000
  0.142857  0.142857  0.000000      2.000000
  0.285714  0.142857  0.000000      4.000000
  0.428571  0.142857  0.000000      4.000000
 -0.428571  0.142857  0.000000      4.000000
 -0.285714  0.142857  0.000000      4.000000
 -0.142857  0.142857  0.000000      2.000000
  0.285714  0.285714  0.000000      2.000000
  0.428571  0.285714  0.000000      4.000000
 -0.428571  0.285714  0.000000      4.000000
 -0.285714  0.285714  0.000000      2.000000
  0.428571  0.428571  0.000000      2.000000
 -0.428571  0.428571  0.000000      2.000000
 -0.000000 -0.000000  0.125000      2.000000
  0.142857  0.000000  0.125000      4.000000
  0.285714 -0.000000  0.125000      4.000000
  0.428571  0.000000  0.125000      4.000000
 -0.428571 -0.000000  0.125000      4.000000
 -0.285714 -0.000000  0.125000      4.000000
 -0.142857 -0.000000  0.125000      4.000000
  0.142857  0.142857  0.125000      2.000000
  0.285714  0.142857  0.125000      4.000000
  0.428571  0.142857  0.125000      4.000000
 -0.428571  0.142857  0.125000      4.000000
 -0.285714  0.142857  0.125000      4.000000
 -0.142857  0.142857  0.125000      4.000000
  0.285714  0.285714  0.125000      2.000000
  0.428571  0.285714  0.125000      4.000000
 -0.428571  0.285714  0.125000      4.000000
 -0.285714  0.285714  0.125000      4.000000
 -0.142857  0.285714  0.125000      4.000000
  0.428571  0.428571  0.125000      2.000000
 -0.428571  0.428571  0.125000      4.000000
 -0.285714  0.428571  0.125000      4.000000
 -0.142857  0.428571  0.125000      4.000000
 -0.428571 -0.428571  0.125000      2.000000
 -0.285714 -0.428571  0.125000      4.000000
 -0.142857 -0.428571  0.125000      4.000000
 -0.285714 -0.285714  0.125000      2.000000
 -0.142857 -0.285714  0.125000      4.000000
 -0.142857 -0.142857  0.125000      2.000000
 -0.000000 -0.000000  0.250000      2.000000
  0.142857 -0.000000  0.250000      4.000000
  0.285714 -0.000000  0.250000      4.000000
  0.428571  0.000000  0.250000      4.000000
 -0.428571 -0.000000  0.250000      4.000000
 -0.285714 -0.000000  0.250000      4.000000
 -0.142857 -0.000000  0.250000      4.000000
  0.142857  0.142857  0.250000      2.000000
  0.285714  0.142857  0.250000      4.000000
  0.428571  0.142857  0.250000      4.000000
 -0.428571  0.142857  0.250000      4.000000
 -0.285714  0.142857  0.250000      4.000000
 -0.142857  0.142857  0.250000      4.000000
  0.285714  0.285714  0.250000      2.000000
  0.428571  0.285714  0.250000      4.000000
 -0.428571  0.285714  0.250000      4.000000
 -0.285714  0.285714  0.250000      4.000000
 -0.142857  0.285714  0.250000      4.000000
  0.428571  0.428571  0.250000      2.000000
 -0.428571  0.428571  0.250000      4.000000
 -0.285714  0.428571  0.250000      4.000000
 -0.142857  0.428571  0.250000      4.000000
 -0.428571 -0.428571  0.250000      2.000000
 -0.285714 -0.428571  0.250000      4.000000
 -0.142857 -0.428571  0.250000      4.000000
 -0.285714 -0.285714  0.250000      2.000000
 -0.142857 -0.285714  0.250000      4.000000
 -0.142857 -0.142857  0.250000      2.000000
  0.000000 -0.000000  0.375000      2.000000
  0.142857  0.000000  0.375000      4.000000
  0.285714  0.000000  0.375000      4.000000
  0.428571 -0.000000  0.375000      4.000000
 -0.428571 -0.000000  0.375000      4.000000
 -0.285714  0.000000  0.375000      4.000000
 -0.142857  0.000000  0.375000      4.000000
  0.142857  0.142857  0.375000      2.000000
  0.285714  0.142857  0.375000      4.000000
  0.428571  0.142857  0.375000      4.000000
 -0.428571  0.142857  0.375000      4.000000
 -0.285714  0.142857  0.375000      4.000000
 -0.142857  0.142857  0.375000      4.000000
  0.285714  0.285714  0.375000      2.000000
  0.428571  0.285714  0.375000      4.000000
 -0.428571  0.285714  0.375000      4.000000
 -0.285714  0.285714  0.375000      4.000000
 -0.142857  0.285714  0.375000      4.000000
  0.428571  0.428571  0.375000      2.000000
 -0.428571  0.428571  0.375000      4.000000
 -0.285714  0.428571  0.375000      4.000000
 -0.142857  0.428571  0.375000      4.000000
 -0.428571 -0.428571  0.375000      2.000000
 -0.285714 -0.428571  0.375000      4.000000
 -0.142857 -0.428571  0.375000      4.000000
 -0.285714 -0.285714  0.375000      2.000000
 -0.142857 -0.285714  0.375000      4.000000
 -0.142857 -0.142857  0.375000      2.000000
 -0.000000 -0.000000  0.500000      1.000000
  0.142857 -0.000000  0.500000      4.000000
  0.285714  0.000000  0.500000      4.000000
  0.428571 -0.000000  0.500000      4.000000
  0.142857  0.142857  0.500000      2.000000
  0.285714  0.142857  0.500000      4.000000
  0.428571  0.142857  0.500000      4.000000
 -0.428571  0.142857  0.500000      4.000000
 -0.285714  0.142857  0.500000      4.000000
 -0.142857  0.142857  0.500000      2.000000
  0.285714  0.285714  0.500000      2.000000
  0.428571  0.285714  0.500000      4.000000
 -0.428571  0.285714  0.500000      4.000000
 -0.285714  0.285714  0.500000      2.000000
  0.428571  0.428571  0.500000      2.000000
 -0.428571  0.428571  0.500000      2.000000
 
 Following cartesian coordinates:
            Coordinates               Weight
  0.000000  0.000000  0.000000      1.000000
  0.026124  0.005495  0.000000      4.000000
  0.052247  0.010990  0.000000      4.000000
  0.078371  0.016485  0.000000      4.000000
  0.026124  0.032190  0.000000      2.000000
  0.052247  0.037685  0.000000      4.000000
  0.078371  0.043180  0.000000      4.000000
 -0.078371  0.010211  0.000000      4.000000
 -0.052247  0.015706  0.000000      4.000000
 -0.026124  0.021200  0.000000      2.000000
  0.052247  0.064380  0.000000      2.000000
  0.078371  0.069875  0.000000      4.000000
 -0.078371  0.036906  0.000000      4.000000
 -0.052247  0.042401  0.000000      2.000000
  0.078371  0.096571  0.000000      2.000000
 -0.078371  0.063601  0.000000      2.000000
  0.015055  0.018551  0.017200      2.000000
  0.041178  0.024046  0.017200      4.000000
  0.067302  0.029540  0.017200      4.000000
  0.093426  0.035035  0.017200      4.000000
 -0.063316  0.002066  0.017200      4.000000
 -0.037193  0.007561  0.017200      4.000000
 -0.011069  0.013056  0.017200      4.000000
  0.041178  0.050741  0.017200      2.000000
  0.067302  0.056236  0.017200      4.000000
  0.093426  0.061731  0.017200      4.000000
 -0.063316  0.028761  0.017200      4.000000
 -0.037193  0.034256  0.017200      4.000000
 -0.011069  0.039751  0.017200      4.000000
  0.067302  0.082931  0.017200      2.000000
  0.093426  0.088426  0.017200      4.000000
 -0.063316  0.055457  0.017200      4.000000
 -0.037193  0.060952  0.017200      4.000000
 -0.011069  0.066447  0.017200      4.000000
  0.093426  0.115121  0.017200      2.000000
 -0.063316  0.082152  0.017200      4.000000
 -0.037193  0.087647  0.017200      4.000000
 -0.011069  0.093142  0.017200      4.000000
 -0.063316 -0.078020  0.017200      2.000000
 -0.037193 -0.072525  0.017200      4.000000
 -0.011069 -0.067030  0.017200      4.000000
 -0.037193 -0.045830  0.017200      2.000000
 -0.011069 -0.040335  0.017200      4.000000
 -0.011069 -0.013639  0.017200      2.000000
  0.030109  0.037101  0.034401      2.000000
  0.056233  0.042596  0.034401      4.000000
  0.082357  0.048091  0.034401      4.000000
  0.108480  0.053586  0.034401      4.000000
 -0.048262  0.020617  0.034401      4.000000
 -0.022138  0.026112  0.034401      4.000000
  0.003986  0.031607  0.034401      4.000000
  0.056233  0.069292  0.034401      2.000000
  0.082357  0.074787  0.034401      4.000000
  0.108480  0.080281  0.034401      4.000000
 -0.048262  0.047312  0.034401      4.000000
 -0.022138  0.052807  0.034401      4.000000
  0.003986  0.058302  0.034401      4.000000
  0.082357  0.101482  0.034401      2.000000
  0.108480  0.106977  0.034401      4.000000
 -0.048262  0.074008  0.034401      4.000000
 -0.022138  0.079502  0.034401      4.000000
  0.003986  0.084997  0.034401      4.000000
  0.108480  0.133672  0.034401      2.000000
 -0.048262  0.100703  0.034401      4.000000
 -0.022138  0.106198  0.034401      4.000000
  0.003986  0.111693  0.034401      4.000000
 -0.048262 -0.059469  0.034401      2.000000
 -0.022138 -0.053974  0.034401      4.000000
  0.003986 -0.048479  0.034401      4.000000
 -0.022138 -0.027279  0.034401      2.000000
  0.003986 -0.021784  0.034401      4.000000
  0.003986  0.004911  0.034401      2.000000
  0.045164  0.055652  0.051601      2.000000
  0.071288  0.061147  0.051601      4.000000
  0.097411  0.066642  0.051601      4.000000
  0.123535  0.072137  0.051601      4.000000
 -0.033207  0.039168  0.051601      4.000000
 -0.007083  0.044662  0.051601      4.000000
  0.019040  0.050157  0.051601      4.000000
  0.071288  0.087842  0.051601      2.000000
  0.097411  0.093337  0.051601      4.000000
  0.123535  0.098832  0.051601      4.000000
 -0.033207  0.065863  0.051601      4.000000
 -0.007083  0.071358  0.051601      4.000000
  0.019040  0.076853  0.051601      4.000000
  0.097411  0.120033  0.051601      2.000000
  0.123535  0.125527  0.051601      4.000000
 -0.033207  0.092558  0.051601      4.000000
 -0.007083  0.098053  0.051601      4.000000
  0.019040  0.103548  0.051601      4.000000
  0.123535  0.152223  0.051601      2.000000
 -0.033207  0.119254  0.051601      4.000000
 -0.007083  0.124748  0.051601      4.000000
  0.019040  0.130243  0.051601      4.000000
 -0.033207 -0.040918  0.051601      2.000000
 -0.007083 -0.035424  0.051601      4.000000
  0.019040 -0.029929  0.051601      4.000000
 -0.007083 -0.008728  0.051601      2.000000
  0.019040 -0.003233  0.051601      4.000000
  0.019040  0.023462  0.051601      2.000000
  0.060219  0.074203  0.068802      1.000000
  0.086342  0.079698  0.068802      4.000000
  0.112466  0.085193  0.068802      4.000000
  0.138590  0.090687  0.068802      4.000000
  0.086342  0.106393  0.068802      2.000000
  0.112466  0.111888  0.068802      4.000000
  0.138590  0.117383  0.068802      4.000000
 -0.018152  0.084414  0.068802      4.000000
  0.007971  0.089908  0.068802      4.000000
  0.034095  0.095403  0.068802      2.000000
  0.112466  0.138583  0.068802      2.000000
  0.138590  0.144078  0.068802      4.000000
 -0.018152  0.111109  0.068802      4.000000
  0.007971  0.116604  0.068802      2.000000
  0.138590  0.170773  0.068802      2.000000
 -0.018152  0.137804  0.068802      2.000000
 


--------------------------------------------------------------------------------------------------------




 Dimension of arrays:
   k-points           NKPTS =    116   k-points in BZ     NKDIM =    116   number of bands    NBANDS=     84
   number of dos      NEDOS =    301   number of ions     NIONS =     14
   non local maximal  LDIM  =      6   non local SUM 2l+1 LMDIM =     18
   total plane-waves  NPLWV = 216000
   max r-space proj   IRMAX =      1   max aug-charges    IRDMAX= 355491
   dimension x,y,z NGX =    60 NGY =   60 NGZ =   60
   dimension x,y,z NGXF=   120 NGYF=  120 NGZF=  120
   support grid    NGXF=   240 NGYF=  240 NGZF=  240
   ions per type =               4   8   2
   NGX,Y,Z   is equivalent  to a cutoff of  13.73, 13.73, 13.73 a.u.
   NGXF,Y,Z  is equivalent  to a cutoff of  27.45, 27.45, 27.45 a.u.

 SYSTEM =  routine with relax: pwdword             
 POSCAR =  EA133                                   

 Startparameter for this run:
   NWRITE =      2    write-flag & timer
   PREC   = acc       normal or accurate (medium, high low for compatibility)
   ISTART =      0    job   : 0-new  1-cont  2-samecut
   ICHARG =      2    charge: 1-file 2-atom 10-const
   ISPIN  =      1    spin polarized calculation?
   LNONCOLLINEAR =      F non collinear calculations
   LSORBIT =      F    spin-orbit coupling
   INIWAV =      1    electr: 0-lowe 1-rand  2-diag
   LASPH  =      T    aspherical Exc in radial PAW
   METAGGA=      F    non-selfconsistent MetaGGA calc.

 Electronic Relaxation 1
   ENCUT  =  600.0 eV  44.10 Ry    6.64 a.u.  14.51 14.51 14.51*2*pi/ulx,y,z
   ENINI  =  600.0     initial cutoff
   ENAUG  =  535.5 eV  augmentation charge cutoff
   NELM   =    100;   NELMIN=  6; NELMDL= -5     # of ELM steps 
   EDIFF  = 0.1E-08   stopping-criterion for ELM
   LREAL  =      F    real-space projection
   NLSPLINE    = F    spline interpolate recip. space projectors
   LCOMPAT=      F    compatible to vasp.4.4
   GGA_COMPAT  = T    GGA compatible to vasp.4.4-vasp.4.6
   LMAXPAW     = -100 max onsite density
   LMAXMIX     =    2 max onsite mixed and CHGCAR
   VOSKOWN=      0    Vosko Wilk Nusair interpolation
   ROPT   =    0.00000   0.00000   0.00000
 Ionic relaxation
   EDIFFG = 0.1E-07   stopping-criterion for IOM
   NSW    =      0    number of steps for IOM
   NBLOCK =      1;   KBLOCK =      1    inner block; outer block 
   IBRION =     -1    ionic relax: 0-MD 1-quasi-New 2-CG
   NFREE  =      0    steps in history (QN), initial steepest desc. (CG)
   ISIF   =     -1    stress and relaxation
   IWAVPR =     10    prediction:  0-non 1-charg 2-wave 3-comb
   ISYM   =      2    0-nonsym 1-usesym 2-fastsym
   LCORR  =      T    Harris-Foulkes like correction to forces

   POTIM  = 0.5000    time-step for ionic-motion
   TEIN   =    0.0    initial temperature
   TEBEG  =    0.0;   TEEND  =   0.0 temperature during run
   SMASS  =  -3.00    Nose mass-parameter (am)
   estimated Nose-frequenzy (Omega)   =  0.10E-29 period in steps = 0.13E+47 mass=  -0.121E-26a.u.
   SCALEE = 1.0000    scale energy and forces
   NPACO  =    256;   APACO  = 16.0  distance and # of slots for P.C.
   PSTRESS=    0.0 pullay stress

  Mass of Ions in am
   POMASS =  10.81 95.94 28.09
  Ionic Valenz
   ZVAL   =   3.00 14.00  4.00
  Atomic Wigner-Seitz radii
   RWIGS  =  -1.00 -1.00 -1.00
  virtual crystal weights 
   VCA    =   1.00  1.00  1.00
   NELECT =     132.0000    total number of electrons
   NUPDOWN=      -1.0000    fix difference up-down

 DOS related values:
   EMIN   =  10.00;   EMAX   =-10.00  energy-range for DOS
   EFERMI =   0.00
   ISMEAR =     0;   SIGMA  =   0.02  broadening in eV -4-tet -1-fermi 0-gaus

 Electronic relaxation 2 (details)
   IALGO  =     58    algorithm
   LDIAG  =      T    sub-space diagonalisation (order eigenvalues)
   LSUBROT=      F    optimize rotation matrix (better conditioning)
   TURBO    =      0    0=normal 1=particle mesh
   IRESTART =      0    0=no restart 2=restart with 2 vectors
   NREBOOT  =      0    no. of reboots
   NMIN     =      0    reboot dimension
   EREF     =   0.00    reference energy to select bands
   IMIX   =      4    mixing-type and parameters
     AMIX     =   0.40;   BMIX     =  1.00
     AMIX_MAG =   1.60;   BMIX_MAG =  1.00
     AMIN     =   0.10
     WC   =   100.;   INIMIX=   1;  MIXPRE=   1;  MAXMIX= -45

 Intra band minimization:
   WEIMIN = 0.0000     energy-eigenvalue tresh-hold
   EBREAK =  0.30E-11  absolut break condition
   DEPER  =   0.30     relativ break condition  

   TIME   =   0.40     timestep for ELM

  volume/ion in A,a.u.               =      15.19       102.51
  Fermi-wavevector in a.u.,A,eV,Ry     =   1.396470  2.638945 26.533096  1.950128
  Thomas-Fermi vector in A             =   2.519821
 
 Write flags
   LWAVE        =      T    write WAVECAR
   LDOWNSAMPLE  =      F    k-point downsampling of WAVECAR
   LCHARG       =      T    write CHGCAR
   LVTOT        =      F    write LOCPOT, total local potential
   LVHAR        =      F    write LOCPOT, Hartree potential only
   LELF         =      F    write electronic localiz. function (ELF)
   LORBIT       =      0    0 simple, 1 ext, 2 COOP (PROOUT), +10 PAW based schemes


 Dipole corrections
   LMONO  =      F    monopole corrections only (constant potential shift)
   LDIPOL =      F    correct potential (dipole corrections)
   IDIPOL =      0    1-x, 2-y, 3-z, 4-all directions 
   EPSILON=  1.0000000 bulk dielectric constant

 Exchange correlation treatment:
   GGA     =    --    GGA type
   LEXCH   =     8    internal setting for exchange type
   VOSKOWN=      0    Vosko Wilk Nusair interpolation
   LHFCALC =     F    Hartree Fock is set to
   LHFONE  =     F    Hartree Fock one center treatment
   AEXX    =    0.0000 exact exchange contribution

 Linear response parameters
   LEPSILON=     F    determine dielectric tensor
   LRPA    =     F    only Hartree local field effects (RPA)
   LNABLA  =     F    use nabla operator in PAW spheres
   LVEL    =     F    velocity operator in full k-point grid
   LINTERFAST=   F  fast interpolation
   KINTER  =     0    interpolate to denser k-point grid
   CSHIFT  =0.1000    complex shift for real part using Kramers Kronig
   OMEGAMAX=  -1.0    maximum frequency
   DEG_THRESHOLD= 0.2000000E-02 threshold for treating states as degnerate
   RTIME   =   -0.100 relaxation time in fs
  (WPLASMAI=    0.000 imaginary part of plasma frequency in eV, 0.658/RTIME)
   DFIELD  = 0.0000000 0.0000000 0.0000000 field for delta impulse in time
 
 Orbital magnetization related:
   ORBITALMAG=     F  switch on orbital magnetization
   LCHIMAG   =     F  perturbation theory with respect to B field
   DQ        =  0.001000  dq finite difference perturbation B field
   LLRAUG    =     F  two centre corrections for induced B field



--------------------------------------------------------------------------------------------------------


 Static calculation
 charge density and potential will be updated during run
 non-spin polarized calculation
 Conjugate gradient for all bands (Freysoldt, et al. PRB 79, 241103 (2009))
 preconditioned conjugated gradient                                        
 perform sub-space diagonalisation
    before iterative eigenvector-optimisation
 modified Broyden-mixing scheme, WC =      100.0
 initial mixing is a Kerker type mixing with AMIX =  0.4000 and BMIX =      1.0000
 Hartree-type preconditioning will be used
 using additional bands           18
 reciprocal scheme for non local part
 use partial core corrections
 no Harris-corrections to forces 
 use gradient corrections 
 use of overlap-Matrix (Vanderbilt PP)
 Gauss-broadening in eV      SIGMA  =   0.02


--------------------------------------------------------------------------------------------------------


  energy-cutoff  :      600.00
  volume of cell :      212.67
      direct lattice vectors                 reciprocal lattice vectors
     5.468488496  0.000000000 -4.786288347     0.182865887  0.038464082  0.000000000
    -1.125613199  5.351388731 -4.786288347     0.000000000  0.186867382  0.000000000
     0.000000000  0.000000000  7.267250000     0.120437423  0.148405705  0.137603633

  length of vectors
     7.267250000  7.267250000  7.267250000     0.186867382  0.186867382  0.235508356


 
 k-points in units of 2pi/SCALE and weight: EA                                      
   0.00000000  0.00000000  0.00000000       0.003
   0.02612370  0.00549487  0.00000000       0.010
   0.05224740  0.01098974  0.00000000       0.010
   0.07837109  0.01648461  0.00000000       0.010
   0.02612370  0.03219021  0.00000000       0.005
   0.05224740  0.03768508  0.00000000       0.010
   0.07837109  0.04317995  0.00000000       0.010
  -0.07837109  0.01021073  0.00000000       0.010
  -0.05224740  0.01570560  0.00000000       0.010
  -0.02612370  0.02120047  0.00000000       0.005
   0.05224740  0.06438042  0.00000000       0.005
   0.07837109  0.06987529  0.00000000       0.010
  -0.07837109  0.03690607  0.00000000       0.010
  -0.05224740  0.04240094  0.00000000       0.005
   0.07837109  0.09657063  0.00000000       0.005
  -0.07837109  0.06360141  0.00000000       0.005
   0.01505468  0.01855071  0.01720045       0.005
   0.04117838  0.02404558  0.01720045       0.010
   0.06730207  0.02954045  0.01720045       0.010
   0.09342577  0.03503532  0.01720045       0.010
  -0.06331642  0.00206611  0.01720045       0.010
  -0.03719272  0.00756098  0.01720045       0.010
  -0.01106902  0.01305584  0.01720045       0.010
   0.04117838  0.05074092  0.01720045       0.005
   0.06730207  0.05623579  0.01720045       0.010
   0.09342577  0.06173066  0.01720045       0.010
  -0.06331642  0.02876145  0.01720045       0.010
  -0.03719272  0.03425632  0.01720045       0.010
  -0.01106902  0.03975118  0.01720045       0.010
   0.06730207  0.08293113  0.01720045       0.005
   0.09342577  0.08842600  0.01720045       0.010
  -0.06331642  0.05545679  0.01720045       0.010
  -0.03719272  0.06095166  0.01720045       0.010
  -0.01106902  0.06644652  0.01720045       0.010
   0.09342577  0.11512134  0.01720045       0.005
  -0.06331642  0.08215213  0.01720045       0.010
  -0.03719272  0.08764700  0.01720045       0.010
  -0.01106902  0.09314186  0.01720045       0.010
  -0.06331642 -0.07801991  0.01720045       0.005
  -0.03719272 -0.07252505  0.01720045       0.010
  -0.01106902 -0.06703018  0.01720045       0.010
  -0.03719272 -0.04582971  0.01720045       0.005
  -0.01106902 -0.04033484  0.01720045       0.010
  -0.01106902 -0.01363950  0.01720045       0.005
   0.03010936  0.03710143  0.03440091       0.005
   0.05623305  0.04259630  0.03440091       0.010
   0.08235675  0.04809116  0.03440091       0.010
   0.10848045  0.05358603  0.03440091       0.010
  -0.04826174  0.02061682  0.03440091       0.010
  -0.02213804  0.02611169  0.03440091       0.010
   0.00398566  0.03160656  0.03440091       0.010
   0.05623305  0.06929164  0.03440091       0.005
   0.08235675  0.07478650  0.03440091       0.010
   0.10848045  0.08028137  0.03440091       0.010
  -0.04826174  0.04731216  0.03440091       0.010
  -0.02213804  0.05280703  0.03440091       0.010
   0.00398566  0.05830190  0.03440091       0.010
   0.08235675  0.10148184  0.03440091       0.005
   0.10848045  0.10697671  0.03440091       0.010
  -0.04826174  0.07400750  0.03440091       0.010
  -0.02213804  0.07950237  0.03440091       0.010
   0.00398566  0.08499724  0.03440091       0.010
   0.10848045  0.13367205  0.03440091       0.005
  -0.04826174  0.10070284  0.03440091       0.010
  -0.02213804  0.10619771  0.03440091       0.010
   0.00398566  0.11169258  0.03440091       0.010
  -0.04826174 -0.05946920  0.03440091       0.005
  -0.02213804 -0.05397433  0.03440091       0.010
   0.00398566 -0.04847946  0.03440091       0.010
  -0.02213804 -0.02727899  0.03440091       0.005
   0.00398566 -0.02178412  0.03440091       0.010
   0.00398566  0.00491122  0.03440091       0.005
   0.04516403  0.05565214  0.05160136       0.005
   0.07128773  0.06114701  0.05160136       0.010
   0.09741143  0.06664188  0.05160136       0.010
   0.12353513  0.07213675  0.05160136       0.010
  -0.03320706  0.03916753  0.05160136       0.010
  -0.00708336  0.04466240  0.05160136       0.010
   0.01904034  0.05015727  0.05160136       0.010
   0.07128773  0.08784235  0.05160136       0.005
   0.09741143  0.09333722  0.05160136       0.010
   0.12353513  0.09883209  0.05160136       0.010
  -0.03320706  0.06586287  0.05160136       0.010
  -0.00708336  0.07135774  0.05160136       0.010
   0.01904034  0.07685261  0.05160136       0.010
   0.09741143  0.12003256  0.05160136       0.005
   0.12353513  0.12552743  0.05160136       0.010
  -0.03320706  0.09255821  0.05160136       0.010
  -0.00708336  0.09805308  0.05160136       0.010
   0.01904034  0.10354795  0.05160136       0.010
   0.12353513  0.15222277  0.05160136       0.005
  -0.03320706  0.11925355  0.05160136       0.010
  -0.00708336  0.12474842  0.05160136       0.010
   0.01904034  0.13024329  0.05160136       0.010
  -0.03320706 -0.04091849  0.05160136       0.005
  -0.00708336 -0.03542362  0.05160136       0.010
   0.01904034 -0.02992875  0.05160136       0.010
  -0.00708336 -0.00872828  0.05160136       0.005
   0.01904034 -0.00323341  0.05160136       0.010
   0.01904034  0.02346193  0.05160136       0.005
   0.06021871  0.07420285  0.06880182       0.003
   0.08634241  0.07969772  0.06880182       0.010
   0.11246611  0.08519259  0.06880182       0.010
   0.13858981  0.09068746  0.06880182       0.010
   0.08634241  0.10639306  0.06880182       0.005
   0.11246611  0.11188793  0.06880182       0.010
   0.13858981  0.11738280  0.06880182       0.010
  -0.01815238  0.08441359  0.06880182       0.010
   0.00797132  0.08990845  0.06880182       0.010
   0.03409501  0.09540332  0.06880182       0.005
   0.11246611  0.13858327  0.06880182       0.005
   0.13858981  0.14407814  0.06880182       0.010
  -0.01815238  0.11110893  0.06880182       0.010
   0.00797132  0.11660380  0.06880182       0.005
   0.13858981  0.17077348  0.06880182       0.005
  -0.01815238  0.13780427  0.06880182       0.005
 
 k-points in reciprocal lattice and weights: EA                                      
   0.00000000  0.00000000  0.00000000       0.003
   0.14285714  0.00000000  0.00000000       0.010
   0.28571429  0.00000000  0.00000000       0.010
   0.42857143  0.00000000  0.00000000       0.010
   0.14285714  0.14285714  0.00000000       0.005
   0.28571429  0.14285714  0.00000000       0.010
   0.42857143  0.14285714  0.00000000       0.010
  -0.42857143  0.14285714  0.00000000       0.010
  -0.28571429  0.14285714  0.00000000       0.010
  -0.14285714  0.14285714  0.00000000       0.005
   0.28571429  0.28571429  0.00000000       0.005
   0.42857143  0.28571429  0.00000000       0.010
  -0.42857143  0.28571429  0.00000000       0.010
  -0.28571429  0.28571429  0.00000000       0.005
   0.42857143  0.42857143  0.00000000       0.005
  -0.42857143  0.42857143  0.00000000       0.005
  -0.00000000 -0.00000000  0.12500000       0.005
   0.14285714  0.00000000  0.12500000       0.010
   0.28571429 -0.00000000  0.12500000       0.010
   0.42857143  0.00000000  0.12500000       0.010
  -0.42857143 -0.00000000  0.12500000       0.010
  -0.28571429 -0.00000000  0.12500000       0.010
  -0.14285714 -0.00000000  0.12500000       0.010
   0.14285714  0.14285714  0.12500000       0.005
   0.28571429  0.14285714  0.12500000       0.010
   0.42857143  0.14285714  0.12500000       0.010
  -0.42857143  0.14285714  0.12500000       0.010
  -0.28571429  0.14285714  0.12500000       0.010
  -0.14285714  0.14285714  0.12500000       0.010
   0.28571429  0.28571429  0.12500000       0.005
   0.42857143  0.28571429  0.12500000       0.010
  -0.42857143  0.28571429  0.12500000       0.010
  -0.28571429  0.28571429  0.12500000       0.010
  -0.14285714  0.28571429  0.12500000       0.010
   0.42857143  0.42857143  0.12500000       0.005
  -0.42857143  0.42857143  0.12500000       0.010
  -0.28571429  0.42857143  0.12500000       0.010
  -0.14285714  0.42857143  0.12500000       0.010
  -0.42857143 -0.42857143  0.12500000       0.005
  -0.28571429 -0.42857143  0.12500000       0.010
  -0.14285714 -0.42857143  0.12500000       0.010
  -0.28571429 -0.28571429  0.12500000       0.005
  -0.14285714 -0.28571429  0.12500000       0.010
  -0.14285714 -0.14285714  0.12500000       0.005
  -0.00000000 -0.00000000  0.25000000       0.005
   0.14285714 -0.00000000  0.25000000       0.010
   0.28571429 -0.00000000  0.25000000       0.010
   0.42857143  0.00000000  0.25000000       0.010
  -0.42857143 -0.00000000  0.25000000       0.010
  -0.28571429 -0.00000000  0.25000000       0.010
  -0.14285714 -0.00000000  0.25000000       0.010
   0.14285714  0.14285714  0.25000000       0.005
   0.28571429  0.14285714  0.25000000       0.010
   0.42857143  0.14285714  0.25000000       0.010
  -0.42857143  0.14285714  0.25000000       0.010
  -0.28571429  0.14285714  0.25000000       0.010
  -0.14285714  0.14285714  0.25000000       0.010
   0.28571429  0.28571429  0.25000000       0.005
   0.42857143  0.28571429  0.25000000       0.010
  -0.42857143  0.28571429  0.25000000       0.010
  -0.28571429  0.28571429  0.25000000       0.010
  -0.14285714  0.28571429  0.25000000       0.010
   0.42857143  0.42857143  0.25000000       0.005
  -0.42857143  0.42857143  0.25000000       0.010
  -0.28571429  0.42857143  0.25000000       0.010
  -0.14285714  0.42857143  0.25000000       0.010
  -0.42857143 -0.42857143  0.25000000       0.005
  -0.28571429 -0.42857143  0.25000000       0.010
  -0.14285714 -0.42857143  0.25000000       0.010
  -0.28571429 -0.28571429  0.25000000       0.005
  -0.14285714 -0.28571429  0.25000000       0.010
  -0.14285714 -0.14285714  0.25000000       0.005
   0.00000000 -0.00000000  0.37500000       0.005
   0.14285714  0.00000000  0.37500000       0.010
   0.28571429  0.00000000  0.37500000       0.010
   0.42857143 -0.00000000  0.37500000       0.010
  -0.42857143 -0.00000000  0.37500000       0.010
  -0.28571429  0.00000000  0.37500000       0.010
  -0.14285714  0.00000000  0.37500000       0.010
   0.14285714  0.14285714  0.37500000       0.005
   0.28571429  0.14285714  0.37500000       0.010
   0.42857143  0.14285714  0.37500000       0.010
  -0.42857143  0.14285714  0.37500000       0.010
  -0.28571429  0.14285714  0.37500000       0.010
  -0.14285714  0.14285714  0.37500000       0.010
   0.28571429  0.28571429  0.37500000       0.005
   0.42857143  0.28571429  0.37500000       0.010
  -0.42857143  0.28571429  0.37500000       0.010
  -0.28571429  0.28571429  0.37500000       0.010
  -0.14285714  0.28571429  0.37500000       0.010
   0.42857143  0.42857143  0.37500000       0.005
  -0.42857143  0.42857143  0.37500000       0.010
  -0.28571429  0.42857143  0.37500000       0.010
  -0.14285714  0.42857143  0.37500000       0.010
  -0.42857143 -0.42857143  0.37500000       0.005
  -0.28571429 -0.42857143  0.37500000       0.010
  -0.14285714 -0.42857143  0.37500000       0.010
  -0.28571429 -0.28571429  0.37500000       0.005
  -0.14285714 -0.28571429  0.37500000       0.010
  -0.14285714 -0.14285714  0.37500000       0.005
  -0.00000000 -0.00000000  0.50000000       0.003
   0.14285714 -0.00000000  0.50000000       0.010
   0.28571429  0.00000000  0.50000000       0.010
   0.42857143 -0.00000000  0.50000000       0.010
   0.14285714  0.14285714  0.50000000       0.005
   0.28571429  0.14285714  0.50000000       0.010
   0.42857143  0.14285714  0.50000000       0.010
  -0.42857143  0.14285714  0.50000000       0.010
  -0.28571429  0.14285714  0.50000000       0.010
  -0.14285714  0.14285714  0.50000000       0.005
   0.28571429  0.28571429  0.50000000       0.005
   0.42857143  0.28571429  0.50000000       0.010
  -0.42857143  0.28571429  0.50000000       0.010
  -0.28571429  0.28571429  0.50000000       0.005
   0.42857143  0.42857143  0.50000000       0.005
  -0.42857143  0.42857143  0.50000000       0.005
 
 position of ions in fractional coordinates (direct lattice) 
   0.35395000  0.85395000  0.50000000
   0.64605000  0.14605000  0.50000000
   0.85395000  0.35395000  0.50000000
   0.14605000  0.64605000  0.50000000
   0.37826000  0.37826000  0.00000000
   0.74346000  0.24346000  0.98692000
   0.62174000  0.62174000  0.00000000
   0.25654000  0.75654000  0.01308000
   0.24346000  0.25654000  0.50000000
   0.75654000  0.74346000  0.50000000
   0.12174000  0.12174000  0.00000000
   0.87826000  0.87826000  0.00000000
   0.50000000  0.00000000  0.50000000
   0.00000000  0.50000000  0.50000000
 
 position of ions in cartesian coordinates  (Angst):
   0.97435411  4.56981841 -2.14773269
   3.36852118  0.78157032 -0.15759400
   4.27140496  1.89412404 -2.14773269
   0.07147034  3.45726469 -0.15759400
   1.64273601  2.02421630 -3.62092286
   3.79156067  1.30284910  2.44851068
   2.70013929  3.32717243 -5.95165383
   0.55131463  4.04853963 -4.75383737
   1.04259340  1.37284527  1.24048083
   3.30028190  3.97854347 -3.54580752
   0.52870164  0.65147806 -1.16536549
   3.81417366  4.69991067 -8.40721121
   2.73424425  0.00000000  1.24048083
  -0.56280660  2.67569437  1.24048083
 


--------------------------------------------------------------------------------------------------------


 k-point   1 :   0.0000 0.0000 0.0000  plane waves:    7107
 k-point   2 :   0.1429 0.0000 0.0000  plane waves:    7097
 k-point   3 :   0.2857 0.0000 0.0000  plane waves:    7102
 k-point   4 :   0.4286 0.0000 0.0000  plane waves:    7096
 k-point   5 :   0.1429 0.1429 0.0000  plane waves:    7099
 k-point   6 :   0.2857 0.1429 0.0000  plane waves:    7100
 k-point   7 :   0.4286 0.1429 0.0000  plane waves:    7107
 k-point   8 :  -0.4286 0.1429 0.0000  plane waves:    7103
 k-point   9 :  -0.2857 0.1429 0.0000  plane waves:    7092
 k-point  10 :  -0.1429 0.1429 0.0000  plane waves:    7103
 k-point  11 :   0.2857 0.2857 0.0000  plane waves:    7100
 k-point  12 :   0.4286 0.2857 0.0000  plane waves:    7112
 k-point  13 :  -0.4286 0.2857 0.0000  plane waves:    7114
 k-point  14 :  -0.2857 0.2857 0.0000  plane waves:    7093
 k-point  15 :   0.4286 0.4286 0.0000  plane waves:    7105
 k-point  16 :  -0.4286 0.4286 0.0000  plane waves:    7089
 k-point  17 :  -0.0000-0.0000 0.1250  plane waves:    7103
 k-point  18 :   0.1429 0.0000 0.1250  plane waves:    7106
 k-point  19 :   0.2857-0.0000 0.1250  plane waves:    7102
 k-point  20 :   0.4286 0.0000 0.1250  plane waves:    7097
 k-point  21 :  -0.4286-0.0000 0.1250  plane waves:    7100
 k-point  22 :  -0.2857-0.0000 0.1250  plane waves:    7101
 k-point  23 :  -0.1429-0.0000 0.1250  plane waves:    7102
 k-point  24 :   0.1429 0.1429 0.1250  plane waves:    7098
 k-point  25 :   0.2857 0.1429 0.1250  plane waves:    7097
 k-point  26 :   0.4286 0.1429 0.1250  plane waves:    7102
 k-point  27 :  -0.4286 0.1429 0.1250  plane waves:    7094
 k-point  28 :  -0.2857 0.1429 0.1250  plane waves:    7102
 k-point  29 :  -0.1429 0.1429 0.1250  plane waves:    7121
 k-point  30 :   0.2857 0.2857 0.1250  plane waves:    7107
 k-point  31 :   0.4286 0.2857 0.1250  plane waves:    7101
 k-point  32 :  -0.4286 0.2857 0.1250  plane waves:    7104
 k-point  33 :  -0.2857 0.2857 0.1250  plane waves:    7127
 k-point  34 :  -0.1429 0.2857 0.1250  plane waves:    7110
 k-point  35 :   0.4286 0.4286 0.1250  plane waves:    7103
 k-point  36 :  -0.4286 0.4286 0.1250  plane waves:    7108
 k-point  37 :  -0.2857 0.4286 0.1250  plane waves:    7105
 k-point  38 :  -0.1429 0.4286 0.1250  plane waves:    7099
 k-point  39 :  -0.4286-0.4286 0.1250  plane waves:    7103
 k-point  40 :  -0.2857-0.4286 0.1250  plane waves:    7100
 k-point  41 :  -0.1429-0.4286 0.1250  plane waves:    7086
 k-point  42 :  -0.2857-0.2857 0.1250  plane waves:    7083
 k-point  43 :  -0.1429-0.2857 0.1250  plane waves:    7081
 k-point  44 :  -0.1429-0.1429 0.1250  plane waves:    7070
 k-point  45 :  -0.0000-0.0000 0.2500  plane waves:    7097
 k-point  46 :   0.1429-0.0000 0.2500  plane waves:    7104
 k-point  47 :   0.2857-0.0000 0.2500  plane waves:    7109
 k-point  48 :   0.4286 0.0000 0.2500  plane waves:    7096
 k-point  49 :  -0.4286-0.0000 0.2500  plane waves:    7093
 k-point  50 :  -0.2857-0.0000 0.2500  plane waves:    7103
 k-point  51 :  -0.1429-0.0000 0.2500  plane waves:    7118
 k-point  52 :   0.1429 0.1429 0.2500  plane waves:    7110
 k-point  53 :   0.2857 0.1429 0.2500  plane waves:    7106
 k-point  54 :   0.4286 0.1429 0.2500  plane waves:    7108
 k-point  55 :  -0.4286 0.1429 0.2500  plane waves:    7099
 k-point  56 :  -0.2857 0.1429 0.2500  plane waves:    7104
 k-point  57 :  -0.1429 0.1429 0.2500  plane waves:    7111
 k-point  58 :   0.2857 0.2857 0.2500  plane waves:    7101
 k-point  59 :   0.4286 0.2857 0.2500  plane waves:    7106
 k-point  60 :  -0.4286 0.2857 0.2500  plane waves:    7108
 k-point  61 :  -0.2857 0.2857 0.2500  plane waves:    7117
 k-point  62 :  -0.1429 0.2857 0.2500  plane waves:    7099
 k-point  63 :   0.4286 0.4286 0.2500  plane waves:    7101
 k-point  64 :  -0.4286 0.4286 0.2500  plane waves:    7097
 k-point  65 :  -0.2857 0.4286 0.2500  plane waves:    7089
 k-point  66 :  -0.1429 0.4286 0.2500  plane waves:    7100
 k-point  67 :  -0.4286-0.4286 0.2500  plane waves:    7080
 k-point  68 :  -0.2857-0.4286 0.2500  plane waves:    7070
 k-point  69 :  -0.1429-0.4286 0.2500  plane waves:    7086
 k-point  70 :  -0.2857-0.2857 0.2500  plane waves:    7044
 k-point  71 :  -0.1429-0.2857 0.2500  plane waves:    7071
 k-point  72 :  -0.1429-0.1429 0.2500  plane waves:    7094
 k-point  73 :   0.0000-0.0000 0.3750  plane waves:    7095
 k-point  74 :   0.1429 0.0000 0.3750  plane waves:    7102
 k-point  75 :   0.2857 0.0000 0.3750  plane waves:    7117
 k-point  76 :   0.4286-0.0000 0.3750  plane waves:    7097
 k-point  77 :  -0.4286-0.0000 0.3750  plane waves:    7098
 k-point  78 :  -0.2857 0.0000 0.3750  plane waves:    7096
 k-point  79 :  -0.1429 0.0000 0.3750  plane waves:    7102
 k-point  80 :   0.1429 0.1429 0.3750  plane waves:    7094
 k-point  81 :   0.2857 0.1429 0.3750  plane waves:    7103
 k-point  82 :   0.4286 0.1429 0.3750  plane waves:    7103
 k-point  83 :  -0.4286 0.1429 0.3750  plane waves:    7104
 k-point  84 :  -0.2857 0.1429 0.3750  plane waves:    7105
 k-point  85 :  -0.1429 0.1429 0.3750  plane waves:    7098
 k-point  86 :   0.2857 0.2857 0.3750  plane waves:    7125
 k-point  87 :   0.4286 0.2857 0.3750  plane waves:    7103
 k-point  88 :  -0.4286 0.2857 0.3750  plane waves:    7092
 k-point  89 :  -0.2857 0.2857 0.3750  plane waves:    7087
 k-point  90 :  -0.1429 0.2857 0.3750  plane waves:    7100
 k-point  91 :   0.4286 0.4286 0.3750  plane waves:    7090
 k-point  92 :  -0.4286 0.4286 0.3750  plane waves:    7071
 k-point  93 :  -0.2857 0.4286 0.3750  plane waves:    7065
 k-point  94 :  -0.1429 0.4286 0.3750  plane waves:    7096
 k-point  95 :  -0.4286-0.4286 0.3750  plane waves:    7065
 k-point  96 :  -0.2857-0.4286 0.3750  plane waves:    7057
 k-point  97 :  -0.1429-0.4286 0.3750  plane waves:    7085
 k-point  98 :  -0.2857-0.2857 0.3750  plane waves:    7069
 k-point  99 :  -0.1429-0.2857 0.3750  plane waves:    7099
 k-point 100 :  -0.1429-0.1429 0.3750  plane waves:    7101
 k-point 101 :  -0.0000-0.0000 0.5000  plane waves:    7096
 k-point 102 :   0.1429-0.0000 0.5000  plane waves:    7099
 k-point 103 :   0.2857 0.0000 0.5000  plane waves:    7104
 k-point 104 :   0.4286-0.0000 0.5000  plane waves:    7100
 k-point 105 :   0.1429 0.1429 0.5000  plane waves:    7101
 k-point 106 :   0.2857 0.1429 0.5000  plane waves:    7094
 k-point 107 :   0.4286 0.1429 0.5000  plane waves:    7089
 k-point 108 :  -0.4286 0.1429 0.5000  plane waves:    7088
 k-point 109 :  -0.2857 0.1429 0.5000  plane waves:    7103
 k-point 110 :  -0.1429 0.1429 0.5000  plane waves:    7084
 k-point 111 :   0.2857 0.2857 0.5000  plane waves:    7099
 k-point 112 :   0.4286 0.2857 0.5000  plane waves:    7081
 k-point 113 :  -0.4286 0.2857 0.5000  plane waves:    7074
 k-point 114 :  -0.2857 0.2857 0.5000  plane waves:    7090
 k-point 115 :   0.4286 0.4286 0.5000  plane waves:    7064
 k-point 116 :  -0.4286 0.4286 0.5000  plane waves:    7056

 maximum and minimum number of plane-waves per node :      3586     3519

 maximum number of plane-waves:      7127
 maximum index in each direction: 
   IXMAX=   14   IYMAX=   14   IZMAX=   14
   IXMIN=  -14   IYMIN=  -14   IZMIN=  -15


 parallel 3D FFT for wavefunctions:
    minimum data exchange during FFTs selected (reduces bandwidth)
 parallel 3D FFT for charge:
    minimum data exchange during FFTs selected (reduces bandwidth)


 total amount of memory used by VASP MPI-rank0   536656. kBytes
=======================================================================

   base      :      30000. kBytes
   nonl-proj :     179095. kBytes
   fftplans  :      24311. kBytes
   grid      :      18307. kBytes
   one-center:        108. kBytes
   wavefun   :     284835. kBytes
 
     INWAV:  cpu time    0.0001: real time    0.0001
 Broyden mixing: mesh for mixing (old mesh)
   NGX = 29   NGY = 29   NGZ = 29
  (NGX  =120   NGY  =120   NGZ  =120)
  gives a total of  24389 points

 initial charge density was supplied:
 charge density of overlapping atoms calculated
 number of electron     132.0000000 magnetization 
 keeping initial charge density in first step


--------------------------------------------------------------------------------------------------------


 Maximum index for augmentation-charges        28931 (set IRDMAX)


--------------------------------------------------------------------------------------------------------


 First call to EWALD:  gamma=   0.297
 Maximum number of real-space cells 3x 3x 4
 Maximum number of reciprocal cells 3x 3x 3

    FEWALD:  cpu time    0.0347: real time    0.0350


--------------------------------------- Iteration      1(   1)  ---------------------------------------


    POTLOK:  cpu time    0.3270: real time    0.3300
    SETDIJ:  cpu time    0.6915: real time    0.6978
    TRIAL :  cpu time   66.2473: real time   66.9841
    CORREC:  cpu time    0.0027: real time    0.0027
    --------------------------------------------
      LOOP:  cpu time   67.4362: real time   68.1904

 eigenvalue-minimisations  : 19668
 total energy-change (2. order) : 0.1502566E+04  (-0.9055803E+04)
 number of electron     132.0000000 magnetization 
 augmentation part      132.0000000 magnetization 

 Free energy of the ion-electron system (eV)
  ---------------------------------------------------
  alpha Z        PSCENC =       721.00068882
  Ewald energy   TEWEN  =    -10406.60166301
  -Hartree energ DENC   =     -4859.34479062
  -exchange      EXHF   =         0.00000000
  -V(xc)+E(xc)   XCENC  =       637.52213187
  PAW double counting   =     12222.79056693   -12176.19405220
  entropy T*S    EENTRO =        -0.00091174
  eigenvalues    EBANDS =       -25.67786974
  atomic energy  EATOM  =     15389.07168825
  ---------------------------------------------------
  free energy    TOTEN  =      1502.56578855 eV

  energy without entropy =     1502.56670029  energy(sigma->0) =     1502.56624442


--------------------------------------------------------------------------------------------------------




--------------------------------------- Iteration      1(   2)  ---------------------------------------


    TRIAL :  cpu time   76.0592: real time   76.8471
    CORREC:  cpu time    0.0026: real time    0.0026
    --------------------------------------------
      LOOP:  cpu time   76.0636: real time   76.8535

 eigenvalue-minimisations  : 20988
 total energy-change (2. order) :-0.1714747E+04  (-0.1670194E+04)
 number of electron     132.0000000 magnetization 
 augmentation part      132.0000000 magnetization 

 Free energy of the ion-electron system (eV)
  ---------------------------------------------------
  alpha Z        PSCENC =       721.00068882
  Ewald energy   TEWEN  =    -10406.60166301
  -Hartree energ DENC   =     -4859.34479062
  -exchange      EXHF   =         0.00000000
  -V(xc)+E(xc)   XCENC  =       637.52213187
  PAW double counting   =     12222.79056693   -12176.19405220
  entropy T*S    EENTRO =        -0.00241633
  eigenvalues    EBANDS =     -1740.42328760
  atomic energy  EATOM  =     15389.07168825
  ---------------------------------------------------
  free energy    TOTEN  =      -212.18113389 eV

  energy without entropy =     -212.17871757  energy(sigma->0) =     -212.17992573


--------------------------------------------------------------------------------------------------------




--------------------------------------- Iteration      1(   3)  ---------------------------------------


    TRIAL :  cpu time   85.4185: real time   86.3117
    CORREC:  cpu time    0.0026: real time    0.0026
    --------------------------------------------
      LOOP:  cpu time   85.4223: real time   86.3170

 eigenvalue-minimisations  : 25956
 total energy-change (2. order) :-0.7145897E+02  (-0.6877707E+02)
 number of electron     132.0000000 magnetization 
 augmentation part      132.0000000 magnetization 

 Free energy of the ion-electron system (eV)
  ---------------------------------------------------
  alpha Z        PSCENC =       721.00068882
  Ewald energy   TEWEN  =    -10406.60166301
  -Hartree energ DENC   =     -4859.34479062
  -exchange      EXHF   =         0.00000000
  -V(xc)+E(xc)   XCENC  =       637.52213187
  PAW double counting   =     12222.79056693   -12176.19405220
  entropy T*S    EENTRO =        -0.00236499
  eigenvalues    EBANDS =     -1811.88231010
  atomic energy  EATOM  =     15389.07168825
  ---------------------------------------------------
  free energy    TOTEN  =      -283.64010505 eV

  energy without entropy =     -283.63774006  energy(sigma->0) =     -283.63892256


--------------------------------------------------------------------------------------------------------




--------------------------------------- Iteration      1(   4)  ---------------------------------------


    TRIAL :  cpu time   81.4641: real time   82.3325
    CORREC:  cpu time    0.0024: real time    0.0024
    --------------------------------------------
      LOOP:  cpu time   81.4679: real time   82.3379

 eigenvalue-minimisations  : 24144
 total energy-change (2. order) :-0.1922987E+01  (-0.1876559E+01)
 number of electron     132.0000000 magnetization 
 augmentation part      132.0000000 magnetization 

 Free energy of the ion-electron system (eV)
  ---------------------------------------------------
  alpha Z        PSCENC =       721.00068882
  Ewald energy   TEWEN  =    -10406.60166301
  -Hartree energ DENC   =     -4859.34479062
  -exchange      EXHF   =         0.00000000
  -V(xc)+E(xc)   XCENC  =       637.52213187
  PAW double counting   =     12222.79056693   -12176.19405220
  entropy T*S    EENTRO =        -0.00203607
  eigenvalues    EBANDS =     -1813.80562589
  atomic energy  EATOM  =     15389.07168825
  ---------------------------------------------------
  free energy    TOTEN  =      -285.56309192 eV

  energy without entropy =     -285.56105585  energy(sigma->0) =     -285.56207389


--------------------------------------------------------------------------------------------------------




--------------------------------------- Iteration      1(   5)  ---------------------------------------


    TRIAL :  cpu time   80.1822: real time   81.0218
    CORREC:  cpu time    0.0025: real time    0.0025
    CHARGE:  cpu time    4.1395: real time    4.1740
    --------------------------------------------
      LOOP:  cpu time   84.3258: real time   85.2013

 eigenvalue-minimisations  : 23880
 total energy-change (2. order) :-0.5127699E-01  (-0.5103940E-01)
 number of electron     132.0000001 magnetization 
 augmentation part       16.9584619 magnetization 

 Free energy of the ion-electron system (eV)
  ---------------------------------------------------
  alpha Z        PSCENC =       721.00068882
  Ewald energy   TEWEN  =    -10406.60166301
  -Hartree energ DENC   =     -4859.34479062
  -exchange      EXHF   =         0.00000000
  -V(xc)+E(xc)   XCENC  =       637.52213187
  PAW double counting   =     12222.79056693   -12176.19405220
  entropy T*S    EENTRO =        -0.00201713
  eigenvalues    EBANDS =     -1813.85692182
  atomic energy  EATOM  =     15389.07168825
  ---------------------------------------------------
  free energy    TOTEN  =      -285.61436891 eV

  energy without entropy =     -285.61235178  energy(sigma->0) =     -285.61336035


--------------------------------------------------------------------------------------------------------




--------------------------------------- Iteration      1(   6)  ---------------------------------------


    POTLOK:  cpu time    0.3019: real time    0.3039
    SETDIJ:  cpu time    0.7191: real time    0.7255
    TRIAL :  cpu time   59.4746: real time   60.1972
    CORREC:  cpu time   20.2067: real time   20.3870
    CHARGE:  cpu time    4.8127: real time    4.8501
    --------------------------------------------
      LOOP:  cpu time   85.5236: real time   86.4733

 eigenvalue-minimisations  :     0
 total energy-change (2. order) : 0.1314642E+03  (-0.5616460E+02)
 number of electron     132.0000001 magnetization 
 augmentation part       18.6724250 magnetization 

 Free energy of the ion-electron system (eV)
  ---------------------------------------------------
  alpha Z        PSCENC =       721.00068882
  Ewald energy   TEWEN  =    -10406.60166301
  -Hartree energ DENC   =     -4724.87375486
  -exchange      EXHF   =         0.00000000
  -V(xc)+E(xc)   XCENC  =       642.18985784
  PAW double counting   =     21029.43722034   -21030.66549651
  entropy T*S    EENTRO =        -0.00317321
  eigenvalues    EBANDS =     -1773.70671947
  atomic energy  EATOM  =     15389.07168825
  ---------------------------------------------------
  free energy    TOTEN  =      -154.15019573 eV

  energy without entropy =     -154.14702252  energy(sigma->0) =     -154.14860912


--------------------------------------------------------------------------------------------------------




--------------------------------------- Iteration      1(   7)  ---------------------------------------


    POTLOK:  cpu time    0.2142: real time    0.2158
    SETDIJ:  cpu time    0.8419: real time    0.8485
    TRIAL :  cpu time   72.5927: real time   73.2511
    CORREC:  cpu time   20.5463: real time   20.7303
    CHARGE:  cpu time    5.7499: real time    5.7950
    --------------------------------------------
      LOOP:  cpu time   99.9458: real time  100.8427

 eigenvalue-minimisations  :     0
 total energy-change (2. order) :-0.6224555E+02  (-0.6153092E+01)
 number of electron     132.0000002 magnetization 
 augmentation part       19.1305593 magnetization 

 Free energy of the ion-electron system (eV)
  ---------------------------------------------------
  alpha Z        PSCENC =       721.00068882
  Ewald energy   TEWEN  =    -10406.60166301
  -Hartree energ DENC   =     -4641.85632490
  -exchange      EXHF   =         0.00000000
  -V(xc)+E(xc)   XCENC  =       646.51199391
  PAW double counting   =     20398.27001626   -20386.78858467
  entropy T*S    EENTRO =        -0.00306790
  eigenvalues    EBANDS =     -1936.00038332
  atomic energy  EATOM  =     15389.07168825
  ---------------------------------------------------
  free energy    TOTEN  =      -216.39574187 eV

  energy without entropy =     -216.39267397  energy(sigma->0) =     -216.39420792


--------------------------------------------------------------------------------------------------------




--------------------------------------- Iteration      1(   8)  ---------------------------------------


    POTLOK:  cpu time    0.2087: real time    0.2103
    SETDIJ:  cpu time    1.3712: real time    1.3808
    TRIAL :  cpu time   71.1960: real time   71.8439
    CORREC:  cpu time   20.7489: real time   20.9307
    CHARGE:  cpu time    4.1071: real time    4.1427
    --------------------------------------------
      LOOP:  cpu time   97.7129: real time   98.5903

 eigenvalue-minimisations  :     0
 total energy-change (2. order) :-0.6145513E+01  (-0.1130641E+01)
 number of electron     132.0000001 magnetization 
 augmentation part       19.2076704 magnetization 

 Free energy of the ion-electron system (eV)
  ---------------------------------------------------
  alpha Z        PSCENC =       721.00068882
  Ewald energy   TEWEN  =    -10406.60166301
  -Hartree energ DENC   =     -4732.89353005
  -exchange      EXHF   =         0.00000000
  -V(xc)+E(xc)   XCENC  =       649.58452350
  PAW double counting   =     19890.07705146   -19872.56181454
  entropy T*S    EENTRO =        -0.00386121
  eigenvalues    EBANDS =     -1860.21513182
  atomic energy  EATOM  =     15389.07168825
  ---------------------------------------------------
  free energy    TOTEN  =      -222.54125529 eV

  energy without entropy =     -222.53739408  energy(sigma->0) =     -222.53932468


--------------------------------------------------------------------------------------------------------




--------------------------------------- Iteration      1(   9)  ---------------------------------------


    POTLOK:  cpu time    0.2146: real time    0.2163
    SETDIJ:  cpu time    0.7721: real time    0.7788
    TRIAL :  cpu time   72.9781: real time   73.6496
    CORREC:  cpu time   20.1123: real time   20.2861
    CHARGE:  cpu time    4.0266: real time    4.0615
    --------------------------------------------
      LOOP:  cpu time   98.1042: real time   98.9942

 eigenvalue-minimisations  :     0
 total energy-change (2. order) :-0.1131105E+01  (-0.5152444E+00)
 number of electron     132.0000001 magnetization 
 augmentation part       19.2016834 magnetization 

 Free energy of the ion-electron system (eV)
  ---------------------------------------------------
  alpha Z        PSCENC =       721.00068882
  Ewald energy   TEWEN  =    -10406.60166301
  -Hartree energ DENC   =     -4758.19525219
  -exchange      EXHF   =         0.00000000
  -V(xc)+E(xc)   XCENC  =       650.58073777
  PAW double counting   =     19799.11253398   -19778.81304833
  entropy T*S    EENTRO =        -0.00381140
  eigenvalues    EBANDS =     -1839.82418410
  atomic energy  EATOM  =     15389.07168825
  ---------------------------------------------------
  free energy    TOTEN  =      -223.67236002 eV

  energy without entropy =     -223.66854862  energy(sigma->0) =     -223.67045432


--------------------------------------------------------------------------------------------------------




--------------------------------------- Iteration      1(  10)  ---------------------------------------


    POTLOK:  cpu time    0.2100: real time    0.2120
    SETDIJ:  cpu time    0.7511: real time    0.7592
    TRIAL :  cpu time   73.8373: real time   74.5739
    CORREC:  cpu time   18.3973: real time   18.5676
    CHARGE:  cpu time    4.0765: real time    4.1095
    --------------------------------------------
      LOOP:  cpu time   97.3534: real time   98.3039

 eigenvalue-minimisations  :     0
 total energy-change (2. order) :-0.5152134E+00  (-0.1616663E+00)
 number of electron     132.0000001 magnetization 
 augmentation part       19.2208471 magnetization 

 Free energy of the ion-electron system (eV)
  ---------------------------------------------------
  alpha Z        PSCENC =       721.00068882
  Ewald energy   TEWEN  =    -10406.60166301
  -Hartree energ DENC   =     -4755.58864747
  -exchange      EXHF   =         0.00000000
  -V(xc)+E(xc)   XCENC  =       650.96025022
  PAW double counting   =     19800.99994607   -19778.89786845
  entropy T*S    EENTRO =        -0.00357491
  eigenvalues    EBANDS =     -1845.12815641
  atomic energy  EATOM  =     15389.07168825
  ---------------------------------------------------
[...]

  energy without entropy =     -224.34596413  energy(sigma->0) =     -224.34760504


--------------------------------------------------------------------------------------------------------




--------------------------------------- Iteration      1(  12)  ---------------------------------------


    POTLOK:  cpu time    0.2120: real time    0.2136
    SETDIJ:  cpu time    0.7874: real time    0.7941
    TRIAL :  cpu time   68.7846: real time   69.4538
    CORREC:  cpu time   19.6033: real time   19.7817
    CHARGE:  cpu time    4.0744: real time    4.1101
    --------------------------------------------
      LOOP:  cpu time   93.4850: real time   94.3772

 eigenvalue-minimisations  :     0
 total energy-change (2. order) :-0.7194672E-01  (-0.3525220E-01)
 number of electron     132.0000001 magnetization 
 augmentation part       19.2144078 magnetization 

 Free energy of the ion-electron system (eV)
  ---------------------------------------------------
  alpha Z        PSCENC =       721.00068882
  Ewald energy   TEWEN  =    -10406.60166301
  -Hartree energ DENC   =     -4759.73877382
  -exchange      EXHF   =         0.00000000
  -V(xc)+E(xc)   XCENC  =       651.21699076
  PAW double counting   =     19874.67124539   -19851.71517128
  entropy T*S    EENTRO =        -0.00310925
  eigenvalues    EBANDS =     -1842.32291595
  atomic energy  EATOM  =     15389.07168825
  ---------------------------------------------------
  free energy    TOTEN  =      -224.42119268 eV

  energy without entropy =     -224.41808343  energy(sigma->0) =     -224.41963806


--------------------------------------------------------------------------------------------------------




--------------------------------------- Iteration      1(  13)  ---------------------------------------


    POTLOK:  cpu time    0.2197: real time    0.2213
    SETDIJ:  cpu time    0.8454: real time    0.8533
    TRIAL :  cpu time   74.1973: real time   74.8667
    CORREC:  cpu time   19.9903: real time   20.1723
    CHARGE:  cpu time    4.8600: real time    4.8986
    --------------------------------------------
      LOOP:  cpu time  100.1145: real time  101.0152

 eigenvalue-minimisations  :     0
 total energy-change (2. order) :-0.3527792E-01  (-0.1412397E-01)
 number of electron     132.0000001 magnetization 
 augmentation part       19.2091348 magnetization 

 Free energy of the ion-electron system (eV)
  ---------------------------------------------------
  alpha Z        PSCENC =       721.00068882
  Ewald energy   TEWEN  =    -10406.60166301
  -Hartree energ DENC   =     -4757.92490422
  -exchange      EXHF   =         0.00000000
  -V(xc)+E(xc)   XCENC  =       651.06329612
  PAW double counting   =     19903.65116287   -19881.03187102
  entropy T*S    EENTRO =        -0.00312107
  eigenvalues    EBANDS =     -1843.68175916
  atomic energy  EATOM  =     15389.07168825
  ---------------------------------------------------
  free energy    TOTEN  =      -224.45647060 eV

  energy without entropy =     -224.45334953  energy(sigma->0) =     -224.45491007


--------------------------------------------------------------------------------------------------------




--------------------------------------- Iteration      1(  14)  ---------------------------------------


    POTLOK:  cpu time    0.2144: real time    0.2161
    SETDIJ:  cpu time    0.7574: real time    0.7641
    TRIAL :  cpu time   73.0166: real time   73.6777
    CORREC:  cpu time   20.8638: real time   21.0459
    CHARGE:  cpu time    4.6864: real time    4.7255
    --------------------------------------------
      LOOP:  cpu time   99.5405: real time  100.4319

 eigenvalue-minimisations  :     0
 total energy-change (2. order) :-0.1410504E-01  (-0.6921289E-02)
 number of electron     132.0000001 magnetization 
 augmentation part       19.2241113 magnetization 

 Free energy of the ion-electron system (eV)
  ---------------------------------------------------
  alpha Z        PSCENC =       721.00068882
  Ewald energy   TEWEN  =    -10406.60166301
  -Hartree energ DENC   =     -4757.41926482
  -exchange      EXHF   =         0.00000000
  -V(xc)+E(xc)   XCENC  =       651.03154926
  PAW double counting   =     19890.64896591   -19868.14641556
  entropy T*S    EENTRO =        -0.00323701
  eigenvalues    EBANDS =     -1844.05300342
  atomic energy  EATOM  =     15389.07168825
  ---------------------------------------------------
  free energy    TOTEN  =      -224.47057564 eV

  energy without entropy =     -224.46733864  energy(sigma->0) =     -224.46895714


--------------------------------------------------------------------------------------------------------




--------------------------------------- Iteration      1(  15)  ---------------------------------------


    POTLOK:  cpu time    0.2487: real time    0.2506
    SETDIJ:  cpu time    1.4302: real time    1.4406
    TRIAL :  cpu time   69.8250: real time   70.4893
    CORREC:  cpu time   22.7329: real time   22.9357
    CHARGE:  cpu time    4.9492: real time    4.9896
    --------------------------------------------
      LOOP:  cpu time   99.1882: real time  100.1084

 eigenvalue-minimisations  :     0
 total energy-change (2. order) :-0.6893054E-02  (-0.2844546E-02)
 number of electron     132.0000001 magnetization 
 augmentation part       19.2237037 magnetization 

 Free energy of the ion-electron system (eV)
  ---------------------------------------------------
  alpha Z        PSCENC =       721.00068882
  Ewald energy   TEWEN  =    -10406.60166301
  -Hartree energ DENC   =     -4758.06126252
  -exchange      EXHF   =         0.00000000
  -V(xc)+E(xc)   XCENC  =       651.10978668
  PAW double counting   =     19860.38157593   -19837.76333339
  entropy T*S    EENTRO =        -0.00334553
  eigenvalues    EBANDS =     -1843.61171245
  atomic energy  EATOM  =     15389.07168825
  ---------------------------------------------------
  free energy    TOTEN  =      -224.47746870 eV

  energy without entropy =     -224.47412317  energy(sigma->0) =     -224.47579593


--------------------------------------------------------------------------------------------------------




--------------------------------------- Iteration      1(  16)  ---------------------------------------


    POTLOK:  cpu time    0.2136: real time    0.2154
    SETDIJ:  cpu time    0.7677: real time    0.7747
    TRIAL :  cpu time   71.3734: real time   72.0368
    CORREC:  cpu time   19.4261: real time   19.6003
    CHARGE:  cpu time    4.7072: real time    4.7439
    --------------------------------------------
      LOOP:  cpu time   96.4923: real time   97.3758

 eigenvalue-minimisations  :     0
 total energy-change (2. order) :-0.2839390E-02  (-0.1394265E-02)
 number of electron     132.0000001 magnetization 
 augmentation part       19.2206156 magnetization 

 Free energy of the ion-electron system (eV)
  ---------------------------------------------------
  alpha Z        PSCENC =       721.00068882
  Ewald energy   TEWEN  =    -10406.60166301
  -Hartree energ DENC   =     -4758.36369615
  -exchange      EXHF   =         0.00000000
  -V(xc)+E(xc)   XCENC  =       651.11333582
  PAW double counting   =     19839.15688822   -19816.53296244
  entropy T*S    EENTRO =        -0.00341143
  eigenvalues    EBANDS =     -1843.32124208
  atomic energy  EATOM  =     15389.07168825
  ---------------------------------------------------
  free energy    TOTEN  =      -224.48030809 eV

  energy without entropy =     -224.47689666  energy(sigma->0) =     -224.47860237


--------------------------------------------------------------------------------------------------------




--------------------------------------- Iteration      1(  17)  ---------------------------------------


    POTLOK:  cpu time    0.2186: real time    0.2203
    SETDIJ:  cpu time    1.3982: real time    1.4090
    TRIAL :  cpu time   73.1731: real time   73.8191
    CORREC:  cpu time   19.7409: real time   19.9112
    CHARGE:  cpu time    5.4122: real time    5.4528
    --------------------------------------------
      LOOP:  cpu time   99.9889: real time  100.8594

 eigenvalue-minimisations  :     0
 total energy-change (2. order) :-0.1394393E-02  (-0.7265326E-03)
 number of electron     132.0000001 magnetization 
 augmentation part       19.2199906 magnetization 

 Free energy of the ion-electron system (eV)
  ---------------------------------------------------
  alpha Z        PSCENC =       721.00068882
  Ewald energy   TEWEN  =    -10406.60166301
  -Hartree energ DENC   =     -4757.43539905
  -exchange      EXHF   =         0.00000000
  -V(xc)+E(xc)   XCENC  =       651.08958324
  PAW double counting   =     19830.48301510   -19807.87168473
  entropy T*S    EENTRO =        -0.00343254
  eigenvalues    EBANDS =     -1844.21451967
  atomic energy  EATOM  =     15389.07168825
  ---------------------------------------------------
  free energy    TOTEN  =      -224.48170248 eV

  energy without entropy =     -224.47826995  energy(sigma->0) =     -224.47998621


--------------------------------------------------------------------------------------------------------




--------------------------------------- Iteration      1(  18)  ---------------------------------------


    POTLOK:  cpu time    0.2083: real time    0.2097
    SETDIJ:  cpu time    1.5311: real time    1.5419
    TRIAL :  cpu time   74.6167: real time   75.2619
    CORREC:  cpu time   21.1311: real time   21.3044
    CHARGE:  cpu time    4.0788: real time    4.1121
    --------------------------------------------
      LOOP:  cpu time  101.5705: real time  102.4358

 eigenvalue-minimisations  :     0
 total energy-change (2. order) :-0.7265524E-03  (-0.3259155E-03)
 number of electron     132.0000001 magnetization 
 augmentation part       19.2207068 magnetization 

 Free energy of the ion-electron system (eV)
  ---------------------------------------------------
  alpha Z        PSCENC =       721.00068882
  Ewald energy   TEWEN  =    -10406.60166301
  -Hartree energ DENC   =     -4757.98794134
  -exchange      EXHF   =         0.00000000
  -V(xc)+E(xc)   XCENC  =       651.08803028
  PAW double counting   =     19831.35031997   -19808.74814220
  entropy T*S    EENTRO =        -0.00343261
  eigenvalues    EBANDS =     -1843.65197727
  atomic energy  EATOM  =     15389.07168825
  ---------------------------------------------------
  free energy    TOTEN  =      -224.48242903 eV

  energy without entropy =     -224.47899642  energy(sigma->0) =     -224.48071273


--------------------------------------------------------------------------------------------------------




--------------------------------------- Iteration      1(  19)  ---------------------------------------


    POTLOK:  cpu time    0.2160: real time    0.2177
    SETDIJ:  cpu time    0.8428: real time    0.8499
    TRIAL :  cpu time   70.2226: real time   70.8621
    CORREC:  cpu time   19.8386: real time   20.0097
    CHARGE:  cpu time    4.8970: real time    4.9369
    --------------------------------------------
      LOOP:  cpu time   96.0177: real time   96.8782

 eigenvalue-minimisations  :     0
 total energy-change (2. order) :-0.3240168E-03  (-0.1242871E-03)
 number of electron     132.0000001 magnetization 
 augmentation part       19.2206540 magnetization 

 Free energy of the ion-electron system (eV)
  ---------------------------------------------------
  alpha Z        PSCENC =       721.00068882
  Ewald energy   TEWEN  =    -10406.60166301
  -Hartree energ DENC   =     -4757.83780301
  -exchange      EXHF   =         0.00000000
  -V(xc)+E(xc)   XCENC  =       651.08755646
  PAW double counting   =     19839.05868370   -19816.45990426
  entropy T*S    EENTRO =        -0.00342323
  eigenvalues    EBANDS =     -1843.79856739
  atomic energy  EATOM  =     15389.07168825
  ---------------------------------------------------
  free energy    TOTEN  =      -224.48275305 eV

  energy without entropy =     -224.47932982  energy(sigma->0) =     -224.48104144


--------------------------------------------------------------------------------------------------------




--------------------------------------- Iteration      1(  20)  ---------------------------------------


    POTLOK:  cpu time    0.2120: real time    0.2135
    SETDIJ:  cpu time    2.1547: real time    2.1686
    TRIAL :  cpu time   73.4259: real time   74.0756
    CORREC:  cpu time   21.0387: real time   21.2131
    CHARGE:  cpu time    4.0251: real time    4.0600
    --------------------------------------------
      LOOP:  cpu time  100.8579: real time  101.7329

 eigenvalue-minimisations  :     0
 total energy-change (2. order) :-0.1239708E-03  (-0.5053322E-04)
 number of electron     132.0000001 magnetization 
 augmentation part       19.2206920 magnetization 

 Free energy of the ion-electron system (eV)
  ---------------------------------------------------
  alpha Z        PSCENC =       721.00068882
  Ewald energy   TEWEN  =    -10406.60166301
  -Hartree energ DENC   =     -4757.97693039
  -exchange      EXHF   =         0.00000000
  -V(xc)+E(xc)   XCENC  =       651.09043492
  PAW double counting   =     19846.20439915   -19823.61249316
  entropy T*S    EENTRO =        -0.00341788
  eigenvalues    EBANDS =     -1843.65557838
  atomic energy  EATOM  =     15389.07168825
  ---------------------------------------------------
  free energy    TOTEN  =      -224.48287702 eV

  energy without entropy =     -224.47945914  energy(sigma->0) =     -224.48116808


--------------------------------------------------------------------------------------------------------




--------------------------------------- Iteration      1(  21)  ---------------------------------------


    POTLOK:  cpu time    0.2123: real time    0.2139
    SETDIJ:  cpu time    1.6650: real time    1.6766
    TRIAL :  cpu time   72.5965: real time   73.2613
    CORREC:  cpu time   20.0878: real time   20.2758
    CHARGE:  cpu time    4.7792: real time    4.8202
    --------------------------------------------
      LOOP:  cpu time   99.3449: real time  100.2532

 eigenvalue-minimisations  :     0
 total energy-change (2. order) :-0.5052176E-04  (-0.2842160E-04)
 number of electron     132.0000001 magnetization 
 augmentation part       19.2205184 magnetization 

 Free energy of the ion-electron system (eV)
  ---------------------------------------------------
  alpha Z        PSCENC =       721.00068882
  Ewald energy   TEWEN  =    -10406.60166301
  -Hartree energ DENC   =     -4757.89747442
  -exchange      EXHF   =         0.00000000
  -V(xc)+E(xc)   XCENC  =       651.09157987
  PAW double counting   =     19850.33591137   -19827.74373923
  entropy T*S    EENTRO =        -0.00341046
  eigenvalues    EBANDS =     -1843.73650131
  atomic energy  EATOM  =     15389.07168825
  ---------------------------------------------------
  free energy    TOTEN  =      -224.48292754 eV

  energy without entropy =     -224.47951708  energy(sigma->0) =     -224.48122231


--------------------------------------------------------------------------------------------------------




--------------------------------------- Iteration      1(  22)  ---------------------------------------


    POTLOK:  cpu time    0.2144: real time    0.2161
    SETDIJ:  cpu time    1.3173: real time    1.3259
    TRIAL :  cpu time   70.1859: real time   70.8142
    CORREC:  cpu time   23.0428: real time   23.2346
    CHARGE:  cpu time    5.4211: real time    5.4601
    --------------------------------------------
      LOOP:  cpu time  100.2470: real time  101.1176

 eigenvalue-minimisations  :     0
 total energy-change (2. order) :-0.2861844E-04  (-0.1237373E-04)
 number of electron     132.0000001 magnetization 
 augmentation part       19.2204310 magnetization 

 Free energy of the ion-electron system (eV)
  ---------------------------------------------------
  alpha Z        PSCENC =       721.00068882
  Ewald energy   TEWEN  =    -10406.60166301
  -Hartree energ DENC   =     -4757.97792814
  -exchange      EXHF   =         0.00000000
  -V(xc)+E(xc)   XCENC  =       651.09185451
  PAW double counting   =     19852.14169211   -19829.55067360
  entropy T*S    EENTRO =        -0.00340616
  eigenvalues    EBANDS =     -1843.65520465
  atomic energy  EATOM  =     15389.07168825
  ---------------------------------------------------
  free energy    TOTEN  =      -224.48295616 eV

  energy without entropy =     -224.47955000  energy(sigma->0) =     -224.48125308


--------------------------------------------------------------------------------------------------------




--------------------------------------- Iteration      1(  23)  ---------------------------------------


    POTLOK:  cpu time    0.2236: real time    0.2252
    SETDIJ:  cpu time    2.3596: real time    2.3753
    TRIAL :  cpu time   72.8088: real time   73.4650
    CORREC:  cpu time   19.4430: real time   19.6174
    CHARGE:  cpu time    4.7723: real time    4.8079
    --------------------------------------------
      LOOP:  cpu time   99.6097: real time  100.4943

 eigenvalue-minimisations  :     0
 total energy-change (2. order) :-0.1262577E-04  (-0.5746215E-05)
 number of electron     132.0000001 magnetization 
 augmentation part       19.2205026 magnetization 

 Free energy of the ion-electron system (eV)
  ---------------------------------------------------
  alpha Z        PSCENC =       721.00068882
  Ewald energy   TEWEN  =    -10406.60166301
  -Hartree energ DENC   =     -4757.91829249
  -exchange      EXHF   =         0.00000000
  -V(xc)+E(xc)   XCENC  =       651.09044026
  PAW double counting   =     19851.59602180   -19829.00432166
  entropy T*S    EENTRO =        -0.00340315
  eigenvalues    EBANDS =     -1843.71412460
  atomic energy  EATOM  =     15389.07168825
  ---------------------------------------------------
  free energy    TOTEN  =      -224.48296879 eV

  energy without entropy =     -224.47956563  energy(sigma->0) =     -224.48126721


--------------------------------------------------------------------------------------------------------




--------------------------------------- Iteration      1(  24)  ---------------------------------------


    POTLOK:  cpu time    0.2182: real time    0.2200
    SETDIJ:  cpu time    0.7485: real time    0.7551
    TRIAL :  cpu time   70.8420: real time   71.4822
    CORREC:  cpu time   20.5053: real time   20.6807
    CHARGE:  cpu time    5.4728: real time    5.5104
    --------------------------------------------
      LOOP:  cpu time   97.7890: real time   98.6520

 eigenvalue-minimisations  :     0
 total energy-change (2. order) :-0.5636128E-05  (-0.2278396E-05)
 number of electron     132.0000001 magnetization 
 augmentation part       19.2205122 magnetization 

 Free energy of the ion-electron system (eV)
  ---------------------------------------------------
  alpha Z        PSCENC =       721.00068882
  Ewald energy   TEWEN  =    -10406.60166301
  -Hartree energ DENC   =     -4757.97592013
  -exchange      EXHF   =         0.00000000
  -V(xc)+E(xc)   XCENC  =       651.09149129
  PAW double counting   =     19850.42606860   -19827.83290091
  entropy T*S    EENTRO =        -0.00340246
  eigenvalues    EBANDS =     -1843.65902418
  atomic energy  EATOM  =     15389.07168825
  ---------------------------------------------------
  free energy    TOTEN  =      -224.48297442 eV

  energy without entropy =     -224.47957197  energy(sigma->0) =     -224.48127320


--------------------------------------------------------------------------------------------------------




--------------------------------------- Iteration      1(  25)  ---------------------------------------


    POTLOK:  cpu time    0.2159: real time    0.2174
    SETDIJ:  cpu time    0.7541: real time    0.7603
    TRIAL :  cpu time   75.3058: real time   75.9593
    CORREC:  cpu time   20.3645: real time   20.5431
