 vasp.6.2.0 18Jan21 (build Jan 05 2022 15:41:44) complex                        
  
 executed on             LinuxIFC date 2025.05.07  16:39:18
 running on   24 total cores
 distrk:  each k-point on   12 cores,    2 groups
 distr:  one band on NCORE=   2 cores,    6 groups


--------------------------------------------------------------------------------------------------------


 INCAR:
   SYSTEM = routine with relax: pwdword
   ICHARG = 2
   NPAR = 6
   KPAR = 2
   NCORE = 2
   ADDGRID = T
   PREC = Acc
   ENCUT = 600
   METAGGA = R2SCAN
   LASPH = .TRUE.
   LMIXTAU = .FALSE.
   ALGO = A
   EDIFF = 1E-9
   NELM = 100
   NELMIN = 6
   IALGO = 38
   LREAL = F
   NSW = 0
   ISIF = -1
   ISMEAR = 0
   SIGMA = 0.02

 POTCAR:    PAW_PBE B 06Sep2000                   
 POTCAR:    PAW_PBE Mo_sv 02Feb2006               
 POTCAR:    PAW_PBE Si 05Jan2001                  
 -----------------------------------------------------------------------------
|                                                                             |
|           W    W    AA    RRRRR   N    N  II  N    N   GGGG   !!!           |
|           W    W   A  A   R    R  NN   N  II  NN   N  G    G  !!!           |
|           W    W  A    A  R    R  N N  N  II  N N  N  G       !!!           |
|           W WW W  AAAAAA  RRRRR   N  N N  II  N  N N  G  GGG   !            |
|           WW  WW  A    A  R   R   N   NN  II  N   NN  G    G                |
|           W    W  A    A  R    R  N    N  II  N    N   GGGG   !!!           |
|                                                                             |
|     For optimal performance we recommend to set                             |
|       NCORE = 2 up to number-of-cores-per-socket                            |
|     NCORE specifies how many cores store one orbital (NPAR=cpu/NCORE).      |
|     This setting can greatly improve the performance of VASP for DFT.       |
|     The default, NCORE=1 might be grossly inefficient on modern             |
|     multi-core architectures or massively parallel machines. Do your        |
|     own testing! More info at https://www.vasp.at/wiki/index.php/NCORE      |
|     Unfortunately you need to use the default for GW and RPA                |
|     calculations (for HF NCORE is supported but not extensively tested      |
|     yet).                                                                   |
|                                                                             |
 -----------------------------------------------------------------------------

 POTCAR:    PAW_PBE B 06Sep2000                   
   VRHFIN =B: s2p1                                                                                  
   LEXCH  = PE                                                                                      
   EATOM  =    71.1703 eV,    5.2309 Ry                                                             
                                                                                                    
   TITEL  = PAW_PBE B 06Sep2000                                                                     
   LULTRA =        F    use ultrasoft PP ?                                                          
   IUNSCR =        1    unscreen: 0-lin 1-nonlin 2-no                                               
   RPACOR =    1.200    partial core radius                                                         
   POMASS =   10.811; ZVAL   =    3.000    mass and valenz                                          
   RCORE  =    1.700    outmost cutoff radius                                                       
   RWIGS  =    1.710; RWIGS  =    0.905    wigner-seitz radius (au A)                               
   ENMAX  =  318.614; ENMIN  =  238.960 eV                                                          
   ICORE  =        2    local potential                                                             
   LCOR   =        T    correct aug charges                                                         
   LPAW   =        T    paw PP                                                                      
   EAUG   =  535.514                                                                                
   DEXC   =    0.000                                                                                
   RMAX   =    1.732    core radius for proj-oper                                                   
   RAUG   =    1.300    factor for augmentation sphere                                              
   RDEP   =    1.757    radius for radial grids                                                     
   RDEPT  =    1.436    core radius for aug-charge                                                  
                                                                                                    
   Atomic configuration                                                                             
    4 entries                                                                                       
     n  l   j            E        occ.                                                              
     1  0  0.50      -180.5896   2.0000                                                             
     2  0  0.50        -9.4431   2.0000                                                             
     2  1  0.50        -3.6068   1.0000                                                             
     3  2  1.50        -4.0817   0.0000                                                             
   Description                                                                                      
     l       E           TYP  RCUT    TYP  RCUT                                                     
     0     -9.4430752     23  1.500                                                                 
     0      0.8675899     23  1.500                                                                 
     1     -3.6067955     23  1.700                                                                 
     1      6.1086146     23  1.700                                                                 
     2     -4.0817478      7  1.700                                                                 
  local pseudopotential read in
  partial core-charges read in
  partial kinetic energy density read in
  atomic valenz-charges read in
  non local Contribution for L=           0  read in
    real space projection operators read in
  non local Contribution for L=           0  read in
    real space projection operators read in
  non local Contribution for L=           1  read in
    real space projection operators read in
  non local Contribution for L=           1  read in
    real space projection operators read in
    PAW grid and wavefunctions read in
 
   number of l-projection  operators is LMAX  =           4
   number of lm-projection operators is LMMAX =           8
 
 POTCAR:    PAW_PBE Mo_sv 02Feb2006               
   VRHFIN =Mo: 4p5s4d                                                                               
   LEXCH  = PE                                                                                      
   EATOM  =  1862.2866 eV,  136.8742 Ry                                                             
                                                                                                    
   TITEL  = PAW_PBE Mo_sv 02Feb2006                                                                 
   LULTRA =        F    use ultrasoft PP ?                                                          
   IUNSCR =        1    unscreen: 0-lin 1-nonlin 2-no                                               
   RPACOR =    2.200    partial core radius                                                         
   POMASS =   95.940; ZVAL   =   14.000    mass and valenz                                          
   RCORE  =    2.500    outmost cutoff radius                                                       
   RWIGS  =    2.750; RWIGS  =    1.455    wigner-seitz radius (au A)                               
   ENMAX  =  242.676; ENMIN  =  182.007 eV                                                          
   ICORE  =        3    local potential                                                             
   LCOR   =        T    correct aug charges                                                         
   LPAW   =        T    paw PP                                                                      
   EAUG   =  446.014                                                                                
   DEXC   =    0.000                                                                                
   RMAX   =    2.563    core radius for proj-oper                                                   
   RAUG   =    1.300    factor for augmentation sphere                                              
   RDEP   =    2.641    radius for radial grids                                                     
   RDEPT  =    2.031    core radius for aug-charge                                                  
                                                                                                    
   Atomic configuration                                                                             
   11 entries                                                                                       
     n  l   j            E        occ.                                                              
     1  0  0.50    -19819.0341   2.0000                                                             
     2  0  0.50     -2799.0127   2.0000                                                             
     2  1  1.50     -2502.0276   6.0000                                                             
     3  0  0.50      -476.4449   2.0000                                                             
     3  1  1.50      -379.1496   6.0000                                                             
     3  2  2.50      -220.9367  10.0000                                                             
     4  0  0.50       -64.3378   2.0000                                                             
     5  0  0.50        -4.0862   1.0000                                                             
     4  1  1.50       -38.4773   6.0000                                                             
     4  2  2.50        -3.7535   5.0000                                                             
     4  3  2.50        -1.3606   0.0000                                                             
   Description                                                                                      
     l       E           TYP  RCUT    TYP  RCUT                                                     
     0    -64.3377829     23  2.100                                                                 
     0     -4.0861640     23  2.400                                                                 
     1    -38.4772993     23  2.100                                                                 
     1     13.6058260     23  2.100                                                                 
     2     -3.7534941     23  2.400                                                                 
     2     -5.1140767     23  2.400                                                                 
     3     -4.0817478     23  2.500                                                                 
  local pseudopotential read in
  partial core-charges read in
  partial kinetic energy density read in
  atomic valenz-charges read in
  non local Contribution for L=           0  read in
    real space projection operators read in
  non local Contribution for L=           0  read in
    real space projection operators read in
  non local Contribution for L=           1  read in
    real space projection operators read in
  non local Contribution for L=           1  read in
    real space projection operators read in
  non local Contribution for L=           2  read in
    real space projection operators read in
  non local Contribution for L=           2  read in
    real space projection operators read in
    PAW grid and wavefunctions read in
 
   number of l-projection  operators is LMAX  =           6
   number of lm-projection operators is LMMAX =          18
 
 POTCAR:    PAW_PBE Si 05Jan2001                  
   VRHFIN =Si: s2p2                                                                                 
   LEXCH  = PE                                                                                      
   EATOM  =   103.0669 eV,    7.5752 Ry                                                             
                                                                                                    
   TITEL  = PAW_PBE Si 05Jan2001                                                                    
   LULTRA =        F    use ultrasoft PP ?                                                          
   IUNSCR =        1    unscreen: 0-lin 1-nonlin 2-no                                               
   RPACOR =    1.500    partial core radius                                                         
   POMASS =   28.085; ZVAL   =    4.000    mass and valenz                                          
   RCORE  =    1.900    outmost cutoff radius                                                       
   RWIGS  =    2.480; RWIGS  =    1.312    wigner-seitz radius (au A)                               
   ENMAX  =  245.345; ENMIN  =  184.009 eV                                                          
   ICORE  =        2    local potential                                                             
   LCOR   =        T    correct aug charges                                                         
   LPAW   =        T    paw PP                                                                      
   EAUG   =  322.069                                                                                
   DEXC   =    0.000                                                                                
   RMAX   =    1.950    core radius for proj-oper                                                   
   RAUG   =    1.300    factor for augmentation sphere                                              
   RDEP   =    1.993    radius for radial grids                                                     
   RDEPT  =    1.837    core radius for aug-charge                                                  
                                                                                                    
   Atomic configuration                                                                             
    6 entries                                                                                       
     n  l   j            E        occ.                                                              
     1  0  0.50     -1785.8828   2.0000                                                             
     2  0  0.50      -139.4969   2.0000                                                             
     2  1  1.50       -95.5546   6.0000                                                             
     3  0  0.50       -10.8127   2.0000                                                             
     3  1  0.50        -4.0811   2.0000                                                             
     3  2  1.50        -4.0817   0.0000                                                             
   Description                                                                                      
     l       E           TYP  RCUT    TYP  RCUT                                                     
     0    -10.8127223     23  1.900                                                                 
     0     -7.6451159     23  1.900                                                                 
     1     -4.0811372     23  1.900                                                                 
     1      2.4879257     23  1.900                                                                 
     2     -4.0817478      7  1.900                                                                 
  local pseudopotential read in
  partial core-charges read in
  partial kinetic energy density read in
  atomic valenz-charges read in
  non local Contribution for L=           0  read in
    real space projection operators read in
  non local Contribution for L=           0  read in
    real space projection operators read in
  non local Contribution for L=           1  read in
    real space projection operators read in
  non local Contribution for L=           1  read in
    real space projection operators read in
    PAW grid and wavefunctions read in
 
   number of l-projection  operators is LMAX  =           4
   number of lm-projection operators is LMMAX =           8
 
  PAW_PBE B 06Sep2000                   :
 energy of atom  1       EATOM=  -71.1703
 kinetic energy error for atom=    0.0007 (will be added to EATOM!!)
  PAW_PBE Mo_sv 02Feb2006               :
 energy of atom  2       EATOM=-1862.2866
 kinetic energy error for atom=    0.0041 (will be added to EATOM!!)
  PAW_PBE Si 05Jan2001                  :
 energy of atom  3       EATOM= -103.0669
 kinetic energy error for atom=    0.0003 (will be added to EATOM!!)
 
 
 POSCAR: EA93
  positions in direct lattice
  No initial velocities read in

 METAGGA = R2SCA    LMAXTAU =  6    LMIXTAU =  F

 exchange correlation table for  LEXCH =        8
   RHO(1)=    0.500       N(1)  =     2000
   RHO(2)=  100.500       N(2)  =     4000
 


--------------------------------------------------------------------------------------------------------


 ion  position               nearest neighbor table
   1  0.000  0.000  0.000-   3 2.22   5 2.22   7 2.30   8 2.30   4 2.30   6 2.30
   2  0.500  0.500  0.000-   3 2.22   5 2.22   8 2.30   7 2.30   4 2.30   6 2.30
   3  0.250  0.250  0.000-   1 2.22   2 2.22  10 2.30  12 2.30  11 2.30   9 2.30   8 3.19   8 3.19
                             4 3.19   6 3.19   7 3.19   7 3.19   4 3.19   6 3.19
   4  0.745  0.245  0.989-   9 2.22  11 2.22   1 2.30   2 2.30   3 3.19   5 3.19   3 3.19   5 3.19
                             7 3.25   8 3.25   8 3.25   7 3.25
   5  0.750  0.750  0.000-   1 2.22   2 2.22  12 2.30  10 2.30   9 2.30  11 2.30   7 3.19   7 3.19
                             6 3.19   4 3.19   8 3.19   8 3.19   4 3.19   6 3.19
   6  0.255  0.755  0.011-   9 2.22  11 2.22   1 2.30   2 2.30   5 3.19   3 3.19   3 3.19   5 3.19
                             7 3.25   8 3.25   7 3.25   8 3.25
   7  0.245  0.255  0.500-  10 2.22  12 2.22   2 2.30   1 2.30   5 3.19   5 3.19   3 3.19   3 3.19
                             6 3.25   4 3.25   4 3.25   6 3.25
   8  0.755  0.745  0.500-  10 2.22  12 2.22   1 2.30   2 2.30   3 3.19   3 3.19   5 3.19   5 3.19
                             4 3.25   6 3.25   6 3.25   4 3.25
   9  0.000  0.500  0.000-   4 2.22   6 2.22   5 2.30   3 2.30
  10  0.500  0.500  0.500-   7 2.22   8 2.22   5 2.30   3 2.30
  11  0.500  0.000  0.000-   4 2.22   6 2.22   5 2.30   3 2.30
  12  0.000  0.000  0.500-   7 2.22   8 2.22   3 2.30   5 2.30
 
  Warning from LATTYP: Got some problem with cell dimensions!
  Tried to take original basis but could not verify dimensions!
  LATTYP: Found a base centered monoclinic cell.
 ALAT       =     8.8662004830
 B/A-ratio  =     1.0366594190
 C/A-ratio  =     0.7201735245
 COS(beta)  =    -0.6942661620
  
  Lattice vectors:
  
 A1 = (  -5.5945680882,   0.0000000000,   3.0778018125)
 A2 = (   1.9554976206,  -5.2416811377,   3.0778018125)
 A3 = (   3.6390704676,   5.2416811377,   0.2296963751)


Analysis of symmetry for initial positions (statically):
=====================================================================
 Subroutine PRICEL returns:
 Original cell was already a primitive cell.
 

 Routine SETGRP: Setting up the symmetry group for a 
 base centered monoclinic supercell.


 Subroutine GETGRP returns: Found  4 space group operations
 (whereof  2 operations were pure point group operations)
 out of a pool of  4 trial point group operations.


The static configuration has the point symmetry S_2 .
 The point group associated with its full space group is C_2h.


Analysis of symmetry for dynamics (positions and initial velocities):
=====================================================================
 Subroutine PRICEL returns:
 Original cell was already a primitive cell.
 

 Routine SETGRP: Setting up the symmetry group for a 
 base centered monoclinic supercell.


 Subroutine GETGRP returns: Found  4 space group operations
 (whereof  2 operations were pure point group operations)
 out of a pool of  4 trial point group operations.


The dynamic configuration has the point symmetry S_2 .
 The point group associated with its full space group is C_2h.


 Subroutine INISYM returns: Found  4 space group operations
 (whereof  2 operations are pure point group operations),
 and found     1 'primitive' translations


----------------------------------------------------------------------------------------

                                     Primitive cell                                     

  volume of cell :     187.2486

  direct lattice vectors                    reciprocal lattice vectors
     5.594568088  0.000000000 -3.077801812     0.178744808  0.066683768  0.000000000
    -1.955497621  5.241681138 -3.077801812     0.000000000  0.190778488  0.000000000
     0.000000000  0.000000000  6.385300000     0.086157439  0.124100324  0.156609713

  length of vectors
     6.385300000  6.385300000  6.385300000     0.190778488  0.190778488  0.217601923

  position of ions in fractional coordinates (direct lattice)
     0.000000000  0.000000000  0.000000000
     0.500000000  0.500000000  0.000000000
     0.250000000  0.250000000  0.000000000
     0.744570000  0.244570000  0.989140000
     0.750000000  0.750000000  0.000000000
     0.255430000  0.755430000  0.010860000
     0.244570000  0.255430000  0.500000000
     0.755430000  0.744570000  0.500000000
     0.000000000  0.500000000  0.000000000
     0.500000000  0.500000000  0.500000000
     0.500000000  0.000000000  0.000000000
     0.000000000  0.000000000  0.500000000

  ion indices of the primitive-cell ions
   primitive index   ion index
                 1           1
                 2           2
                 3           3
                 4           4
                 5           5
                 6           6
                 7           7
                 8           8
                 9           9
                10          10
                11          11
                12          12

----------------------------------------------------------------------------------------

 
 
 KPOINTS: EA                                      

Automatic generation of k-mesh.
 Grid dimensions read from file:
 generate k-points for:    7    7    8

 Generating k-lattice:

  Cartesian coordinates                     Fractional coordinates (reciprocal lattice)
     0.025534973  0.009526253  0.000000000     0.142857143  0.000000000  0.000000000
     0.000000000  0.027254070  0.000000000     0.000000000  0.142857143  0.000000000
     0.010769680  0.015512540  0.019576214     0.000000000  0.000000000  0.125000000

  Length of vectors
     0.027254070  0.027254070  0.027200240

  Shift w.r.t. Gamma in fractional coordinates (k-lattice)
     0.000000000  0.000000000  0.000000000

 
 Subroutine IBZKPT returns following result:
 ===========================================
 
 Found    116 irreducible k-points:
 
 Following reciprocal coordinates:
            Coordinates               Weight
  0.000000  0.000000  0.000000      1.000000
  0.142857  0.000000  0.000000      4.000000
  0.285714 -0.000000  0.000000      4.000000
  0.428571  0.000000  0.000000      4.000000
  0.142857  0.142857  0.000000      2.000000
  0.285714  0.142857  0.000000      4.000000
  0.428571  0.142857  0.000000      4.000000
 -0.428571  0.142857  0.000000      4.000000
 -0.285714  0.142857  0.000000      4.000000
 -0.142857  0.142857  0.000000      2.000000
  0.285714  0.285714  0.000000      2.000000
  0.428571  0.285714  0.000000      4.000000
 -0.428571  0.285714  0.000000      4.000000
 -0.285714  0.285714  0.000000      2.000000
  0.428571  0.428571  0.000000      2.000000
 -0.428571  0.428571  0.000000      2.000000
  0.000000 -0.000000  0.125000      2.000000
  0.142857 -0.000000  0.125000      4.000000
  0.285714 -0.000000  0.125000      4.000000
  0.428571  0.000000  0.125000      4.000000
 -0.428571  0.000000  0.125000      4.000000
 -0.285714  0.000000  0.125000      4.000000
 -0.142857 -0.000000  0.125000      4.000000
  0.142857  0.142857  0.125000      2.000000
  0.285714  0.142857  0.125000      4.000000
  0.428571  0.142857  0.125000      4.000000
 -0.428571  0.142857  0.125000      4.000000
 -0.285714  0.142857  0.125000      4.000000
 -0.142857  0.142857  0.125000      4.000000
  0.285714  0.285714  0.125000      2.000000
  0.428571  0.285714  0.125000      4.000000
 -0.428571  0.285714  0.125000      4.000000
 -0.285714  0.285714  0.125000      4.000000
 -0.142857  0.285714  0.125000      4.000000
  0.428571  0.428571  0.125000      2.000000
 -0.428571  0.428571  0.125000      4.000000
 -0.285714  0.428571  0.125000      4.000000
 -0.142857  0.428571  0.125000      4.000000
 -0.428571 -0.428571  0.125000      2.000000
 -0.285714 -0.428571  0.125000      4.000000
 -0.142857 -0.428571  0.125000      4.000000
 -0.285714 -0.285714  0.125000      2.000000
 -0.142857 -0.285714  0.125000      4.000000
 -0.142857 -0.142857  0.125000      2.000000
  0.000000 -0.000000  0.250000      2.000000
  0.142857  0.000000  0.250000      4.000000
  0.285714  0.000000  0.250000      4.000000
  0.428571 -0.000000  0.250000      4.000000
 -0.428571 -0.000000  0.250000      4.000000
 -0.285714  0.000000  0.250000      4.000000
 -0.142857  0.000000  0.250000      4.000000
  0.142857  0.142857  0.250000      2.000000
  0.285714  0.142857  0.250000      4.000000
  0.428571  0.142857  0.250000      4.000000
 -0.428571  0.142857  0.250000      4.000000
 -0.285714  0.142857  0.250000      4.000000
 -0.142857  0.142857  0.250000      4.000000
  0.285714  0.285714  0.250000      2.000000
  0.428571  0.285714  0.250000      4.000000
 -0.428571  0.285714  0.250000      4.000000
 -0.285714  0.285714  0.250000      4.000000
 -0.142857  0.285714  0.250000      4.000000
  0.428571  0.428571  0.250000      2.000000
 -0.428571  0.428571  0.250000      4.000000
 -0.285714  0.428571  0.250000      4.000000
 -0.142857  0.428571  0.250000      4.000000
 -0.428571 -0.428571  0.250000      2.000000
 -0.285714 -0.428571  0.250000      4.000000
 -0.142857 -0.428571  0.250000      4.000000
 -0.285714 -0.285714  0.250000      2.000000
 -0.142857 -0.285714  0.250000      4.000000
 -0.142857 -0.142857  0.250000      2.000000
  0.000000  0.000000  0.375000      2.000000
  0.142857 -0.000000  0.375000      4.000000
  0.285714  0.000000  0.375000      4.000000
  0.428571 -0.000000  0.375000      4.000000
 -0.428571  0.000000  0.375000      4.000000
 -0.285714  0.000000  0.375000      4.000000
 -0.142857  0.000000  0.375000      4.000000
  0.142857  0.142857  0.375000      2.000000
  0.285714  0.142857  0.375000      4.000000
  0.428571  0.142857  0.375000      4.000000
 -0.428571  0.142857  0.375000      4.000000
 -0.285714  0.142857  0.375000      4.000000
 -0.142857  0.142857  0.375000      4.000000
  0.285714  0.285714  0.375000      2.000000
  0.428571  0.285714  0.375000      4.000000
 -0.428571  0.285714  0.375000      4.000000
 -0.285714  0.285714  0.375000      4.000000
 -0.142857  0.285714  0.375000      4.000000
  0.428571  0.428571  0.375000      2.000000
 -0.428571  0.428571  0.375000      4.000000
 -0.285714  0.428571  0.375000      4.000000
 -0.142857  0.428571  0.375000      4.000000
 -0.428571 -0.428571  0.375000      2.000000
 -0.285714 -0.428571  0.375000      4.000000
 -0.142857 -0.428571  0.375000      4.000000
 -0.285714 -0.285714  0.375000      2.000000
 -0.142857 -0.285714  0.375000      4.000000
 -0.142857 -0.142857  0.375000      2.000000
  0.000000 -0.000000  0.500000      1.000000
  0.142857  0.000000  0.500000      4.000000
  0.285714 -0.000000  0.500000      4.000000
  0.428571  0.000000  0.500000      4.000000
  0.142857  0.142857  0.500000      2.000000
  0.285714  0.142857  0.500000      4.000000
  0.428571  0.142857  0.500000      4.000000
 -0.428571  0.142857  0.500000      4.000000
 -0.285714  0.142857  0.500000      4.000000
 -0.142857  0.142857  0.500000      2.000000
  0.285714  0.285714  0.500000      2.000000
  0.428571  0.285714  0.500000      4.000000
 -0.428571  0.285714  0.500000      4.000000
 -0.285714  0.285714  0.500000      2.000000
  0.428571  0.428571  0.500000      2.000000
 -0.428571  0.428571  0.500000      2.000000
 
 Following cartesian coordinates:
            Coordinates               Weight
  0.000000  0.000000  0.000000      1.000000
  0.025535  0.009526  0.000000      4.000000
  0.051070  0.019053  0.000000      4.000000
  0.076605  0.028579  0.000000      4.000000
  0.025535  0.036780  0.000000      2.000000
  0.051070  0.046307  0.000000      4.000000
  0.076605  0.055833  0.000000      4.000000
 -0.076605 -0.001325  0.000000      4.000000
 -0.051070  0.008202  0.000000      4.000000
 -0.025535  0.017728  0.000000      2.000000
  0.051070  0.073561  0.000000      2.000000
  0.076605  0.083087  0.000000      4.000000
 -0.076605  0.025929  0.000000      4.000000
 -0.051070  0.035456  0.000000      2.000000
  0.076605  0.110341  0.000000      2.000000
 -0.076605  0.053183  0.000000      2.000000
  0.010770  0.015513  0.019576      2.000000
  0.036305  0.025039  0.019576      4.000000
  0.061840  0.034565  0.019576      4.000000
  0.087375  0.044091  0.019576      4.000000
 -0.065835 -0.013066  0.019576      4.000000
 -0.040300 -0.003540  0.019576      4.000000
 -0.014765  0.005986  0.019576      4.000000
  0.036305  0.052293  0.019576      2.000000
  0.061840  0.061819  0.019576      4.000000
  0.087375  0.071345  0.019576      4.000000
 -0.065835  0.014188  0.019576      4.000000
 -0.040300  0.023714  0.019576      4.000000
 -0.014765  0.033240  0.019576      4.000000
  0.061840  0.089073  0.019576      2.000000
  0.087375  0.098599  0.019576      4.000000
 -0.065835  0.041442  0.019576      4.000000
 -0.040300  0.050968  0.019576      4.000000
 -0.014765  0.060494  0.019576      4.000000
  0.087375  0.125854  0.019576      2.000000
 -0.065835  0.068696  0.019576      4.000000
 -0.040300  0.078222  0.019576      4.000000
 -0.014765  0.087748  0.019576      4.000000
 -0.065835 -0.094828  0.019576      2.000000
 -0.040300 -0.085302  0.019576      4.000000
 -0.014765 -0.075776  0.019576      4.000000
 -0.040300 -0.058048  0.019576      2.000000
 -0.014765 -0.048522  0.019576      4.000000
 -0.014765 -0.021268  0.019576      2.000000
  0.021539  0.031025  0.039152      2.000000
  0.047074  0.040551  0.039152      4.000000
  0.072609  0.050078  0.039152      4.000000
  0.098144  0.059604  0.039152      4.000000
 -0.055066  0.002446  0.039152      4.000000
 -0.029531  0.011973  0.039152      4.000000
 -0.003996  0.021499  0.039152      4.000000
  0.047074  0.067805  0.039152      2.000000
  0.072609  0.077332  0.039152      4.000000
  0.098144  0.086858  0.039152      4.000000
 -0.055066  0.029700  0.039152      4.000000
 -0.029531  0.039227  0.039152      4.000000
 -0.003996  0.048753  0.039152      4.000000
  0.072609  0.104586  0.039152      2.000000
  0.098144  0.114112  0.039152      4.000000
 -0.055066  0.056954  0.039152      4.000000
 -0.029531  0.066481  0.039152      4.000000
 -0.003996  0.076007  0.039152      4.000000
  0.098144  0.141366  0.039152      2.000000
 -0.055066  0.084209  0.039152      4.000000
 -0.029531  0.093735  0.039152      4.000000
 -0.003996  0.103261  0.039152      4.000000
 -0.055066 -0.079316  0.039152      2.000000
 -0.029531 -0.069790  0.039152      4.000000
 -0.003996 -0.060263  0.039152      4.000000
 -0.029531 -0.042536  0.039152      2.000000
 -0.003996 -0.033009  0.039152      4.000000
 -0.003996 -0.005755  0.039152      2.000000
  0.032309  0.046538  0.058729      2.000000
  0.057844  0.056064  0.058729      4.000000
  0.083379  0.065590  0.058729      4.000000
  0.108914  0.075116  0.058729      4.000000
 -0.044296  0.017959  0.058729      4.000000
 -0.018761  0.027485  0.058729      4.000000
  0.006774  0.037011  0.058729      4.000000
  0.057844  0.083318  0.058729      2.000000
  0.083379  0.092844  0.058729      4.000000
  0.108914  0.102370  0.058729      4.000000
 -0.044296  0.045213  0.058729      4.000000
 -0.018761  0.054739  0.058729      4.000000
  0.006774  0.064265  0.058729      4.000000
  0.083379  0.120098  0.058729      2.000000
  0.108914  0.129625  0.058729      4.000000
 -0.044296  0.072467  0.058729      4.000000
 -0.018761  0.081993  0.058729      4.000000
  0.006774  0.091520  0.058729      4.000000
  0.108914  0.156879  0.058729      2.000000
 -0.044296  0.099721  0.058729      4.000000
 -0.018761  0.109247  0.058729      4.000000
  0.006774  0.118774  0.058729      4.000000
 -0.044296 -0.063803  0.058729      2.000000
 -0.018761 -0.054277  0.058729      4.000000
  0.006774 -0.044751  0.058729      4.000000
 -0.018761 -0.027023  0.058729      2.000000
  0.006774 -0.017497  0.058729      4.000000
  0.006774  0.009757  0.058729      2.000000
  0.043079  0.062050  0.078305      1.000000
  0.068614  0.071576  0.078305      4.000000
  0.094149  0.081103  0.078305      4.000000
  0.119684  0.090629  0.078305      4.000000
  0.068614  0.098830  0.078305      2.000000
  0.094149  0.108357  0.078305      4.000000
  0.119684  0.117883  0.078305      4.000000
 -0.033526  0.060725  0.078305      4.000000
 -0.007991  0.070252  0.078305      4.000000
  0.017544  0.079778  0.078305      2.000000
  0.094149  0.135611  0.078305      2.000000
  0.119684  0.145137  0.078305      4.000000
 -0.033526  0.087980  0.078305      4.000000
 -0.007991  0.097506  0.078305      2.000000
  0.119684  0.172391  0.078305      2.000000
 -0.033526  0.115234  0.078305      2.000000
 


--------------------------------------------------------------------------------------------------------




 Dimension of arrays:
   k-points           NKPTS =    116   k-points in BZ     NKDIM =    116   number of bands    NBANDS=     66
   number of dos      NEDOS =    301   number of ions     NIONS =     12
   non local maximal  LDIM  =      6   non local SUM 2l+1 LMDIM =     18
   total plane-waves  NPLWV = 157464
   max r-space proj   IRMAX =      1   max aug-charges    IRDMAX= 294369
   dimension x,y,z NGX =    54 NGY =   54 NGZ =   54
   dimension x,y,z NGXF=   108 NGYF=  108 NGZF=  108
   support grid    NGXF=   216 NGYF=  216 NGZF=  216
   ions per type =               2   6   4
   NGX,Y,Z   is equivalent  to a cutoff of  14.06, 14.06, 14.06 a.u.
   NGXF,Y,Z  is equivalent  to a cutoff of  28.12, 28.12, 28.12 a.u.

 SYSTEM =  routine with relax: pwdword             
 POSCAR =  EA93                                    

 Startparameter for this run:
   NWRITE =      2    write-flag & timer
   PREC   = acc       normal or accurate (medium, high low for compatibility)
   ISTART =      0    job   : 0-new  1-cont  2-samecut
   ICHARG =      2    charge: 1-file 2-atom 10-const
   ISPIN  =      1    spin polarized calculation?
   LNONCOLLINEAR =      F non collinear calculations
   LSORBIT =      F    spin-orbit coupling
   INIWAV =      1    electr: 0-lowe 1-rand  2-diag
   LASPH  =      T    aspherical Exc in radial PAW
   METAGGA=      F    non-selfconsistent MetaGGA calc.

 Electronic Relaxation 1
   ENCUT  =  600.0 eV  44.10 Ry    6.64 a.u.  12.75 12.75 12.75*2*pi/ulx,y,z
   ENINI  =  600.0     initial cutoff
   ENAUG  =  535.5 eV  augmentation charge cutoff
   NELM   =    100;   NELMIN=  6; NELMDL= -5     # of ELM steps 
   EDIFF  = 0.1E-08   stopping-criterion for ELM
   LREAL  =      F    real-space projection
   NLSPLINE    = F    spline interpolate recip. space projectors
   LCOMPAT=      F    compatible to vasp.4.4
   GGA_COMPAT  = T    GGA compatible to vasp.4.4-vasp.4.6
   LMAXPAW     = -100 max onsite density
   LMAXMIX     =    2 max onsite mixed and CHGCAR
   VOSKOWN=      0    Vosko Wilk Nusair interpolation
   ROPT   =    0.00000   0.00000   0.00000
 Ionic relaxation
   EDIFFG = 0.1E-07   stopping-criterion for IOM
   NSW    =      0    number of steps for IOM
   NBLOCK =      1;   KBLOCK =      1    inner block; outer block 
   IBRION =     -1    ionic relax: 0-MD 1-quasi-New 2-CG
   NFREE  =      0    steps in history (QN), initial steepest desc. (CG)
   ISIF   =     -1    stress and relaxation
   IWAVPR =     10    prediction:  0-non 1-charg 2-wave 3-comb
   ISYM   =      2    0-nonsym 1-usesym 2-fastsym
   LCORR  =      T    Harris-Foulkes like correction to forces

   POTIM  = 0.5000    time-step for ionic-motion
   TEIN   =    0.0    initial temperature
   TEBEG  =    0.0;   TEEND  =   0.0 temperature during run
   SMASS  =  -3.00    Nose mass-parameter (am)
   estimated Nose-frequenzy (Omega)   =  0.10E-29 period in steps = 0.13E+47 mass=  -0.932E-27a.u.
   SCALEE = 1.0000    scale energy and forces
   NPACO  =    256;   APACO  = 16.0  distance and # of slots for P.C.
   PSTRESS=    0.0 pullay stress

  Mass of Ions in am
   POMASS =  10.81 95.94 28.09
  Ionic Valenz
   ZVAL   =   3.00 14.00  4.00
  Atomic Wigner-Seitz radii
   RWIGS  =  -1.00 -1.00 -1.00
  virtual crystal weights 
   VCA    =   1.00  1.00  1.00
   NELECT =     106.0000    total number of electrons
   NUPDOWN=      -1.0000    fix difference up-down

 DOS related values:
   EMIN   =  10.00;   EMAX   =-10.00  energy-range for DOS
   EFERMI =   0.00
   ISMEAR =     0;   SIGMA  =   0.02  broadening in eV -4-tet -1-fermi 0-gaus

 Electronic relaxation 2 (details)
   IALGO  =     58    algorithm
   LDIAG  =      T    sub-space diagonalisation (order eigenvalues)
   LSUBROT=      F    optimize rotation matrix (better conditioning)
   TURBO    =      0    0=normal 1=particle mesh
   IRESTART =      0    0=no restart 2=restart with 2 vectors
   NREBOOT  =      0    no. of reboots
   NMIN     =      0    reboot dimension
   EREF     =   0.00    reference energy to select bands
   IMIX   =      4    mixing-type and parameters
     AMIX     =   0.40;   BMIX     =  1.00
     AMIX_MAG =   1.60;   BMIX_MAG =  1.00
     AMIN     =   0.10
     WC   =   100.;   INIMIX=   1;  MIXPRE=   1;  MAXMIX= -45

 Intra band minimization:
   WEIMIN = 0.0000     energy-eigenvalue tresh-hold
   EBREAK =  0.38E-11  absolut break condition
   DEPER  =   0.30     relativ break condition  

   TIME   =   0.40     timestep for ELM

  volume/ion in A,a.u.               =      15.60       105.30
  Fermi-wavevector in a.u.,A,eV,Ry     =   1.354266  2.559192 24.953579  1.834036
  Thomas-Fermi vector in A             =   2.481452
 
 Write flags
   LWAVE        =      T    write WAVECAR
   LDOWNSAMPLE  =      F    k-point downsampling of WAVECAR
   LCHARG       =      T    write CHGCAR
   LVTOT        =      F    write LOCPOT, total local potential
   LVHAR        =      F    write LOCPOT, Hartree potential only
   LELF         =      F    write electronic localiz. function (ELF)
   LORBIT       =      0    0 simple, 1 ext, 2 COOP (PROOUT), +10 PAW based schemes


 Dipole corrections
   LMONO  =      F    monopole corrections only (constant potential shift)
   LDIPOL =      F    correct potential (dipole corrections)
   IDIPOL =      0    1-x, 2-y, 3-z, 4-all directions 
   EPSILON=  1.0000000 bulk dielectric constant

 Exchange correlation treatment:
   GGA     =    --    GGA type
   LEXCH   =     8    internal setting for exchange type
   VOSKOWN=      0    Vosko Wilk Nusair interpolation
   LHFCALC =     F    Hartree Fock is set to
   LHFONE  =     F    Hartree Fock one center treatment
   AEXX    =    0.0000 exact exchange contribution

 Linear response parameters
   LEPSILON=     F    determine dielectric tensor
   LRPA    =     F    only Hartree local field effects (RPA)
   LNABLA  =     F    use nabla operator in PAW spheres
   LVEL    =     F    velocity operator in full k-point grid
   LINTERFAST=   F  fast interpolation
   KINTER  =     0    interpolate to denser k-point grid
   CSHIFT  =0.1000    complex shift for real part using Kramers Kronig
   OMEGAMAX=  -1.0    maximum frequency
   DEG_THRESHOLD= 0.2000000E-02 threshold for treating states as degnerate
   RTIME   =   -0.100 relaxation time in fs
  (WPLASMAI=    0.000 imaginary part of plasma frequency in eV, 0.658/RTIME)
   DFIELD  = 0.0000000 0.0000000 0.0000000 field for delta impulse in time
 
 Orbital magnetization related:
   ORBITALMAG=     F  switch on orbital magnetization
   LCHIMAG   =     F  perturbation theory with respect to B field
   DQ        =  0.001000  dq finite difference perturbation B field
   LLRAUG    =     F  two centre corrections for induced B field



--------------------------------------------------------------------------------------------------------


 Static calculation
 charge density and potential will be updated during run
 non-spin polarized calculation
 Conjugate gradient for all bands (Freysoldt, et al. PRB 79, 241103 (2009))
 preconditioned conjugated gradient                                        
 perform sub-space diagonalisation
    before iterative eigenvector-optimisation
 modified Broyden-mixing scheme, WC =      100.0
 initial mixing is a Kerker type mixing with AMIX =  0.4000 and BMIX =      1.0000
 Hartree-type preconditioning will be used
 using additional bands           13
 reciprocal scheme for non local part
 use partial core corrections
 no Harris-corrections to forces 
 use gradient corrections 
 use of overlap-Matrix (Vanderbilt PP)
 Gauss-broadening in eV      SIGMA  =   0.02


--------------------------------------------------------------------------------------------------------


  energy-cutoff  :      600.00
  volume of cell :      187.25
      direct lattice vectors                 reciprocal lattice vectors
     5.594568088  0.000000000 -3.077801812     0.178744808  0.066683768  0.000000000
    -1.955497621  5.241681138 -3.077801812     0.000000000  0.190778488  0.000000000
     0.000000000  0.000000000  6.385300000     0.086157439  0.124100324  0.156609713

  length of vectors
     6.385300000  6.385300000  6.385300000     0.190778488  0.190778488  0.217601923


 
 k-points in units of 2pi/SCALE and weight: EA                                      
   0.00000000  0.00000000  0.00000000       0.003
   0.02553497  0.00952625  0.00000000       0.010
   0.05106995  0.01905251  0.00000000       0.010
   0.07660492  0.02857876  0.00000000       0.010
   0.02553497  0.03678032  0.00000000       0.005
   0.05106995  0.04630657  0.00000000       0.010
   0.07660492  0.05583283  0.00000000       0.010
  -0.07660492 -0.00132469  0.00000000       0.010
  -0.05106995  0.00820156  0.00000000       0.010
  -0.02553497  0.01772782  0.00000000       0.005
   0.05106995  0.07356064  0.00000000       0.005
   0.07660492  0.08308690  0.00000000       0.010
  -0.07660492  0.02592938  0.00000000       0.010
  -0.05106995  0.03545563  0.00000000       0.005
   0.07660492  0.11034097  0.00000000       0.005
  -0.07660492  0.05318345  0.00000000       0.005
   0.01076968  0.01551254  0.01957621       0.005
   0.03630465  0.02503879  0.01957621       0.010
   0.06183963  0.03456505  0.01957621       0.010
   0.08737460  0.04409130  0.01957621       0.010
  -0.06583524 -0.01306622  0.01957621       0.010
  -0.04030027 -0.00353996  0.01957621       0.010
  -0.01476529  0.00598629  0.01957621       0.010
   0.03630465  0.05229286  0.01957621       0.005
   0.06183963  0.06181912  0.01957621       0.010
   0.08737460  0.07134537  0.01957621       0.010
  -0.06583524  0.01418785  0.01957621       0.010
  -0.04030027  0.02371411  0.01957621       0.010
  -0.01476529  0.03324036  0.01957621       0.010
   0.06183963  0.08907318  0.01957621       0.005
   0.08737460  0.09859944  0.01957621       0.010
  -0.06583524  0.04144192  0.01957621       0.010
  -0.04030027  0.05096817  0.01957621       0.010
  -0.01476529  0.06049443  0.01957621       0.010
   0.08737460  0.12585351  0.01957621       0.005
  -0.06583524  0.06869599  0.01957621       0.010
  -0.04030027  0.07822224  0.01957621       0.010
  -0.01476529  0.08774850  0.01957621       0.010
  -0.06583524 -0.09482843  0.01957621       0.005
  -0.04030027 -0.08530217  0.01957621       0.010
  -0.01476529 -0.07577592  0.01957621       0.010
  -0.04030027 -0.05804810  0.01957621       0.005
  -0.01476529 -0.04852185  0.01957621       0.010
  -0.01476529 -0.02126778  0.01957621       0.005
   0.02153936  0.03102508  0.03915243       0.005
   0.04707433  0.04055133  0.03915243       0.010
   0.07260930  0.05007759  0.03915243       0.010
   0.09814428  0.05960384  0.03915243       0.010
  -0.05506556  0.00244632  0.03915243       0.010
  -0.02953059  0.01197258  0.03915243       0.010
  -0.00399561  0.02149883  0.03915243       0.010
   0.04707433  0.06780540  0.03915243       0.005
   0.07260930  0.07733166  0.03915243       0.010
   0.09814428  0.08685791  0.03915243       0.010
  -0.05506556  0.02970039  0.03915243       0.010
  -0.02953059  0.03922665  0.03915243       0.010
  -0.00399561  0.04875290  0.03915243       0.010
   0.07260930  0.10458573  0.03915243       0.005
   0.09814428  0.11411198  0.03915243       0.010
  -0.05506556  0.05695446  0.03915243       0.010
  -0.02953059  0.06648072  0.03915243       0.010
  -0.00399561  0.07600697  0.03915243       0.010
   0.09814428  0.14136605  0.03915243       0.005
  -0.05506556  0.08420853  0.03915243       0.010
  -0.02953059  0.09373478  0.03915243       0.010
  -0.00399561  0.10326104  0.03915243       0.010
  -0.05506556 -0.07931589  0.03915243       0.005
  -0.02953059 -0.06978963  0.03915243       0.010
  -0.00399561 -0.06026338  0.03915243       0.010
  -0.02953059 -0.04253556  0.03915243       0.005
  -0.00399561 -0.03300931  0.03915243       0.010
  -0.00399561 -0.00575524  0.03915243       0.005
   0.03230904  0.04653762  0.05872864       0.005
   0.05784401  0.05606387  0.05872864       0.010
   0.08337898  0.06559013  0.05872864       0.010
   0.10891396  0.07511638  0.05872864       0.010
  -0.04429588  0.01795886  0.05872864       0.010
  -0.01876091  0.02748512  0.05872864       0.010
   0.00677407  0.03701137  0.05872864       0.010
   0.05784401  0.08331794  0.05872864       0.005
   0.08337898  0.09284420  0.05872864       0.010
   0.10891396  0.10237045  0.05872864       0.010
  -0.04429588  0.04521293  0.05872864       0.010
  -0.01876091  0.05473919  0.05872864       0.010
   0.00677407  0.06426544  0.05872864       0.010
   0.08337898  0.12009827  0.05872864       0.005
   0.10891396  0.12962452  0.05872864       0.010
  -0.04429588  0.07246700  0.05872864       0.010
  -0.01876091  0.08199326  0.05872864       0.010
   0.00677407  0.09151951  0.05872864       0.010
   0.10891396  0.15687859  0.05872864       0.005
  -0.04429588  0.09972107  0.05872864       0.010
  -0.01876091  0.10924733  0.05872864       0.010
   0.00677407  0.11877358  0.05872864       0.010
  -0.04429588 -0.06380335  0.05872864       0.005
  -0.01876091 -0.05427709  0.05872864       0.010
   0.00677407 -0.04475084  0.05872864       0.010
  -0.01876091 -0.02702302  0.05872864       0.005
   0.00677407 -0.01749677  0.05872864       0.010
   0.00677407  0.00975730  0.05872864       0.005
   0.04307872  0.06205016  0.07830486       0.003
   0.06861369  0.07157641  0.07830486       0.010
   0.09414866  0.08110267  0.07830486       0.010
   0.11968364  0.09062892  0.07830486       0.010
   0.06861369  0.09883048  0.07830486       0.005
   0.09414866  0.10835674  0.07830486       0.010
   0.11968364  0.11788299  0.07830486       0.010
  -0.03352620  0.06072547  0.07830486       0.010
  -0.00799123  0.07025173  0.07830486       0.010
   0.01754375  0.07977798  0.07830486       0.005
   0.09414866  0.13561081  0.07830486       0.005
   0.11968364  0.14513706  0.07830486       0.010
  -0.03352620  0.08797954  0.07830486       0.010
  -0.00799123  0.09750580  0.07830486       0.005
   0.11968364  0.17239113  0.07830486       0.005
  -0.03352620  0.11523361  0.07830486       0.005
 
 k-points in reciprocal lattice and weights: EA                                      
   0.00000000  0.00000000  0.00000000       0.003
   0.14285714  0.00000000  0.00000000       0.010
   0.28571429 -0.00000000  0.00000000       0.010
   0.42857143  0.00000000  0.00000000       0.010
   0.14285714  0.14285714  0.00000000       0.005
   0.28571429  0.14285714  0.00000000       0.010
   0.42857143  0.14285714  0.00000000       0.010
  -0.42857143  0.14285714  0.00000000       0.010
  -0.28571429  0.14285714  0.00000000       0.010
  -0.14285714  0.14285714  0.00000000       0.005
   0.28571429  0.28571429  0.00000000       0.005
   0.42857143  0.28571429  0.00000000       0.010
  -0.42857143  0.28571429  0.00000000       0.010
  -0.28571429  0.28571429  0.00000000       0.005
   0.42857143  0.42857143  0.00000000       0.005
  -0.42857143  0.42857143  0.00000000       0.005
   0.00000000 -0.00000000  0.12500000       0.005
   0.14285714 -0.00000000  0.12500000       0.010
   0.28571429 -0.00000000  0.12500000       0.010
   0.42857143  0.00000000  0.12500000       0.010
  -0.42857143  0.00000000  0.12500000       0.010
  -0.28571429  0.00000000  0.12500000       0.010
  -0.14285714 -0.00000000  0.12500000       0.010
   0.14285714  0.14285714  0.12500000       0.005
   0.28571429  0.14285714  0.12500000       0.010
   0.42857143  0.14285714  0.12500000       0.010
  -0.42857143  0.14285714  0.12500000       0.010
  -0.28571429  0.14285714  0.12500000       0.010
  -0.14285714  0.14285714  0.12500000       0.010
   0.28571429  0.28571429  0.12500000       0.005
   0.42857143  0.28571429  0.12500000       0.010
  -0.42857143  0.28571429  0.12500000       0.010
  -0.28571429  0.28571429  0.12500000       0.010
  -0.14285714  0.28571429  0.12500000       0.010
   0.42857143  0.42857143  0.12500000       0.005
  -0.42857143  0.42857143  0.12500000       0.010
  -0.28571429  0.42857143  0.12500000       0.010
  -0.14285714  0.42857143  0.12500000       0.010
  -0.42857143 -0.42857143  0.12500000       0.005
  -0.28571429 -0.42857143  0.12500000       0.010
  -0.14285714 -0.42857143  0.12500000       0.010
  -0.28571429 -0.28571429  0.12500000       0.005
  -0.14285714 -0.28571429  0.12500000       0.010
  -0.14285714 -0.14285714  0.12500000       0.005
   0.00000000 -0.00000000  0.25000000       0.005
   0.14285714  0.00000000  0.25000000       0.010
   0.28571429  0.00000000  0.25000000       0.010
   0.42857143 -0.00000000  0.25000000       0.010
  -0.42857143 -0.00000000  0.25000000       0.010
  -0.28571429  0.00000000  0.25000000       0.010
  -0.14285714  0.00000000  0.25000000       0.010
   0.14285714  0.14285714  0.25000000       0.005
   0.28571429  0.14285714  0.25000000       0.010
   0.42857143  0.14285714  0.25000000       0.010
  -0.42857143  0.14285714  0.25000000       0.010
  -0.28571429  0.14285714  0.25000000       0.010
  -0.14285714  0.14285714  0.25000000       0.010
   0.28571429  0.28571429  0.25000000       0.005
   0.42857143  0.28571429  0.25000000       0.010
  -0.42857143  0.28571429  0.25000000       0.010
  -0.28571429  0.28571429  0.25000000       0.010
  -0.14285714  0.28571429  0.25000000       0.010
   0.42857143  0.42857143  0.25000000       0.005
  -0.42857143  0.42857143  0.25000000       0.010
  -0.28571429  0.42857143  0.25000000       0.010
  -0.14285714  0.42857143  0.25000000       0.010
  -0.42857143 -0.42857143  0.25000000       0.005
  -0.28571429 -0.42857143  0.25000000       0.010
  -0.14285714 -0.42857143  0.25000000       0.010
  -0.28571429 -0.28571429  0.25000000       0.005
  -0.14285714 -0.28571429  0.25000000       0.010
  -0.14285714 -0.14285714  0.25000000       0.005
   0.00000000  0.00000000  0.37500000       0.005
   0.14285714 -0.00000000  0.37500000       0.010
   0.28571429  0.00000000  0.37500000       0.010
   0.42857143 -0.00000000  0.37500000       0.010
  -0.42857143  0.00000000  0.37500000       0.010
  -0.28571429  0.00000000  0.37500000       0.010
  -0.14285714  0.00000000  0.37500000       0.010
   0.14285714  0.14285714  0.37500000       0.005
   0.28571429  0.14285714  0.37500000       0.010
   0.42857143  0.14285714  0.37500000       0.010
  -0.42857143  0.14285714  0.37500000       0.010
  -0.28571429  0.14285714  0.37500000       0.010
  -0.14285714  0.14285714  0.37500000       0.010
   0.28571429  0.28571429  0.37500000       0.005
   0.42857143  0.28571429  0.37500000       0.010
  -0.42857143  0.28571429  0.37500000       0.010
  -0.28571429  0.28571429  0.37500000       0.010
  -0.14285714  0.28571429  0.37500000       0.010
   0.42857143  0.42857143  0.37500000       0.005
  -0.42857143  0.42857143  0.37500000       0.010
  -0.28571429  0.42857143  0.37500000       0.010
  -0.14285714  0.42857143  0.37500000       0.010
  -0.42857143 -0.42857143  0.37500000       0.005
  -0.28571429 -0.42857143  0.37500000       0.010
  -0.14285714 -0.42857143  0.37500000       0.010
  -0.28571429 -0.28571429  0.37500000       0.005
  -0.14285714 -0.28571429  0.37500000       0.010
  -0.14285714 -0.14285714  0.37500000       0.005
   0.00000000 -0.00000000  0.50000000       0.003
   0.14285714  0.00000000  0.50000000       0.010
   0.28571429 -0.00000000  0.50000000       0.010
   0.42857143  0.00000000  0.50000000       0.010
   0.14285714  0.14285714  0.50000000       0.005
   0.28571429  0.14285714  0.50000000       0.010
   0.42857143  0.14285714  0.50000000       0.010
  -0.42857143  0.14285714  0.50000000       0.010
  -0.28571429  0.14285714  0.50000000       0.010
  -0.14285714  0.14285714  0.50000000       0.005
   0.28571429  0.28571429  0.50000000       0.005
   0.42857143  0.28571429  0.50000000       0.010
  -0.42857143  0.28571429  0.50000000       0.010
  -0.28571429  0.28571429  0.50000000       0.005
   0.42857143  0.42857143  0.50000000       0.005
  -0.42857143  0.42857143  0.50000000       0.005
 
 position of ions in fractional coordinates (direct lattice) 
   0.00000000  0.00000000  0.00000000
   0.50000000  0.50000000  0.00000000
   0.25000000  0.25000000  0.00000000
   0.74457000  0.24457000  0.98914000
   0.75000000  0.75000000  0.00000000
   0.25543000  0.75543000  0.01086000
   0.24457000  0.25543000  0.50000000
   0.75543000  0.74457000  0.50000000
   0.00000000  0.50000000  0.00000000
   0.50000000  0.50000000  0.50000000
   0.50000000  0.00000000  0.00000000
   0.00000000  0.00000000  0.50000000
 
 position of ions in cartesian coordinates  (Angst):
   0.00000000  0.00000000  0.00000000
   1.81953523  2.62084057 -3.07780181
   0.90976762  1.31042028 -1.53890091
   3.68729151  1.28195796  3.27157876
   2.72930285  3.93126085 -4.61670272
  -0.04822104  3.95972318 -3.04188238
   0.86877076  1.33888261  1.65374909
   2.77029971  3.90279852 -1.42405272
  -0.97774881  2.62084057 -1.53890091
   1.81953523  2.62084057  0.11484819
   2.79728404  0.00000000 -1.53890091
   0.00000000  0.00000000  3.19265000
 


--------------------------------------------------------------------------------------------------------


 k-point   1 :   0.0000 0.0000 0.0000  plane waves:    6205
 k-point   2 :   0.1429 0.0000 0.0000  plane waves:    6245
 k-point   3 :   0.2857-0.0000 0.0000  plane waves:    6241
 k-point   4 :   0.4286 0.0000 0.0000  plane waves:    6242
 k-point   5 :   0.1429 0.1429 0.0000  plane waves:    6245
 k-point   6 :   0.2857 0.1429 0.0000  plane waves:    6255
 k-point   7 :   0.4286 0.1429 0.0000  plane waves:    6254
 k-point   8 :  -0.4286 0.1429 0.0000  plane waves:    6247
 k-point   9 :  -0.2857 0.1429 0.0000  plane waves:    6243
 k-point  10 :  -0.1429 0.1429 0.0000  plane waves:    6239
 k-point  11 :   0.2857 0.2857 0.0000  plane waves:    6254
 k-point  12 :   0.4286 0.2857 0.0000  plane waves:    6249
 k-point  13 :  -0.4286 0.2857 0.0000  plane waves:    6247
 k-point  14 :  -0.2857 0.2857 0.0000  plane waves:    6238
 k-point  15 :   0.4286 0.4286 0.0000  plane waves:    6275
 k-point  16 :  -0.4286 0.4286 0.0000  plane waves:    6276
 k-point  17 :   0.0000-0.0000 0.1250  plane waves:    6243
 k-point  18 :   0.1429-0.0000 0.1250  plane waves:    6242
 k-point  19 :   0.2857-0.0000 0.1250  plane waves:    6245
 k-point  20 :   0.4286 0.0000 0.1250  plane waves:    6250
 k-point  21 :  -0.4286 0.0000 0.1250  plane waves:    6256
 k-point  22 :  -0.2857 0.0000 0.1250  plane waves:    6247
 k-point  23 :  -0.1429-0.0000 0.1250  plane waves:    6238
 k-point  24 :   0.1429 0.1429 0.1250  plane waves:    6245
 k-point  25 :   0.2857 0.1429 0.1250  plane waves:    6252
 k-point  26 :   0.4286 0.1429 0.1250  plane waves:    6251
 k-point  27 :  -0.4286 0.1429 0.1250  plane waves:    6252
 k-point  28 :  -0.2857 0.1429 0.1250  plane waves:    6245
 k-point  29 :  -0.1429 0.1429 0.1250  plane waves:    6244
 k-point  30 :   0.2857 0.2857 0.1250  plane waves:    6243
 k-point  31 :   0.4286 0.2857 0.1250  plane waves:    6257
 k-point  32 :  -0.4286 0.2857 0.1250  plane waves:    6255
 k-point  33 :  -0.2857 0.2857 0.1250  plane waves:    6242
 k-point  34 :  -0.1429 0.2857 0.1250  plane waves:    6241
 k-point  35 :   0.4286 0.4286 0.1250  plane waves:    6279
 k-point  36 :  -0.4286 0.4286 0.1250  plane waves:    6265
 k-point  37 :  -0.2857 0.4286 0.1250  plane waves:    6254
 k-point  38 :  -0.1429 0.4286 0.1250  plane waves:    6247
 k-point  39 :  -0.4286-0.4286 0.1250  plane waves:    6259
 k-point  40 :  -0.2857-0.4286 0.1250  plane waves:    6243
 k-point  41 :  -0.1429-0.4286 0.1250  plane waves:    6248
 k-point  42 :  -0.2857-0.2857 0.1250  plane waves:    6259
 k-point  43 :  -0.1429-0.2857 0.1250  plane waves:    6247
 k-point  44 :  -0.1429-0.1429 0.1250  plane waves:    6229
 k-point  45 :   0.0000-0.0000 0.2500  plane waves:    6242
 k-point  46 :   0.1429 0.0000 0.2500  plane waves:    6247
 k-point  47 :   0.2857 0.0000 0.2500  plane waves:    6257
 k-point  48 :   0.4286-0.0000 0.2500  plane waves:    6254
 k-point  49 :  -0.4286-0.0000 0.2500  plane waves:    6260
 k-point  50 :  -0.2857 0.0000 0.2500  plane waves:    6245
 k-point  51 :  -0.1429 0.0000 0.2500  plane waves:    6239
 k-point  52 :   0.1429 0.1429 0.2500  plane waves:    6248
 k-point  53 :   0.2857 0.1429 0.2500  plane waves:    6247
 k-point  54 :   0.4286 0.1429 0.2500  plane waves:    6259
 k-point  55 :  -0.4286 0.1429 0.2500  plane waves:    6247
 k-point  56 :  -0.2857 0.1429 0.2500  plane waves:    6243
 k-point  57 :  -0.1429 0.1429 0.2500  plane waves:    6248
 k-point  58 :   0.2857 0.2857 0.2500  plane waves:    6234
 k-point  59 :   0.4286 0.2857 0.2500  plane waves:    6254
 k-point  60 :  -0.4286 0.2857 0.2500  plane waves:    6244
 k-point  61 :  -0.2857 0.2857 0.2500  plane waves:    6232
 k-point  62 :  -0.1429 0.2857 0.2500  plane waves:    6245
 k-point  63 :   0.4286 0.4286 0.2500  plane waves:    6264
 k-point  64 :  -0.4286 0.4286 0.2500  plane waves:    6263
 k-point  65 :  -0.2857 0.4286 0.2500  plane waves:    6245
 k-point  66 :  -0.1429 0.4286 0.2500  plane waves:    6236
 k-point  67 :  -0.4286-0.4286 0.2500  plane waves:    6250
 k-point  68 :  -0.2857-0.4286 0.2500  plane waves:    6238
 k-point  69 :  -0.1429-0.4286 0.2500  plane waves:    6244
 k-point  70 :  -0.2857-0.2857 0.2500  plane waves:    6240
 k-point  71 :  -0.1429-0.2857 0.2500  plane waves:    6238
 k-point  72 :  -0.1429-0.1429 0.2500  plane waves:    6240
 k-point  73 :   0.0000 0.0000 0.3750  plane waves:    6268
 k-point  74 :   0.1429-0.0000 0.3750  plane waves:    6270
 k-point  75 :   0.2857 0.0000 0.3750  plane waves:    6256
 k-point  76 :   0.4286-0.0000 0.3750  plane waves:    6249
 k-point  77 :  -0.4286 0.0000 0.3750  plane waves:    6249
 k-point  78 :  -0.2857 0.0000 0.3750  plane waves:    6244
 k-point  79 :  -0.1429 0.0000 0.3750  plane waves:    6245
 k-point  80 :   0.1429 0.1429 0.3750  plane waves:    6262
 k-point  81 :   0.2857 0.1429 0.3750  plane waves:    6254
 k-point  82 :   0.4286 0.1429 0.3750  plane waves:    6251
 k-point  83 :  -0.4286 0.1429 0.3750  plane waves:    6244
 k-point  84 :  -0.2857 0.1429 0.3750  plane waves:    6242
 k-point  85 :  -0.1429 0.1429 0.3750  plane waves:    6249
 k-point  86 :   0.2857 0.2857 0.3750  plane waves:    6251
 k-point  87 :   0.4286 0.2857 0.3750  plane waves:    6254
 k-point  88 :  -0.4286 0.2857 0.3750  plane waves:    6247
 k-point  89 :  -0.2857 0.2857 0.3750  plane waves:    6252
 k-point  90 :  -0.1429 0.2857 0.3750  plane waves:    6258
 k-point  91 :   0.4286 0.4286 0.3750  plane waves:    6249
 k-point  92 :  -0.4286 0.4286 0.3750  plane waves:    6238
 k-point  93 :  -0.2857 0.4286 0.3750  plane waves:    6245
 k-point  94 :  -0.1429 0.4286 0.3750  plane waves:    6250
 k-point  95 :  -0.4286-0.4286 0.3750  plane waves:    6231
 k-point  96 :  -0.2857-0.4286 0.3750  plane waves:    6242
 k-point  97 :  -0.1429-0.4286 0.3750  plane waves:    6244
 k-point  98 :  -0.2857-0.2857 0.3750  plane waves:    6245
 k-point  99 :  -0.1429-0.2857 0.3750  plane waves:    6250
 k-point 100 :  -0.1429-0.1429 0.3750  plane waves:    6248
 k-point 101 :   0.0000-0.0000 0.5000  plane waves:    6290
 k-point 102 :   0.1429 0.0000 0.5000  plane waves:    6272
 k-point 103 :   0.2857-0.0000 0.5000  plane waves:    6247
 k-point 104 :   0.4286 0.0000 0.5000  plane waves:    6244
 k-point 105 :   0.1429 0.1429 0.5000  plane waves:    6257
 k-point 106 :   0.2857 0.1429 0.5000  plane waves:    6249
 k-point 107 :   0.4286 0.1429 0.5000  plane waves:    6249
 k-point 108 :  -0.4286 0.1429 0.5000  plane waves:    6241
 k-point 109 :  -0.2857 0.1429 0.5000  plane waves:    6258
 k-point 110 :  -0.1429 0.1429 0.5000  plane waves:    6294
 k-point 111 :   0.2857 0.2857 0.5000  plane waves:    6246
 k-point 112 :   0.4286 0.2857 0.5000  plane waves:    6237
 k-point 113 :  -0.4286 0.2857 0.5000  plane waves:    6244
 k-point 114 :  -0.2857 0.2857 0.5000  plane waves:    6260
 k-point 115 :   0.4286 0.4286 0.5000  plane waves:    6230
 k-point 116 :  -0.4286 0.4286 0.5000  plane waves:    6218

 maximum and minimum number of plane-waves per node :      3157     3102

 maximum number of plane-waves:      6294
 maximum index in each direction: 
   IXMAX=   13   IYMAX=   13   IZMAX=   12
   IXMIN=  -13   IYMIN=  -13   IZMIN=  -13


 parallel 3D FFT for wavefunctions:
    minimum data exchange during FFTs selected (reduces bandwidth)
 parallel 3D FFT for charge:
    minimum data exchange during FFTs selected (reduces bandwidth)


 total amount of memory used by VASP MPI-rank0   416711. kBytes
=======================================================================

   base      :      30000. kBytes
   nonl-proj :     158155. kBytes
   fftplans  :      17765. kBytes
   grid      :      13358. kBytes
   one-center:         93. kBytes
   wavefun   :     197340. kBytes
 
     INWAV:  cpu time    0.0001: real time    0.0001
 Broyden mixing: mesh for mixing (old mesh)
   NGX = 25   NGY = 25   NGZ = 25
  (NGX  =108   NGY  =108   NGZ  =108)
  gives a total of  15625 points

 initial charge density was supplied:
 charge density of overlapping atoms calculated
 number of electron     106.0000000 magnetization 
 keeping initial charge density in first step


--------------------------------------------------------------------------------------------------------


 Maximum index for augmentation-charges        23826 (set IRDMAX)


--------------------------------------------------------------------------------------------------------


 First call to EWALD:  gamma=   0.310
 Maximum number of real-space cells 3x 3x 3
 Maximum number of reciprocal cells 3x 3x 3

    FEWALD:  cpu time    0.0077: real time    0.0077


--------------------------------------- Iteration      1(   1)  ---------------------------------------


    POTLOK:  cpu time    0.1757: real time    0.1777
    SETDIJ:  cpu time    0.6491: real time    0.6532
    TRIAL :  cpu time   32.2730: real time   32.5606
    CORREC:  cpu time    0.0021: real time    0.0021
    --------------------------------------------
      LOOP:  cpu time   33.1767: real time   33.5334

 eigenvalue-minimisations  : 15636
 total energy-change (2. order) : 0.1093930E+04  (-0.7104723E+04)
 number of electron     106.0000000 magnetization 
 augmentation part      106.0000000 magnetization 

 Free energy of the ion-electron system (eV)
  ---------------------------------------------------
  alpha Z        PSCENC =       492.11887198
  Ewald energy   TEWEN  =     -8735.89013079
  -Hartree energ DENC   =     -2967.71011304
  -exchange      EXHF   =         0.00000000
  -V(xc)+E(xc)   XCENC  =       458.00876841
  PAW double counting   =      9333.50011946    -9270.82734050
  entropy T*S    EENTRO =        -0.00049079
  eigenvalues    EBANDS =        56.43016936
  atomic energy  EATOM  =     11728.30056431
  ---------------------------------------------------
  free energy    TOTEN  =      1093.93041840 eV

  energy without entropy =     1093.93090920  energy(sigma->0) =     1093.93066380


--------------------------------------------------------------------------------------------------------




--------------------------------------- Iteration      1(   2)  ---------------------------------------


    TRIAL :  cpu time   35.7538: real time   36.4940
    CORREC:  cpu time    0.0022: real time    0.0022
    --------------------------------------------
      LOOP:  cpu time   35.7579: real time   36.4999

 eigenvalue-minimisations  : 17256
 total energy-change (2. order) :-0.1281945E+04  (-0.1256317E+04)
 number of electron     106.0000000 magnetization 
 augmentation part      106.0000000 magnetization 

 Free energy of the ion-electron system (eV)
  ---------------------------------------------------
  alpha Z        PSCENC =       492.11887198
  Ewald energy   TEWEN  =     -8735.89013079
  -Hartree energ DENC   =     -2967.71011304
  -exchange      EXHF   =         0.00000000
  -V(xc)+E(xc)   XCENC  =       458.00876841
  PAW double counting   =      9333.50011946    -9270.82734050
  entropy T*S    EENTRO =        -0.00223609
  eigenvalues    EBANDS =     -1225.51332497
  atomic energy  EATOM  =     11728.30056431
  ---------------------------------------------------
  free energy    TOTEN  =      -188.01482122 eV

  energy without entropy =     -188.01258513  energy(sigma->0) =     -188.01370318


--------------------------------------------------------------------------------------------------------




--------------------------------------- Iteration      1(   3)  ---------------------------------------


    TRIAL :  cpu time   41.9733: real time   42.8644
    CORREC:  cpu time    0.0021: real time    0.0021
    --------------------------------------------
      LOOP:  cpu time   41.9778: real time   42.8694

 eigenvalue-minimisations  : 20502
 total energy-change (2. order) :-0.5166007E+02  (-0.5048778E+02)
 number of electron     106.0000000 magnetization 
 augmentation part      106.0000000 magnetization 

 Free energy of the ion-electron system (eV)
  ---------------------------------------------------
  alpha Z        PSCENC =       492.11887198
  Ewald energy   TEWEN  =     -8735.89013079
  -Hartree energ DENC   =     -2967.71011304
  -exchange      EXHF   =         0.00000000
  -V(xc)+E(xc)   XCENC  =       458.00876841
  PAW double counting   =      9333.50011946    -9270.82734050
  entropy T*S    EENTRO =        -0.00097494
  eigenvalues    EBANDS =     -1277.17465682
  atomic energy  EATOM  =     11728.30056431
  ---------------------------------------------------
  free energy    TOTEN  =      -239.67489192 eV

  energy without entropy =     -239.67391699  energy(sigma->0) =     -239.67440445


--------------------------------------------------------------------------------------------------------




--------------------------------------- Iteration      1(   4)  ---------------------------------------


    TRIAL :  cpu time   39.2357: real time   40.1074
    CORREC:  cpu time    0.0020: real time    0.0021
    --------------------------------------------
      LOOP:  cpu time   39.2402: real time   40.1124

 eigenvalue-minimisations  : 18936
 total energy-change (2. order) :-0.1064987E+01  (-0.1052616E+01)
 number of electron     106.0000000 magnetization 
 augmentation part      106.0000000 magnetization 

 Free energy of the ion-electron system (eV)
  ---------------------------------------------------
  alpha Z        PSCENC =       492.11887198
  Ewald energy   TEWEN  =     -8735.89013079
  -Hartree energ DENC   =     -2967.71011304
  -exchange      EXHF   =         0.00000000
  -V(xc)+E(xc)   XCENC  =       458.00876841
  PAW double counting   =      9333.50011946    -9270.82734050
  entropy T*S    EENTRO =        -0.00176216
  eigenvalues    EBANDS =     -1278.23885643
  atomic energy  EATOM  =     11728.30056431
  ---------------------------------------------------
  free energy    TOTEN  =      -240.73987875 eV

  energy without entropy =     -240.73811659  energy(sigma->0) =     -240.73899767


--------------------------------------------------------------------------------------------------------




--------------------------------------- Iteration      1(   5)  ---------------------------------------


    TRIAL :  cpu time   39.8271: real time   40.5908
    CORREC:  cpu time    0.0021: real time    0.0021
    CHARGE:  cpu time    2.4977: real time    2.5172
    --------------------------------------------
      LOOP:  cpu time   42.3291: real time   43.1130

 eigenvalue-minimisations  : 19278
 total energy-change (2. order) :-0.2054816E-01  (-0.2049111E-01)
 number of electron     106.0000001 magnetization 
 augmentation part       11.8668761 magnetization 

 Free energy of the ion-electron system (eV)
  ---------------------------------------------------
  alpha Z        PSCENC =       492.11887198
  Ewald energy   TEWEN  =     -8735.89013079
  -Hartree energ DENC   =     -2967.71011304
  -exchange      EXHF   =         0.00000000
  -V(xc)+E(xc)   XCENC  =       458.00876841
  PAW double counting   =      9333.50011946    -9270.82734050
  entropy T*S    EENTRO =        -0.00178908
  eigenvalues    EBANDS =     -1278.25937766
  atomic energy  EATOM  =     11728.30056431
  ---------------------------------------------------
  free energy    TOTEN  =      -240.76042691 eV

  energy without entropy =     -240.75863782  energy(sigma->0) =     -240.75953237


--------------------------------------------------------------------------------------------------------




--------------------------------------- Iteration      1(   6)  ---------------------------------------


    POTLOK:  cpu time    0.1908: real time    0.1919
    SETDIJ:  cpu time    0.6616: real time    0.6656
    TRIAL :  cpu time   28.0062: real time   28.3864
    CORREC:  cpu time    9.5281: real time    9.6094
    CHARGE:  cpu time    4.2328: real time    4.2604
    --------------------------------------------
      LOOP:  cpu time   42.6211: real time   43.1159

 eigenvalue-minimisations  :     0
 total energy-change (2. order) : 0.5937119E+02  (-0.1228237E+02)
 number of electron     106.0000001 magnetization 
 augmentation part       13.8764596 magnetization 

 Free energy of the ion-electron system (eV)
  ---------------------------------------------------
  alpha Z        PSCENC =       492.11887198
  Ewald energy   TEWEN  =     -8735.89013079
  -Hartree energ DENC   =     -2605.27661403
  -exchange      EXHF   =         0.00000000
  -V(xc)+E(xc)   XCENC  =       456.50049222
  PAW double counting   =     15293.16666846   -15269.69459833
  entropy T*S    EENTRO =        -0.00143474
  eigenvalues    EBANDS =     -1540.61270121
  atomic energy  EATOM  =     11728.30056431
  ---------------------------------------------------
  free energy    TOTEN  =      -181.38923646 eV

  energy without entropy =     -181.38780172  energy(sigma->0) =     -181.38851909


--------------------------------------------------------------------------------------------------------




--------------------------------------- Iteration      1(   7)  ---------------------------------------


    POTLOK:  cpu time    0.1479: real time    0.1488
    SETDIJ:  cpu time    0.9480: real time    0.9533
    TRIAL :  cpu time   32.6776: real time   33.0990
    CORREC:  cpu time   12.0872: real time   12.4957
    CHARGE:  cpu time    2.8891: real time    2.9083
    --------------------------------------------
      LOOP:  cpu time   48.7504: real time   49.6067

 eigenvalue-minimisations  :     0
 total energy-change (2. order) :-0.1216473E+02  (-0.2424134E+01)
 number of electron     106.0000001 magnetization 
 augmentation part       13.8474942 magnetization 

 Free energy of the ion-electron system (eV)
  ---------------------------------------------------
  alpha Z        PSCENC =       492.11887198
  Ewald energy   TEWEN  =     -8735.89013079
  -Hartree energ DENC   =     -2826.14657309
  -exchange      EXHF   =         0.00000000
  -V(xc)+E(xc)   XCENC  =       467.02117131
  PAW double counting   =     14501.89995334   -14463.38775272
  entropy T*S    EENTRO =        -0.00162841
  eigenvalues    EBANDS =     -1357.46863789
  atomic energy  EATOM  =     11728.30056431
  ---------------------------------------------------
  free energy    TOTEN  =      -193.55396827 eV

  energy without entropy =     -193.55233987  energy(sigma->0) =     -193.55315407


--------------------------------------------------------------------------------------------------------




--------------------------------------- Iteration      1(   8)  ---------------------------------------


    POTLOK:  cpu time    0.1480: real time    0.1490
    SETDIJ:  cpu time    1.2096: real time    1.2160
    TRIAL :  cpu time   31.2481: real time   31.5373
    CORREC:  cpu time   10.1424: real time   10.2221
    CHARGE:  cpu time    3.4691: real time    3.4906
    --------------------------------------------
      LOOP:  cpu time   46.2191: real time   46.6172

 eigenvalue-minimisations  :     0
 total energy-change (2. order) :-0.2420026E+01  (-0.6690819E+00)
 number of electron     106.0000001 magnetization 
 augmentation part       13.8160076 magnetization 

 Free energy of the ion-electron system (eV)
  ---------------------------------------------------
  alpha Z        PSCENC =       492.11887198
  Ewald energy   TEWEN  =     -8735.89013079
  -Hartree energ DENC   =     -2852.81745903
  -exchange      EXHF   =         0.00000000
  -V(xc)+E(xc)   XCENC  =       468.48307401
  PAW double counting   =     14312.41284448   -14270.58800248
  entropy T*S    EENTRO =        -0.00154011
  eigenvalues    EBANDS =     -1337.99212860
  atomic energy  EATOM  =     11728.30056431
  ---------------------------------------------------
  free energy    TOTEN  =      -195.97399453 eV

  energy without entropy =     -195.97245442  energy(sigma->0) =     -195.97322447


--------------------------------------------------------------------------------------------------------




--------------------------------------- Iteration      1(   9)  ---------------------------------------


    POTLOK:  cpu time    0.1466: real time    0.1475
    SETDIJ:  cpu time    0.6562: real time    0.6595
    TRIAL :  cpu time   33.1449: real time   33.4258
    CORREC:  cpu time   12.1202: real time   12.2354
    CHARGE:  cpu time    3.2966: real time    3.3206
    --------------------------------------------
      LOOP:  cpu time   49.3661: real time   49.7910

 eigenvalue-minimisations  :     0
 total energy-change (2. order) :-0.6691814E+00  (-0.2125828E+00)
 number of electron     106.0000001 magnetization 
 augmentation part       13.8119680 magnetization 

 Free energy of the ion-electron system (eV)
  ---------------------------------------------------
  alpha Z        PSCENC =       492.11887198
  Ewald energy   TEWEN  =     -8735.89013079
  -Hartree energ DENC   =     -2854.15913242
  -exchange      EXHF   =         0.00000000
  -V(xc)+E(xc)   XCENC  =       468.64408044
  PAW double counting   =     14322.70179182   -14278.86008329
  entropy T*S    EENTRO =        -0.00140949
  eigenvalues    EBANDS =     -1339.49759785
  atomic energy  EATOM  =     11728.30056431
  ---------------------------------------------------
  free energy    TOTEN  =      -196.64317591 eV

  energy without entropy =     -196.64176642  energy(sigma->0) =     -196.64247116


--------------------------------------------------------------------------------------------------------




--------------------------------------- Iteration      1(  10)  ---------------------------------------


    POTLOK:  cpu time    0.1475: real time    0.1484
    SETDIJ:  cpu time    0.6566: real time    0.6604
    TRIAL :  cpu time   34.4596: real time   35.1262
    CORREC:  cpu time   10.2431: real time   10.3271
    CHARGE:  cpu time    3.3478: real time    3.3724
    --------------------------------------------
      LOOP:  cpu time   48.8557: real time   49.6364

 eigenvalue-minimisations  :     0
 total energy-change (2. order) :-0.2127106E+00  (-0.9045931E-01)
 number of electron     106.0000001 magnetization 
 augmentation part       13.8098959 magnetization 

 Free energy of the ion-electron system (eV)
  ---------------------------------------------------
  alpha Z        PSCENC =       492.11887198
  Ewald energy   TEWEN  =     -8735.89013079
  -Hartree energ DENC   =     -2857.23055959
  -exchange      EXHF   =         0.00000000
  -V(xc)+E(xc)   XCENC  =       468.79961989
  PAW double counting   =     14381.85084700   -14336.87482949
  entropy T*S    EENTRO =        -0.00118771
  eigenvalues    EBANDS =     -1337.92886032
  atomic energy  EATOM  =     11728.30056431
  ---------------------------------------------------
  free energy    TOTEN  =      -196.85588651 eV

  energy without entropy =     -196.85469880  energy(sigma->0) =     -196.85529265


--------------------------------------------------------------------------------------------------------




--------------------------------------- Iteration      1(  11)  ---------------------------------------


    POTLOK:  cpu time    0.1436: real time    0.1444
    SETDIJ:  cpu time    0.6489: real time    0.6528
    TRIAL :  cpu time   31.6934: real time   32.0660
    CORREC:  cpu time   12.7928: real time   12.8983
    CHARGE:  cpu time    2.7748: real time    2.7946
    --------------------------------------------
      LOOP:  cpu time   48.0555: real time   48.5598

 eigenvalue-minimisations  :     0
 total energy-change (2. order) :-0.9043887E-01  (-0.3221810E-01)
 number of electron     106.0000001 magnetization 
 augmentation part       13.8143971 magnetization 

 Free energy of the ion-electron system (eV)
  ---------------------------------------------------
  alpha Z        PSCENC =       492.11887198
  Ewald energy   TEWEN  =     -8735.89013079
  -Hartree energ DENC   =     -2860.20313188
  -exchange      EXHF   =         0.00000000
  -V(xc)+E(xc)   XCENC  =       468.92852882
  PAW double counting   =     14444.23362603   -14398.76205654
  entropy T*S    EENTRO =        -0.00112846
  eigenvalues    EBANDS =     -1335.67140960
  atomic energy  EATOM  =     11728.30056431
  ---------------------------------------------------
  free energy    TOTEN  =      -196.94632537 eV

  energy without entropy =     -196.94519691  energy(sigma->0) =     -196.94576114


--------------------------------------------------------------------------------------------------------




[...]
     58      10.3024      0.00000
     59      10.6725      0.00000
     60      10.7763      0.00000
     61      11.4119      0.00000
     62      11.5062      0.00000
     63      11.9870      0.00000
     64      12.1185      0.00000
     65      12.3423      0.00000
     66      12.5945      0.00000

 k-point   110 :      -0.1429    0.1429    0.5000
  band No.  band energies     occupation 
      1     -53.8577      2.00000
      2     -53.8569      2.00000
      3     -53.5045      2.00000
      4     -53.5008      2.00000
      5     -53.4955      2.00000
      6     -53.4907      2.00000
      7     -27.5384      2.00000
      8     -27.4992      2.00000
      9     -27.4784      2.00000
     10     -27.4632      2.00000
     11     -27.3490      2.00000
     12     -27.3337      2.00000
     13     -27.1676      2.00000
     14     -27.1436      2.00000
     15     -27.1134      2.00000
     16     -27.0932      2.00000
     17     -27.0796      2.00000
     18     -27.0758      2.00000
     19     -27.0011      2.00000
     20     -27.0010      2.00000
     21     -26.7702      2.00000
     22     -26.7234      2.00000
     23     -26.7173      2.00000
     24     -26.6806      2.00000
     25      -1.1289      2.00000
     26      -0.0205      2.00000
     27       0.0239      2.00000
     28       0.7092      2.00000
     29       0.9553      2.00000
     30       1.6258      2.00000
     31       3.3367      2.00000
     32       3.5672      2.00000
     33       4.5096      2.00000
     34       4.6437      2.00000
     35       4.8863      2.00000
     36       4.8864      2.00000
     37       4.9364      2.00000
     38       5.0891      2.00000
     39       5.2106      2.00000
     40       5.3672      2.00000
     41       5.4843      2.00000
     42       5.6016      2.00000
     43       5.8654      2.00000
     44       5.9539      2.00000
     45       6.0385      2.00000
     46       7.1508      2.00000
     47       7.4182      2.00000
     48       7.4812      2.00000
     49       7.7320      2.00000
     50       7.8978      2.00000
     51       7.9762      2.00000
     52       8.9484      2.00000
     53       9.1489      0.00000
     54       9.3808      0.00000
     55       9.3834      0.00000
     56       9.7816      0.00000
     57       9.8780      0.00000
     58      10.0021      0.00000
     59      10.4634      0.00000
     60      10.8278      0.00000
     61      10.9819      0.00000
     62      11.4100      0.00000
     63      11.9206      0.00000
     64      12.4234      0.00000
     65      12.7792      0.00000
     66      12.8836      0.00000

 k-point   111 :       0.2857    0.2857    0.5000
  band No.  band energies     occupation 
      1     -53.8580      2.00000
      2     -53.8567      2.00000
      3     -53.5092      2.00000
      4     -53.5000      2.00000
      5     -53.4963      2.00000
      6     -53.4860      2.00000
      7     -27.5097      2.00000
      8     -27.5067      2.00000
      9     -27.5038      2.00000
     10     -27.4808      2.00000
     11     -27.3570      2.00000
     12     -27.3379      2.00000
     13     -27.1485      2.00000
     14     -27.1359      2.00000
     15     -27.1263      2.00000
     16     -27.1139      2.00000
     17     -27.0682      2.00000
     18     -27.0591      2.00000
     19     -27.0351      2.00000
     20     -26.9702      2.00000
     21     -26.8065      2.00000
     22     -26.7118      2.00000
     23     -26.7086      2.00000
     24     -26.6450      2.00000
     25      -1.2715      2.00000
     26      -0.1983      2.00000
     27       0.5402      2.00000
     28       0.5779      2.00000
     29       0.8397      2.00000
     30       1.2934      2.00000
     31       3.7095      2.00000
     32       3.8827      2.00000
     33       4.2778      2.00000
     34       4.3325      2.00000
     35       4.5871      2.00000
     36       4.7587      2.00000
     37       4.9973      2.00000
     38       5.0400      2.00000
     39       5.3868      2.00000
     40       5.5727      2.00000
     41       5.8543      2.00000
     42       5.8800      2.00000
     43       6.1302      2.00000
     44       6.1934      2.00000
     45       6.1976      2.00000
     46       6.3759      2.00000
     47       7.1795      2.00000
     48       7.8371      2.00000
     49       7.8732      2.00000
     50       8.0367      2.00000
     51       8.2514      2.00000
     52       8.7668      2.00000
     53       8.7677      2.00000
     54       8.9129      2.00000
     55       9.4608      0.00000
     56       9.4842      0.00000
     57       9.8145      0.00000
     58      10.5194      0.00000
     59      10.6764      0.00000
     60      10.9615      0.00000
     61      11.1854      0.00000
     62      11.5187      0.00000
     63      11.6382      0.00000
     64      11.8438      0.00000
     65      11.9047      0.00000
     66      12.1392      0.00000

 k-point   112 :       0.4286    0.2857    0.5000
  band No.  band energies     occupation 
      1     -53.8577      2.00000
      2     -53.8566      2.00000
      3     -53.5109      2.00000
      4     -53.5008      2.00000
      5     -53.4960      2.00000
      6     -53.4843      2.00000
      7     -27.4978      2.00000
      8     -27.4934      2.00000
      9     -27.4890      2.00000
     10     -27.4766      2.00000
     11     -27.3329      2.00000
     12     -27.3199      2.00000
     13     -27.1585      2.00000
     14     -27.1528      2.00000
     15     -27.1325      2.00000
     16     -27.1270      2.00000
     17     -27.0914      2.00000
     18     -27.0734      2.00000
     19     -27.0595      2.00000
     20     -26.9598      2.00000
     21     -26.8164      2.00000
     22     -26.7165      2.00000
     23     -26.6963      2.00000
     24     -26.6350      2.00000
     25      -1.0328      2.00000
     26      -0.2185      2.00000
     27       0.3712      2.00000
     28       0.5111      2.00000
     29       1.1492      2.00000
     30       1.1873      2.00000
     31       3.8241      2.00000
     32       3.9666      2.00000
     33       4.2333      2.00000
     34       4.4215      2.00000
     35       4.6556      2.00000
     36       4.7188      2.00000
     37       4.9508      2.00000
     38       5.0112      2.00000
     39       5.1572      2.00000
     40       5.5227      2.00000
     41       5.6046      2.00000
     42       5.7231      2.00000
     43       6.0562      2.00000
     44       6.1235      2.00000
     45       6.2155      2.00000
     46       6.3742      2.00000
     47       7.0896      2.00000
     48       7.5119      2.00000
     49       7.5499      2.00000
     50       7.9755      2.00000
     51       8.3648      2.00000
     52       8.4652      2.00000
     53       8.7511      2.00000
     54       9.0600      0.06071
     55       9.2925      0.00000
     56       9.7623      0.00000
     57      10.0245      0.00000
     58      10.8515      0.00000
     59      10.9247      0.00000
     60      11.0884      0.00000
     61      11.2202      0.00000
     62      11.5277      0.00000
     63      11.8534      0.00000
     64      12.1321      0.00000
     65      12.3761      0.00000
     66      12.6326      0.00000

 k-point   113 :      -0.4286    0.2857    0.5000
  band No.  band energies     occupation 
      1     -53.8573      2.00000
      2     -53.8566      2.00000
      3     -53.5111      2.00000
      4     -53.5010      2.00000
      5     -53.4960      2.00000
      6     -53.4842      2.00000
      7     -27.4875      2.00000
      8     -27.4852      2.00000
      9     -27.4828      2.00000
     10     -27.4710      2.00000
     11     -27.3077      2.00000
     12     -27.3065      2.00000
     13     -27.1722      2.00000
     14     -27.1678      2.00000
     15     -27.1379      2.00000
     16     -27.1321      2.00000
     17     -27.1098      2.00000
     18     -27.0832      2.00000
     19     -27.0644      2.00000
     20     -26.9594      2.00000
     21     -26.8165      2.00000
     22     -26.7164      2.00000
     23     -26.6962      2.00000
     24     -26.6350      2.00000
     25      -0.6801      2.00000
     26      -0.3606      2.00000
     27       0.2125      2.00000
     28       0.4461      2.00000
     29       1.0228      2.00000
     30       1.4837      2.00000
     31       3.9702      2.00000
     32       4.0898      2.00000
     33       4.2078      2.00000
     34       4.4629      2.00000
     35       4.5689      2.00000
     36       4.8095      2.00000
     37       4.8854      2.00000
     38       4.9442      2.00000
     39       5.1449      2.00000
     40       5.2255      2.00000
     41       5.4876      2.00000
     42       5.5805      2.00000
     43       5.8467      2.00000
     44       6.1596      2.00000
     45       6.2400      2.00000
     46       6.5083      2.00000
     47       7.1143      2.00000
     48       7.3243      2.00000
     49       7.3595      2.00000
     50       7.8645      2.00000
     51       8.3092      2.00000
     52       8.3888      2.00000
     53       8.7413      2.00000
     54       9.1243      0.00000
     55       9.2225      0.00000
     56       9.9016      0.00000
     57      10.0991      0.00000
     58      10.9483      0.00000
     59      11.0402      0.00000
     60      11.1175      0.00000
     61      11.4758      0.00000
     62      11.7904      0.00000
     63      11.9820      0.00000
     64      12.4446      0.00000
     65      12.7247      0.00000
     66      12.9059      0.00000

 k-point   114 :      -0.2857    0.2857    0.5000
  band No.  band energies     occupation 
      1     -53.8571      2.00000
      2     -53.8569      2.00000
      3     -53.5097      2.00000
      4     -53.5008      2.00000
      5     -53.4961      2.00000
      6     -53.4856      2.00000
      7     -27.5029      2.00000
      8     -27.4890      2.00000
      9     -27.4779      2.00000
     10     -27.4633      2.00000
     11     -27.3162      2.00000
     12     -27.3067      2.00000
     13     -27.1723      2.00000
     14     -27.1630      2.00000
     15     -27.1434      2.00000
     16     -27.1204      2.00000
     17     -27.1037      2.00000
     18     -27.0888      2.00000
     19     -27.0445      2.00000
     20     -26.9681      2.00000
     21     -26.8066      2.00000
     22     -26.7121      2.00000
     23     -26.7078      2.00000
     24     -26.6450      2.00000
     25      -0.6196      2.00000
     26      -0.3834      2.00000
     27       0.0838      2.00000
     28       0.5030      2.00000
     29       0.9318      2.00000
     30       1.6201      2.00000
     31       3.9232      2.00000
     32       4.1143      2.00000
     33       4.2451      2.00000
     34       4.4355      2.00000
     35       4.6662      2.00000
     36       4.7193      2.00000
     37       4.8893      2.00000
     38       4.8897      2.00000
     39       5.1423      2.00000
     40       5.2118      2.00000
     41       5.3995      2.00000
     42       5.7740      2.00000
     43       6.0456      2.00000
     44       6.0764      2.00000
     45       6.1734      2.00000
     46       6.3959      2.00000
     47       7.2589      2.00000
     48       7.4252      2.00000
     49       7.4468      2.00000
     50       7.6107      2.00000
     51       8.0644      2.00000
     52       8.6469      2.00000
     53       8.9059      2.00000
     54       9.1943      0.00000
     55       9.2396      0.00000
     56       9.9056      0.00000
     57       9.9680      0.00000
     58      10.7155      0.00000
     59      10.8458      0.00000
     60      11.0312      0.00000
     61      11.6668      0.00000
     62      11.7830      0.00000
     63      12.2568      0.00000
     64      12.4403      0.00000
     65      12.6498      0.00000
     66      13.0432      0.00000

 k-point   115 :       0.4286    0.4286    0.5000
  band No.  band energies     occupation 
      1     -53.8575      2.00000
      2     -53.8563      2.00000
      3     -53.5125      2.00000
      4     -53.5006      2.00000
      5     -53.4966      2.00000
      6     -53.4827      2.00000
      7     -27.4833      2.00000
      8     -27.4820      2.00000
      9     -27.4712      2.00000
     10     -27.4659      2.00000
     11     -27.2994      2.00000
     12     -27.2923      2.00000
     13     -27.1759      2.00000
     14     -27.1705      2.00000
     15     -27.1397      2.00000
     16     -27.1353      2.00000
     17     -27.1326      2.00000
     18     -27.0909      2.00000
     19     -27.0866      2.00000
     20     -26.9502      2.00000
     21     -26.8269      2.00000
     22     -26.7043      2.00000
     23     -26.7005      2.00000
     24     -26.6254      2.00000
     25      -0.8173      2.00000
     26       0.0823      2.00000
     27       0.2324      2.00000
     28       0.3088      2.00000
     29       0.9836      2.00000
     30       1.4603      2.00000
     31       3.8026      2.00000
     32       4.1200      2.00000
     33       4.2025      2.00000
     34       4.5022      2.00000
     35       4.5931      2.00000
     36       4.7755      2.00000
     37       4.8742      2.00000
     38       4.9125      2.00000
     39       5.1607      2.00000
     40       5.2059      2.00000
     41       5.2456      2.00000
     42       5.6317      2.00000
     43       5.7615      2.00000
     44       6.2624      2.00000
     45       6.2957      2.00000
     46       6.6920      2.00000
     47       6.9803      2.00000
     48       7.1154      2.00000
     49       7.2536      2.00000
     50       7.9003      2.00000
     51       8.0673      2.00000
     52       8.5199      2.00000
     53       8.6138      2.00000
     54       8.9897      1.99806
     55       9.2679      0.00000
     56      10.0304      0.00000
     57      10.3966      0.00000
     58      11.2094      0.00000
     59      11.3285      0.00000
     60      11.4104      0.00000
     61      11.4493      0.00000
     62      12.0870      0.00000
     63      12.2352      0.00000
     64      12.2692      0.00000
     65      12.6425      0.00000
     66      12.8193      0.00000

 k-point   116 :      -0.4286    0.4286    0.5000
  band No.  band energies     occupation 
      1     -53.8573      2.00000
      2     -53.8563      2.00000
      3     -53.5126      2.00000
      4     -53.5008      2.00000
      5     -53.4966      2.00000
      6     -53.4827      2.00000
      7     -27.4792      2.00000
      8     -27.4775      2.00000
      9     -27.4691      2.00000
     10     -27.4633      2.00000
     11     -27.2810      2.00000
     12     -27.2778      2.00000
     13     -27.1959      2.00000
     14     -27.1836      2.00000
     15     -27.1434      2.00000
     16     -27.1401      2.00000
     17     -27.1333      2.00000
     18     -27.0958      2.00000
     19     -27.0870      2.00000
     20     -26.9501      2.00000
     21     -26.8269      2.00000
     22     -26.7043      2.00000
     23     -26.7004      2.00000
     24     -26.6254      2.00000
     25      -0.6423      2.00000
     26       0.0327      2.00000
     27       0.1771      2.00000
     28       0.2334      2.00000
     29       0.9430      2.00000
     30       1.5807      2.00000
     31       3.8476      2.00000
     32       4.1818      2.00000
     33       4.2329      2.00000
     34       4.5599      2.00000
     35       4.6602      2.00000
     36       4.6848      2.00000
     37       4.8897      2.00000
     38       4.9522      2.00000
     39       4.9987      2.00000
     40       5.0567      2.00000
     41       5.1290      2.00000
     42       5.6157      2.00000
     43       5.7236      2.00000
     44       6.2774      2.00000
     45       6.3131      2.00000
     46       6.8835      2.00000
     47       6.9915      2.00000
     48       7.0284      2.00000
     49       7.0475      2.00000
     50       7.8634      2.00000
     51       8.0334      2.00000
     52       8.5003      2.00000
     53       8.6058      2.00000
     54       8.9118      2.00000
     55       9.3191      0.00000
     56      10.0520      0.00000
     57      10.4118      0.00000
     58      11.3469      0.00000
     59      11.4155      0.00000
     60      11.4615      0.00000
     61      11.4718      0.00000
     62      12.1500      0.00000
     63      12.2857      0.00000
     64      12.4388      0.00000
     65      12.4842      0.00000
     66      13.2628      0.00000


--------------------------------------------------------------------------------------------------------


 soft charge-density along one line, spin component           1
         0         1         2         3         4         5         6         7         8         9
 total charge-density along one line
 
 pseudopotential strength for first ion, spin component:           1
  5.960   9.030  -0.000  -0.000  -0.000  -0.000  -0.000  -0.000
  9.030  13.670  -0.000  -0.000  -0.000  -0.000  -0.000  -0.000
 -0.000  -0.000  -1.963   0.001  -0.000  -3.273   0.002  -0.001
 -0.000  -0.000   0.001  -1.963   0.001   0.002  -3.274   0.001
 -0.000  -0.000  -0.000   0.001  -1.963  -0.001   0.001  -3.273
 -0.000  -0.000  -3.273   0.002  -0.001  -5.246   0.003  -0.002
 -0.000  -0.000   0.002  -3.274   0.001   0.003  -5.247   0.002
 -0.000  -0.000  -0.001   0.001  -3.273  -0.002   0.002  -5.244
 total augmentation occupancy for first ion, spin component:           1
  3.507  -0.838   0.000   0.000   0.000   0.000   0.000   0.000
 -0.838   0.209   0.000   0.000   0.000   0.000   0.000   0.000
  0.000   0.000   2.469  -0.044   0.026  -0.631   0.014  -0.008
  0.000   0.000  -0.044   2.483  -0.030   0.014  -0.636   0.010
  0.000   0.000   0.026  -0.030   2.450  -0.008   0.010  -0.625
  0.000   0.000  -0.631   0.014  -0.008   0.165  -0.005   0.003
  0.000   0.000   0.014  -0.636   0.010  -0.005   0.167  -0.003
  0.000   0.000  -0.008   0.010  -0.625   0.003  -0.003   0.163


------------------------ aborting loop because EDIFF is reached ----------------------------------------




--------------------------------------------------------------------------------------------------------



  FREE ENERGIE OF THE ION-ELECTRON SYSTEM (eV)
  ---------------------------------------------------
  free  energy   TOTEN  =      -197.00067708 eV

  energy  without entropy=     -196.99940440  energy(sigma->0) =     -197.00004074
 


--------------------------------------------------------------------------------------------------------


    POTLOK:  cpu time    0.8837: real time    0.8898


--------------------------------------------------------------------------------------------------------


 writing wavefunctions
     LOOP+:  cpu time 1541.3796: real time 1562.6301
    4ORBIT:  cpu time    0.0000: real time    0.0000

 total amount of memory used by VASP MPI-rank0   416711. kBytes
=======================================================================

   base      :      30000. kBytes
   nonl-proj :     158155. kBytes
   fftplans  :      17765. kBytes
   grid      :      13358. kBytes
   one-center:         93. kBytes
   wavefun   :     197340. kBytes
 
  
  
 General timing and accounting informations for this job:
 ========================================================
  
                  Total CPU time used (sec):     1549.592
                            User time (sec):     1500.572
                          System time (sec):       49.020
                         Elapsed time (sec):     1572.143
  
                   Maximum memory used (kb):      642432.
                   Average memory used (kb):          N/A
  
                          Minor page faults:      5390622
                          Major page faults:           26
                 Voluntary context switches:        14525
