<?xml version="1.0" encoding="ISO-8859-1"?>
<modeling>
 <generator>
  <i name="program" type="string">vasp </i>
  <i name="version" type="string">6.2.0  </i>
  <i name="subversion" type="string">18Jan21 (build Jan 05 2022 15:41:44) complex                          parallel </i>
  <i name="platform" type="string">LinuxIFC </i>
  <i name="date" type="string">2025 05 07 </i>
  <i name="time" type="string">21:11:25 </i>
 </generator>
 <incar>
  <i type="string" name="SYSTEM">routine with relax: pwdword</i>
  <i type="string" name="PREC">Acc</i>
  <i type="int" name="IALGO">    38</i>
  <i type="string" name="ALGO">A</i>
  <i type="logical" name="ADDGRID"> T  </i>
  <i type="int" name="ICHARG">     2</i>
  <i type="int" name="NELM">   100</i>
  <i type="int" name="NELMIN">     6</i>
  <i name="EDIFF">      0.00000000</i>
  <i type="int" name="NSW">     0</i>
  <i type="int" name="ISIF">    -1</i>
  <i name="SYMPREC">      0.00010000</i>
  <i name="ENCUT">    600.00000000</i>
  <i type="logical" name="LREAL"> F  </i>
  <i type="int" name="ISMEAR">     0</i>
  <i name="SIGMA">      0.02000000</i>
  <i type="logical" name="LASPH"> T  </i>
  <i type="string" name="METAGGA">R2SCAN</i>
  <i type="logical" name="LMIXTAU"> F  </i>
 </incar>
 <primitive_cell>
  <structure name="primitive_cell" >
   <crystal>
    <varray name="basis" >
     <v>       5.01732736       0.00000000      -2.78401254 </v>
     <v>      -1.73923620       4.70623324      -2.78401254 </v>
     <v>       0.00000000       0.00000000       5.73797000 </v>
    </varray>
    <i name="volume">    135.48903777 </i>
    <varray name="rec_basis" >
     <v>       0.19930930       0.07365677       0.00000000 </v>
     <v>       0.00000000       0.21248416       0.00000000 </v>
     <v>       0.09670312       0.13883306       0.17427766 </v>
    </varray>
   </crystal>
   <varray name="positions" >
    <v>       0.50000000       0.50000000       0.50000000 </v>
    <v>       0.50000000       0.00000000       0.00000000 </v>
    <v>       0.00000000       0.00000000       0.50000000 </v>
    <v>       0.00000000       0.50000000       1.00000000 </v>
    <v>       0.25000000       0.25000000       0.00000000 </v>
    <v>       0.21535000       0.71535000       0.93070000 </v>
    <v>       0.75000000       0.75000000       0.00000000 </v>
    <v>       0.78465000       0.28465000       0.06930000 </v>
    <v>       0.71535000       0.78465000       0.50000000 </v>
    <v>       0.28465000       0.21535000       0.50000000 </v>
    <v>       0.22689000       0.27311000       0.50000000 </v>
    <v>       0.77311000       0.72689000       0.50000000 </v>
    <v>       0.27311000       0.77311000       0.04622000 </v>
    <v>       0.72689000       0.22689000       0.95378000 </v>
   </varray>
  </structure>
  <varray name="primitive_index" >
   <v type="int" >        1 </v>
   <v type="int" >        2 </v>
   <v type="int" >        3 </v>
   <v type="int" >        4 </v>
   <v type="int" >        5 </v>
   <v type="int" >        6 </v>
   <v type="int" >        7 </v>
   <v type="int" >        8 </v>
   <v type="int" >        9 </v>
   <v type="int" >       10 </v>
   <v type="int" >       11 </v>
   <v type="int" >       12 </v>
   <v type="int" >       13 </v>
   <v type="int" >       14 </v>
  </varray>
 </primitive_cell>
 <kpoints>
  <generation param="Gamma">
   <v type="int" name="divisions">       8        8        9 </v>
   <v name="usershift">      0.00000000       0.00000000       0.00000000 </v>
   <v name="genvec1">      0.12500000       0.00000000       0.00000000 </v>
   <v name="genvec2">      0.00000000       0.12500000       0.00000000 </v>
   <v name="genvec3">      0.00000000      -0.00000000       0.11111111 </v>
   <v name="shift">      0.00000000       0.00000000       0.00000000 </v>
  </generation>
  <varray name="kpointlist" >
   <v>       0.00000000       0.00000000       0.00000000 </v>
   <v>       0.12500000      -0.00000000       0.00000000 </v>
   <v>       0.25000000      -0.00000000       0.00000000 </v>
   <v>       0.37500000      -0.00000000       0.00000000 </v>
   <v>       0.50000000      -0.00000000       0.00000000 </v>
   <v>       0.12500000       0.12500000       0.00000000 </v>
   <v>       0.25000000       0.12500000       0.00000000 </v>
   <v>       0.37500000       0.12500000       0.00000000 </v>
   <v>       0.50000000       0.12500000       0.00000000 </v>
   <v>      -0.37500000       0.12500000       0.00000000 </v>
   <v>      -0.25000000       0.12500000       0.00000000 </v>
   <v>      -0.12500000       0.12500000       0.00000000 </v>
   <v>       0.25000000       0.25000000       0.00000000 </v>
   <v>       0.37500000       0.25000000       0.00000000 </v>
   <v>       0.50000000       0.25000000       0.00000000 </v>
   <v>      -0.37500000       0.25000000       0.00000000 </v>
   <v>      -0.25000000       0.25000000       0.00000000 </v>
   <v>       0.37500000       0.37500000       0.00000000 </v>
   <v>       0.50000000       0.37500000       0.00000000 </v>
   <v>      -0.37500000       0.37500000       0.00000000 </v>
   <v>       0.50000000       0.50000000       0.00000000 </v>
   <v>       0.00000000      -0.00000000       0.11111111 </v>
   <v>       0.12500000      -0.00000000       0.11111111 </v>
   <v>       0.25000000      -0.00000000       0.11111111 </v>
   <v>       0.37500000      -0.00000000       0.11111111 </v>
   <v>       0.50000000      -0.00000000       0.11111111 </v>
   <v>      -0.37500000       0.00000000       0.11111111 </v>
   <v>      -0.25000000       0.00000000       0.11111111 </v>
   <v>      -0.12500000      -0.00000000       0.11111111 </v>
   <v>       0.12500000       0.12500000       0.11111111 </v>
   <v>       0.25000000       0.12500000       0.11111111 </v>
   <v>       0.37500000       0.12500000       0.11111111 </v>
   <v>       0.50000000       0.12500000       0.11111111 </v>
   <v>      -0.37500000       0.12500000       0.11111111 </v>
   <v>      -0.25000000       0.12500000       0.11111111 </v>
   <v>      -0.12500000       0.12500000       0.11111111 </v>
   <v>       0.25000000       0.25000000       0.11111111 </v>
   <v>       0.37500000       0.25000000       0.11111111 </v>
   <v>       0.50000000       0.25000000       0.11111111 </v>
   <v>      -0.37500000       0.25000000       0.11111111 </v>
   <v>      -0.25000000       0.25000000       0.11111111 </v>
   <v>      -0.12500000       0.25000000       0.11111111 </v>
   <v>       0.37500000       0.37500000       0.11111111 </v>
   <v>       0.50000000       0.37500000       0.11111111 </v>
   <v>      -0.37500000       0.37500000       0.11111111 </v>
   <v>      -0.25000000       0.37500000       0.11111111 </v>
   <v>      -0.12500000       0.37500000       0.11111111 </v>
   <v>       0.50000000       0.50000000       0.11111111 </v>
   <v>      -0.37500000       0.50000000       0.11111111 </v>
   <v>      -0.25000000       0.50000000       0.11111111 </v>
   <v>      -0.12500000       0.50000000       0.11111111 </v>
   <v>      -0.37500000      -0.37500000       0.11111111 </v>
   <v>      -0.25000000      -0.37500000       0.11111111 </v>
   <v>      -0.12500000      -0.37500000       0.11111111 </v>
   <v>      -0.25000000      -0.25000000       0.11111111 </v>
   <v>      -0.12500000      -0.25000000       0.11111111 </v>
   <v>      -0.12500000      -0.12500000       0.11111111 </v>
   <v>       0.00000000      -0.00000000       0.22222222 </v>
   <v>       0.12500000      -0.00000000       0.22222222 </v>
   <v>       0.25000000      -0.00000000       0.22222222 </v>
   <v>       0.37500000      -0.00000000       0.22222222 </v>
   <v>       0.50000000      -0.00000000       0.22222222 </v>
   <v>      -0.37500000       0.00000000       0.22222222 </v>
   <v>      -0.25000000      -0.00000000       0.22222222 </v>
   <v>      -0.12500000      -0.00000000       0.22222222 </v>
   <v>       0.12500000       0.12500000       0.22222222 </v>
   <v>       0.25000000       0.12500000       0.22222222 </v>
   <v>       0.37500000       0.12500000       0.22222222 </v>
   <v>       0.50000000       0.12500000       0.22222222 </v>
   <v>      -0.37500000       0.12500000       0.22222222 </v>
   <v>      -0.25000000       0.12500000       0.22222222 </v>
   <v>      -0.12500000       0.12500000       0.22222222 </v>
   <v>       0.25000000       0.25000000       0.22222222 </v>
   <v>       0.37500000       0.25000000       0.22222222 </v>
   <v>       0.50000000       0.25000000       0.22222222 </v>
   <v>      -0.37500000       0.25000000       0.22222222 </v>
   <v>      -0.25000000       0.25000000       0.22222222 </v>
   <v>      -0.12500000       0.25000000       0.22222222 </v>
   <v>       0.37500000       0.37500000       0.22222222 </v>
   <v>       0.50000000       0.37500000       0.22222222 </v>
   <v>      -0.37500000       0.37500000       0.22222222 </v>
   <v>      -0.25000000       0.37500000       0.22222222 </v>
   <v>      -0.12500000       0.37500000       0.22222222 </v>
   <v>       0.50000000       0.50000000       0.22222222 </v>
   <v>      -0.37500000       0.50000000       0.22222222 </v>
   <v>      -0.25000000       0.50000000       0.22222222 </v>
   <v>      -0.12500000       0.50000000       0.22222222 </v>
   <v>      -0.37500000      -0.37500000       0.22222222 </v>
   <v>      -0.25000000      -0.37500000       0.22222222 </v>
   <v>      -0.12500000      -0.37500000       0.22222222 </v>
   <v>      -0.25000000      -0.25000000       0.22222222 </v>
   <v>      -0.12500000      -0.25000000       0.22222222 </v>
   <v>      -0.12500000      -0.12500000       0.22222222 </v>
   <v>       0.00000000      -0.00000000       0.33333333 </v>
   <v>       0.12500000      -0.00000000       0.33333333 </v>
   <v>       0.25000000      -0.00000000       0.33333333 </v>
   <v>       0.37500000      -0.00000000       0.33333333 </v>
   <v>       0.50000000      -0.00000000       0.33333333 </v>
   <v>      -0.37500000       0.00000000       0.33333333 </v>
   <v>      -0.25000000      -0.00000000       0.33333333 </v>
   <v>      -0.12500000      -0.00000000       0.33333333 </v>
   <v>       0.12500000       0.12500000       0.33333333 </v>
   <v>       0.25000000       0.12500000       0.33333333 </v>
   <v>       0.37500000       0.12500000       0.33333333 </v>
   <v>       0.50000000       0.12500000       0.33333333 </v>
   <v>      -0.37500000       0.12500000       0.33333333 </v>
   <v>      -0.25000000       0.12500000       0.33333333 </v>
   <v>      -0.12500000       0.12500000       0.33333333 </v>
   <v>       0.25000000       0.25000000       0.33333333 </v>
   <v>       0.37500000       0.25000000       0.33333333 </v>
   <v>       0.50000000       0.25000000       0.33333333 </v>
   <v>      -0.37500000       0.25000000       0.33333333 </v>
   <v>      -0.25000000       0.25000000       0.33333333 </v>
   <v>      -0.12500000       0.25000000       0.33333333 </v>
   <v>       0.37500000       0.37500000       0.33333333 </v>
   <v>       0.50000000       0.37500000       0.33333333 </v>
   <v>      -0.37500000       0.37500000       0.33333333 </v>
   <v>      -0.25000000       0.37500000       0.33333333 </v>
   <v>      -0.12500000       0.37500000       0.33333333 </v>
   <v>       0.50000000       0.50000000       0.33333333 </v>
   <v>      -0.37500000       0.50000000       0.33333333 </v>
   <v>      -0.25000000       0.50000000       0.33333333 </v>
   <v>      -0.12500000       0.50000000       0.33333333 </v>
   <v>      -0.37500000      -0.37500000       0.33333333 </v>
   <v>      -0.25000000      -0.37500000       0.33333333 </v>
   <v>      -0.12500000      -0.37500000       0.33333333 </v>
   <v>      -0.25000000      -0.25000000       0.33333333 </v>
   <v>      -0.12500000      -0.25000000       0.33333333 </v>
   <v>      -0.12500000      -0.12500000       0.33333333 </v>
   <v>       0.00000000      -0.00000000       0.44444444 </v>
   <v>       0.12500000      -0.00000000       0.44444444 </v>
   <v>       0.25000000      -0.00000000       0.44444444 </v>
   <v>       0.37500000      -0.00000000       0.44444444 </v>
   <v>       0.50000000      -0.00000000       0.44444444 </v>
   <v>      -0.37500000      -0.00000000       0.44444444 </v>
   <v>      -0.25000000      -0.00000000       0.44444444 </v>
   <v>      -0.12500000      -0.00000000       0.44444444 </v>
   <v>       0.12500000       0.12500000       0.44444444 </v>
   <v>       0.25000000       0.12500000       0.44444444 </v>
   <v>       0.37500000       0.12500000       0.44444444 </v>
   <v>       0.50000000       0.12500000       0.44444444 </v>
   <v>      -0.37500000       0.12500000       0.44444444 </v>
   <v>      -0.25000000       0.12500000       0.44444444 </v>
   <v>      -0.12500000       0.12500000       0.44444444 </v>
   <v>       0.25000000       0.25000000       0.44444444 </v>
   <v>       0.37500000       0.25000000       0.44444444 </v>
   <v>       0.50000000       0.25000000       0.44444444 </v>
   <v>      -0.37500000       0.25000000       0.44444444 </v>
   <v>      -0.25000000       0.25000000       0.44444444 </v>
   <v>      -0.12500000       0.25000000       0.44444444 </v>
   <v>       0.37500000       0.37500000       0.44444444 </v>
   <v>       0.50000000       0.37500000       0.44444444 </v>
   <v>      -0.37500000       0.37500000       0.44444444 </v>
   <v>      -0.25000000       0.37500000       0.44444444 </v>
   <v>      -0.12500000       0.37500000       0.44444444 </v>
   <v>       0.50000000       0.50000000       0.44444444 </v>
   <v>      -0.37500000       0.50000000       0.44444444 </v>
   <v>      -0.25000000       0.50000000       0.44444444 </v>
   <v>      -0.12500000       0.50000000       0.44444444 </v>
   <v>      -0.37500000      -0.37500000       0.44444444 </v>
   <v>      -0.25000000      -0.37500000       0.44444444 </v>
   <v>      -0.12500000      -0.37500000       0.44444444 </v>
   <v>      -0.25000000      -0.25000000       0.44444444 </v>
   <v>      -0.12500000      -0.25000000       0.44444444 </v>
   <v>      -0.12500000      -0.12500000       0.44444444 </v>
  </varray>
  <varray name="weights" >
   <v>       0.00173611 </v>
   <v>       0.00694444 </v>
   <v>       0.00694444 </v>
   <v>       0.00694444 </v>
   <v>       0.00347222 </v>
   <v>       0.00347222 </v>
   <v>       0.00694444 </v>
   <v>       0.00694444 </v>
   <v>       0.00694444 </v>
   <v>       0.00694444 </v>
   <v>       0.00694444 </v>
   <v>       0.00347222 </v>
   <v>       0.00347222 </v>
   <v>       0.00694444 </v>
   <v>       0.00694444 </v>
   <v>       0.00694444 </v>
   <v>       0.00347222 </v>
   <v>       0.00347222 </v>
   <v>       0.00694444 </v>
   <v>       0.00347222 </v>
   <v>       0.00173611 </v>
   <v>       0.00347222 </v>
   <v>       0.00694444 </v>
   <v>       0.00694444 </v>
   <v>       0.00694444 </v>
   <v>       0.00694444 </v>
   <v>       0.00694444 </v>
   <v>       0.00694444 </v>
   <v>       0.00694444 </v>
   <v>       0.00347222 </v>
   <v>       0.00694444 </v>
   <v>       0.00694444 </v>
   <v>       0.00694444 </v>
   <v>       0.00694444 </v>
   <v>       0.00694444 </v>
   <v>       0.00694444 </v>
   <v>       0.00347222 </v>
   <v>       0.00694444 </v>
   <v>       0.00694444 </v>
   <v>       0.00694444 </v>
   <v>       0.00694444 </v>
   <v>       0.00694444 </v>
   <v>       0.00347222 </v>
   <v>       0.00694444 </v>
   <v>       0.00694444 </v>
   <v>       0.00694444 </v>
   <v>       0.00694444 </v>
   <v>       0.00347222 </v>
   <v>       0.00694444 </v>
   <v>       0.00694444 </v>
   <v>       0.00694444 </v>
   <v>       0.00347222 </v>
   <v>       0.00694444 </v>
   <v>       0.00694444 </v>
   <v>       0.00347222 </v>
   <v>       0.00694444 </v>
   <v>       0.00347222 </v>
   <v>       0.00347222 </v>
   <v>       0.00694444 </v>
   <v>       0.00694444 </v>
   <v>       0.00694444 </v>
   <v>       0.00694444 </v>
   <v>       0.00694444 </v>
   <v>       0.00694444 </v>
   <v>       0.00694444 </v>
   <v>       0.00347222 </v>
   <v>       0.00694444 </v>
   <v>       0.00694444 </v>
   <v>       0.00694444 </v>
   <v>       0.00694444 </v>
   <v>       0.00694444 </v>
   <v>       0.00694444 </v>
   <v>       0.00347222 </v>
   <v>       0.00694444 </v>
   <v>       0.00694444 </v>
   <v>       0.00694444 </v>
   <v>       0.00694444 </v>
   <v>       0.00694444 </v>
   <v>       0.00347222 </v>
   <v>       0.00694444 </v>
   <v>       0.00694444 </v>
   <v>       0.00694444 </v>
   <v>       0.00694444 </v>
   <v>       0.00347222 </v>
   <v>       0.00694444 </v>
   <v>       0.00694444 </v>
   <v>       0.00694444 </v>
   <v>       0.00347222 </v>
   <v>       0.00694444 </v>
   <v>       0.00694444 </v>
   <v>       0.00347222 </v>
   <v>       0.00694444 </v>
   <v>       0.00347222 </v>
   <v>       0.00347222 </v>
   <v>       0.00694444 </v>
   <v>       0.00694444 </v>
   <v>       0.00694444 </v>
   <v>       0.00694444 </v>
   <v>       0.00694444 </v>
   <v>       0.00694444 </v>
   <v>       0.00694444 </v>
   <v>       0.00347222 </v>
   <v>       0.00694444 </v>
   <v>       0.00694444 </v>
   <v>       0.00694444 </v>
   <v>       0.00694444 </v>
   <v>       0.00694444 </v>
   <v>       0.00694444 </v>
   <v>       0.00347222 </v>
   <v>       0.00694444 </v>
   <v>       0.00694444 </v>
   <v>       0.00694444 </v>
   <v>       0.00694444 </v>
   <v>       0.00694444 </v>
   <v>       0.00347222 </v>
   <v>       0.00694444 </v>
   <v>       0.00694444 </v>
   <v>       0.00694444 </v>
   <v>       0.00694444 </v>
   <v>       0.00347222 </v>
   <v>       0.00694444 </v>
   <v>       0.00694444 </v>
   <v>       0.00694444 </v>
   <v>       0.00347222 </v>
   <v>       0.00694444 </v>
   <v>       0.00694444 </v>
   <v>       0.00347222 </v>
   <v>       0.00694444 </v>
   <v>       0.00347222 </v>
   <v>       0.00347222 </v>
   <v>       0.00694444 </v>
   <v>       0.00694444 </v>
   <v>       0.00694444 </v>
   <v>       0.00694444 </v>
   <v>       0.00694444 </v>
   <v>       0.00694444 </v>
   <v>       0.00694444 </v>
   <v>       0.00347222 </v>
   <v>       0.00694444 </v>
   <v>       0.00694444 </v>
   <v>       0.00694444 </v>
   <v>       0.00694444 </v>
   <v>       0.00694444 </v>
   <v>       0.00694444 </v>
   <v>       0.00347222 </v>
   <v>       0.00694444 </v>
   <v>       0.00694444 </v>
   <v>       0.00694444 </v>
   <v>       0.00694444 </v>
   <v>       0.00694444 </v>
   <v>       0.00347222 </v>
   <v>       0.00694444 </v>
   <v>       0.00694444 </v>
   <v>       0.00694444 </v>
   <v>       0.00694444 </v>
   <v>       0.00347222 </v>
   <v>       0.00694444 </v>
   <v>       0.00694444 </v>
   <v>       0.00694444 </v>
   <v>       0.00347222 </v>
   <v>       0.00694444 </v>
   <v>       0.00694444 </v>
   <v>       0.00347222 </v>
   <v>       0.00694444 </v>
   <v>       0.00347222 </v>
  </varray>
 </kpoints>
 <parameters>
  <separator name="general" >
   <i type="string" name="SYSTEM">routine with relax: pwdword</i>
   <i type="logical" name="LCOMPAT"> F  </i>
  </separator>
  <separator name="electronic" >
   <i type="string" name="PREC">acc</i>
   <i name="ENMAX">    600.00000000</i>
   <i name="ENAUG">    535.51400000</i>
   <i name="EDIFF">      0.00000000</i>
   <i type="int" name="IALGO">    58</i>
   <i type="int" name="IWAVPR">    10</i>
   <i type="int" name="NBANDS">    72</i>
   <i type="int" name="NBANDSLOW">    -1</i>
   <i type="int" name="NBANDSHIGH">    -1</i>
   <i name="NELECT">    112.00000000</i>
   <i type="int" name="TURBO">     0</i>
   <i type="int" name="IRESTART">     0</i>
   <i type="int" name="NREBOOT">     0</i>
   <i type="int" name="NMIN">     0</i>
   <i name="EREF">      0.00000000</i>
   <separator name="electronic smearing" >
    <i type="int" name="ISMEAR">     0</i>
    <i name="SIGMA">      0.02000000</i>
    <i name="KSPACING">      0.50000000</i>
    <i type="logical" name="KGAMMA"> T  </i>
    <i type="logical" name="KBLOWUP"> F  </i>
   </separator>
   <separator name="electronic projectors" >
    <i type="logical" name="LREAL"> F  </i>
    <v name="ROPT">      0.00000000      0.00000000      0.00000000</v>
    <i type="int" name="LMAXPAW">  -100</i>
    <i type="int" name="LMAXMIX">     2</i>
    <i type="logical" name="NLSPLINE"> F  </i>
   </separator>
   <separator name="electronic startup" >
    <i type="int" name="ISTART">     0</i>
    <i type="int" name="ICHARG">     2</i>
    <i type="int" name="INIWAV">     1</i>
   </separator>
   <separator name="electronic spin" >
    <i type="int" name="ISPIN">     1</i>
    <i type="logical" name="LNONCOLLINEAR"> F  </i>
    <v name="MAGMOM">      1.00000000      1.00000000      1.00000000      1.00000000      1.00000000      1.00000000      1.00000000      1.00000000      1.00000000      1.00000000      1.00000000      1.00000000      1.00000000      1.00000000</v>
    <i name="NUPDOWN">     -1.00000000</i>
    <i type="logical" name="LSORBIT"> F  </i>
    <v name="SAXIS">      0.00000000      0.00000000      1.00000000</v>
    <i type="logical" name="LSPIRAL"> F  </i>
    <v name="QSPIRAL">      0.00000000      0.00000000      0.00000000</v>
    <i type="logical" name="LZEROZ"> F  </i>
   </separator>
   <separator name="electronic exchange-correlation" >
    <i type="logical" name="LASPH"> T  </i>
    <i type="logical" name="LMETAGGA"> F  </i>
   </separator>
   <separator name="electronic convergence" >
    <i type="int" name="NELM">   100</i>
    <i type="int" name="NELMDL">    -5</i>
    <i type="int" name="NELMIN">     6</i>
    <i name="ENINI">    600.00000000</i>
    <separator name="electronic convergence detail" >
     <i type="logical" name="LDIAG"> T  </i>
     <i type="logical" name="LSUBROT"> F  </i>
     <i name="WEIMIN">      0.00000000</i>
     <i name="EBREAK">      0.00000000</i>
     <i name="DEPER">      0.30000000</i>
     <i type="int" name="NRMM">     4</i>
     <i name="TIME">      0.40000000</i>
    </separator>
   </separator>
   <separator name="electronic mixer" >
    <i name="AMIX">      0.40000000</i>
    <i name="BMIX">      1.00000000</i>
    <i name="AMIN">      0.10000000</i>
    <i name="AMIX_MAG">      1.60000000</i>
    <i name="BMIX_MAG">      1.00000000</i>
    <separator name="electronic mixer details" >
     <i type="int" name="IMIX">     4</i>
     <i type="logical" name="MIXFIRST"> F  </i>
     <i type="int" name="MAXMIX">   -45</i>
     <i name="WC">    100.00000000</i>
     <i type="int" name="INIMIX">     1</i>
     <i type="int" name="MIXPRE">     1</i>
     <i type="int" name="MREMOVE">     5</i>
    </separator>
   </separator>
   <separator name="electronic dipolcorrection" >
    <i type="logical" name="LDIPOL"> F  </i>
    <i type="logical" name="LMONO"> F  </i>
    <i type="int" name="IDIPOL">     0</i>
    <i name="EPSILON">      1.00000000</i>
    <v name="DIPOL">   -100.00000000   -100.00000000   -100.00000000</v>
    <i name="EFIELD">      0.00000000</i>
   </separator>
  </separator>
  <separator name="grids" >
   <i type="int" name="NGX">    48</i>
   <i type="int" name="NGY">    48</i>
   <i type="int" name="NGZ">    48</i>
   <i type="int" name="NGXF">    96</i>
   <i type="int" name="NGYF">    96</i>
   <i type="int" name="NGZF">    96</i>
   <i type="logical" name="ADDGRID"> T  </i>
  </separator>
  <separator name="ionic" >
   <i type="int" name="NSW">     0</i>
   <i type="int" name="IBRION">    -1</i>
   <i type="int" name="MDALGO">     0</i>
   <i type="int" name="ISIF">    -1</i>
   <i name="PSTRESS">      0.00000000</i>
   <i name="EDIFFG">      0.00000001</i>
   <i type="int" name="NFREE">     0</i>
   <i name="POTIM">      0.50000000</i>
   <i name="SMASS">     -3.00000000</i>
   <i name="SCALEE">      1.00000000</i>
  </separator>
  <separator name="ionic md" >
   <i name="TEBEG">      0.00010000</i>
   <i name="TEEND">      0.00010000</i>
   <i type="int" name="NBLOCK">     1</i>
   <i type="int" name="KBLOCK">     1</i>
   <i type="int" name="NPACO">   256</i>
   <i name="APACO">     16.00000000</i>
  </separator>
  <separator name="symmetry" >
   <i type="int" name="ISYM">     2</i>
   <i name="SYMPREC">      0.00010000</i>
  </separator>
  <separator name="dos" >
   <i type="int" name="LORBIT">     0</i>
   <v name="RWIGS">     -1.00000000     -1.00000000     -1.00000000</v>
   <i type="int" name="NEDOS">   301</i>
   <i name="EMIN">     10.00000000</i>
   <i name="EMAX">    -10.00000000</i>
   <i name="EFERMI">      0.00000000</i>
  </separator>
  <separator name="writing" >
   <i type="int" name="NWRITE">     2</i>
   <i type="logical" name="LWAVE"> T  </i>
   <i type="logical" name="LDOWNSAMPLE"> F  </i>
   <i type="logical" name="LCHARG"> T  </i>
   <i type="logical" name="LPARD"> F  </i>
   <i type="logical" name="LVTOT"> F  </i>
   <i type="logical" name="LVHAR"> F  </i>
   <i type="logical" name="LELF"> F  </i>
   <i type="logical" name="LOPTICS"> F  </i>
   <v name="STM">      0.00000000      0.00000000      0.00000000      0.00000000      0.00000000      0.00000000      0.00000000</v>
  </separator>
  <separator name="performance" >
   <i type="int" name="NPAR">     6</i>
   <i type="int" name="NSIM">     4</i>
   <i type="int" name="NBLK">    -1</i>
   <i type="logical" name="LPLANE"> T  </i>
   <i type="logical" name="LSCALAPACK"> T  </i>
   <i type="logical" name="LSCAAWARE"> F  </i>
   <i type="logical" name="LSCALU"> F  </i>
   <i type="logical" name="LASYNC"> F  </i>
   <i type="logical" name="LORBITALREAL"> F  </i>
  </separator>
  <separator name="miscellaneous" >
   <i type="int" name="IDIOT">     3</i>
   <i type="int" name="PHON_NSTRUCT">    -1</i>
   <i type="logical" name="LMUSIC"> F  </i>
   <v name="POMASS">     10.81100000     95.94000000     28.08500000</v>
   <v name="DARWINR">      0.00000000      0.00000000      0.00000000</v>
   <v name="DARWINV">      1.00000000      1.00000000      1.00000000</v>
   <i type="logical" name="LCORR"> T  </i>
  </separator>
  <i type="logical" name="GGA_COMPAT"> T  </i>
  <i type="logical" name="LBERRY"> F  </i>
  <i type="int" name="ICORELEVEL">     0</i>
  <i type="logical" name="LDAU"> F  </i>
  <i type="int" name="I_CONSTRAINED_M">     0</i>
  <separator name="electronic exchange-correlation" >
   <i type="string" name="GGA">--</i>
   <i type="int" name="VOSKOWN">     0</i>
   <i type="logical" name="LHFCALC"> F  </i>
   <i type="string" name="PRECFOCK"></i>
   <i type="logical" name="LSYMGRAD"> F  </i>
   <i type="logical" name="LHFONE"> F  </i>
   <i type="logical" name="LRHFCALC"> F  </i>
   <i type="logical" name="LTHOMAS"> F  </i>
   <i type="logical" name="LMODELHF"> F  </i>
   <i type="logical" name="LFOCKACE"> F  </i>
   <i name="ENCUT4O">     -1.00000000</i>
   <i type="int" name="EXXOEP">     0</i>
   <i type="int" name="FOURORBIT">     0</i>
   <i name="AEXX">      0.00000000</i>
   <i name="HFALPHA">      0.00000000</i>
   <i name="MCALPHA">      0.00000000</i>
   <i name="ALDAX">      1.00000000</i>
   <i name="AGGAX">      1.00000000</i>
   <i name="ALDAC">      1.00000000</i>
   <i name="AGGAC">      1.00000000</i>
   <i type="int" name="NKREDX">     1</i>
   <i type="int" name="NKREDY">     1</i>
   <i type="int" name="NKREDZ">     1</i>
   <i type="logical" name="SHIFTRED"> F  </i>
   <i type="logical" name="ODDONLY"> F  </i>
   <i type="logical" name="EVENONLY"> F  </i>
   <i type="int" name="LMAXFOCK">     0</i>
   <i type="int" name="NMAXFOCKAE">     0</i>
   <i type="logical" name="LFOCKAEDFT"> F  </i>
   <i name="HFSCREEN">      0.00000000</i>
   <i name="HFSCREENC">      0.00000000</i>
   <i type="int" name="NBANDSGWLOW">     0</i>
  </separator>
  <separator name="vdW DFT" >
   <i type="logical" name="LUSE_VDW"> F  </i>
   <i name="Zab_VDW">     -0.84910000</i>
   <i name="PARAM1">      0.12340000</i>
   <i name="PARAM2">      1.00000000</i>
   <i name="PARAM3">      0.00000000</i>
  </separator>
  <separator name="model GW" >
   <i type="int" name="MODEL_GW">     0</i>
   <i name="MODEL_EPS0">      5.80667305</i>
   <i name="MODEL_ALPHA">      1.00000000</i>
  </separator>
  <separator name="linear response parameters" >
   <i type="logical" name="LEPSILON"> F  </i>
   <i type="logical" name="LRPA"> F  </i>
   <i type="logical" name="LNABLA"> F  </i>
   <i type="logical" name="LVEL"> F  </i>
   <i type="int" name="KINTER">     0</i>
   <i name="CSHIFT">      0.10000000</i>
   <i name="OMEGAMAX">     -1.00000000</i>
   <i name="DEG_THRESHOLD">      0.00200000</i>
   <i name="RTIME">     -0.10000000</i>
   <i name="WPLASMAI">      0.00000000</i>
   <v name="DFIELD">      0.00000000      0.00000000      0.00000000</v>
   <v name="WPLASMA">      0.00000000      0.00000000      0.00000000      0.00000000      0.00000000      0.00000000      0.00000000      0.00000000      0.00000000</v>
  </separator>
  <separator name="orbital magnetization" >
   <i type="logical" name="NUCIND"> F  </i>
   <v name="MAGPOS">      0.00000000      0.00000000      0.00000000</v>
   <i type="logical" name="LNICSALL"> T  </i>
   <i type="logical" name="ORBITALMAG"> F  </i>
   <i type="logical" name="LMAGBLOCH"> F  </i>
   <i type="logical" name="LCHIMAG"> F  </i>
   <i type="logical" name="LGAUGE"> T  </i>
   <i type="int" name="MAGATOM">     0</i>
   <v name="MAGDIPOL">      0.00000000      0.00000000      0.00000000</v>
   <v name="AVECCONST">      0.00000000      0.00000000      0.00000000</v>
  </separator>
  <separator name="response functions" >
   <i type="logical" name="LFINITE_TEMPERATURE"> F  </i>
   <i type="logical" name="LADDER"> F  </i>
   <i type="logical" name="LRPAFORCE"> F  </i>
   <i type="logical" name="LFXC"> F  </i>
   <i type="logical" name="LHARTREE"> T  </i>
   <i type="int" name="IBSE">     0</i>
   <v type="int" name="KPOINT">    -1     0     0     0</v>
   <i type="logical" name="LTCTC"> F  </i>
   <i type="logical" name="LTCTE"> F  </i>
   <i type="logical" name="LTETE"> F  </i>
   <i type="logical" name="LTRIPLET"> F  </i>
   <i type="logical" name="LFXCEPS"> F  </i>
   <i type="logical" name="LFXHEG"> F  </i>
   <i type="int" name="NATURALO">     2</i>
   <i type="logical" name="LHOLEGF"> F  </i>
   <i type="logical" name="L2ORDER"> F  </i>
   <i type="logical" name="LDMP1"> F  </i>
   <i type="logical" name="LMP2LT"> F  </i>
   <i type="logical" name="LSMP2LT"> F  </i>
   <i type="logical" name="LGWLF"> F  </i>
   <i name="ENCUTGW">     -2.00000000</i>
   <i name="ENCUTGWSOFT">     -2.00000000</i>
   <i name="ENCUTLF">     -1.00000000</i>
   <i type="logical" name="LESF_SPLINES"> F  </i>
   <i type="int" name="LMAXMP2">    -1</i>
   <i name="SCISSOR">      0.00000000</i>
   <i type="int" name="NOMEGA">     0</i>
   <i type="int" name="NOMEGAR">     0</i>
   <i type="int" name="NBANDSGW">    -1</i>
   <i type="int" name="NBANDSO">    -1</i>
   <i type="int" name="NBANDSV">    -1</i>
   <i type="int" name="NELM">   100</i>
   <i type="int" name="NELMHF">     1</i>
   <i type="int" name="DIM">     3</i>
   <i type="int" name="IESPILON">     4</i>
   <i type="int" name="ANTIRES">     0</i>
   <i name="OMEGAMAX">    -30.00000000</i>
   <i name="OMEGAMIN">    -30.00000000</i>
   <i name="OMEGATL">   -200.00000000</i>
   <i type="int" name="OMEGAGRID">     0</i>
   <i name="CSHIFT">     -0.10000000</i>
   <i type="logical" name="LSELFENERGY"> F  </i>
   <i type="logical" name="LSPECTRAL"> F  </i>
   <i type="logical" name="LSPECTRALGW"> F  </i>
   <i type="logical" name="LSINGLES"> F  </i>
   <i type="logical" name="LFERMIGW"> F  </i>
   <i type="logical" name="ODDONLYGW"> F  </i>
   <i type="logical" name="EVENONLYGW"> F  </i>
   <i type="int" name="NKREDLFX">     1</i>
   <i type="int" name="NKREDLFY">     1</i>
   <i type="int" name="NKREDLFZ">     1</i>
   <i type="int" name="MAXMEM">  2800</i>
   <i type="int" name="TELESCOPE">     0</i>
   <i type="int" name="NTAUPAR">    -1</i>
   <i type="int" name="NOMEGAPAR">    -1</i>
   <i name="DAMP_NEWTON">      0.80000001</i>
   <i name="LAMBDA">      1.00000000</i>
  </separator>
  <separator name="External order field" >
   <i name="OFIELD_KAPPA">      0.00000000</i>
   <v name="OFIELD_K">      0.00000000      0.00000000      0.00000000</v>
   <i name="OFIELD_Q6_NEAR">      0.00000000</i>
   <i name="OFIELD_Q6_FAR">      0.00000000</i>
   <i name="OFIELD_A">      0.00000000</i>
  </separator>
 </parameters>
 <atominfo>
  <atoms>      14 </atoms>
  <types>       3 </types>
  <array name="atoms" >
   <dimension dim="1">ion</dimension>
   <field type="string">element</field>
   <field type="int">atomtype</field>
   <set>
    <rc><c>B </c><c>   1</c></rc>
    <rc><c>B </c><c>   1</c></rc>
    <rc><c>B </c><c>   1</c></rc>
    <rc><c>B </c><c>   1</c></rc>
    <rc><c>Mo</c><c>   2</c></rc>
    <rc><c>Mo</c><c>   2</c></rc>
    <rc><c>Mo</c><c>   2</c></rc>
    <rc><c>Mo</c><c>   2</c></rc>
    <rc><c>Mo</c><c>   2</c></rc>
    <rc><c>Mo</c><c>   2</c></rc>
    <rc><c>Si</c><c>   3</c></rc>
    <rc><c>Si</c><c>   3</c></rc>
    <rc><c>Si</c><c>   3</c></rc>
    <rc><c>Si</c><c>   3</c></rc>
   </set>
  </array>
  <array name="atomtypes" >
   <dimension dim="1">type</dimension>
   <field type="int">atomspertype</field>
   <field type="string">element</field>
   <field>mass</field>
   <field>valence</field>
   <field type="string">pseudopotential</field>
   <set>
    <rc><c>   4</c><c>B </c><c>     10.81100000</c><c>      3.00000000</c><c>  PAW_PBE B 06Sep2000                   </c></rc>
    <rc><c>   6</c><c>Mo</c><c>     95.94000000</c><c>     14.00000000</c><c>  PAW_PBE Mo_sv 02Feb2006               </c></rc>
    <rc><c>   4</c><c>Si</c><c>     28.08500000</c><c>      4.00000000</c><c>  PAW_PBE Si 05Jan2001                  </c></rc>
   </set>
  </array>
 </atominfo>
 <structure name="initialpos" >
  <crystal>
   <varray name="basis" >
    <v>       5.01732736       0.00000000      -2.78401254 </v>
    <v>      -1.73923620       4.70623324      -2.78401254 </v>
    <v>       0.00000000       0.00000000       5.73797000 </v>
   </varray>
   <i name="volume">    135.48903777 </i>
   <varray name="rec_basis" >
    <v>       0.19930930       0.07365677       0.00000000 </v>
    <v>       0.00000000       0.21248416       0.00000000 </v>
    <v>       0.09670312       0.13883306       0.17427766 </v>
   </varray>
  </crystal>
  <varray name="positions" >
   <v>       0.50000000       0.50000000       0.50000000 </v>
   <v>       0.50000000       0.00000000       0.00000000 </v>
   <v>       0.00000000       0.00000000       0.50000000 </v>
   <v>       0.00000000       0.50000000       0.00000000 </v>
   <v>       0.25000000       0.25000000       0.00000000 </v>
   <v>       0.21535000       0.71535000       0.93070000 </v>
   <v>       0.75000000       0.75000000       0.00000000 </v>
   <v>       0.78465000       0.28465000       0.06930000 </v>
   <v>       0.71535000       0.78465000       0.50000000 </v>
   <v>       0.28465000       0.21535000       0.50000000 </v>
   <v>       0.22689000       0.27311000       0.50000000 </v>
   <v>       0.77311000       0.72689000       0.50000000 </v>
   <v>       0.27311000       0.77311000       0.04622000 </v>
   <v>       0.72689000       0.22689000       0.95378000 </v>
  </varray>
 </structure>
 <calculation>
  <scstep>
   <time name="total">   29.12   29.39</time>
   <energy>
    <i name="alphaZ">    756.52764273 </i>
    <i name="ewald">  -6014.41792201 </i>
    <i name="hartreedc">  -2652.31106402 </i>
    <i name="XCdc">    491.21799637 </i>
    <i name="pawpsdc">   9416.99506030 </i>
    <i name="pawaedc">  -9355.19475361 </i>
    <i name="eentropy">     -0.00032967 </i>
    <i name="bandstr">   -908.13919954 </i>
    <i name="atom">  11870.63976582 </i>
    <i name="e_fr_energy">   3605.31719636 </i>
    <i name="e_wo_entrp">   3605.31752604 </i>
    <i name="e_0_energy">   3605.31736120 </i>
   </energy>
  </scstep>
  <scstep>
   <time name="total">   28.05   28.31</time>
   <energy>
    <i name="e_fr_energy">   2078.16034066 </i>
    <i name="e_wo_entrp">   2078.16107092 </i>
    <i name="e_0_energy">   2078.16070579 </i>
   </energy>
  </scstep>
  <scstep>
   <time name="total">   30.10   30.37</time>
   <energy>
    <i name="e_fr_energy">   2014.42527424 </i>
    <i name="e_wo_entrp">   2014.42685813 </i>
    <i name="e_0_energy">   2014.42606619 </i>
   </energy>
  </scstep>
  <scstep>
   <time name="total">   29.01   29.28</time>
   <energy>
    <i name="e_fr_energy">   2012.98296207 </i>
    <i name="e_wo_entrp">   2012.98464790 </i>
    <i name="e_0_energy">   2012.98380499 </i>
   </energy>
  </scstep>
  <scstep>
   <time name="total">   33.89   34.18</time>
   <energy>
    <i name="e_fr_energy">   2012.92729937 </i>
    <i name="e_wo_entrp">   2012.92896427 </i>
    <i name="e_0_energy">   2012.92813182 </i>
   </energy>
  </scstep>
  <scstep>
   <time name="total">   31.31   31.56</time>
   <energy>
    <i name="e_fr_energy">   2869.85419264 </i>
    <i name="e_wo_entrp">   2869.85535212 </i>
    <i name="e_0_energy">   2869.85477238 </i>
   </energy>
  </scstep>
  <scstep>
   <time name="total">   31.24   31.49</time>
   <energy>
    <i name="e_fr_energy">   2499.96905421 </i>
    <i name="e_wo_entrp">   2499.97092145 </i>
    <i name="e_0_energy">   2499.96998783 </i>
   </energy>
  </scstep>
  <scstep>
   <time name="total">   31.15   31.39</time>
   <energy>
    <i name="e_fr_energy">   2441.34844147 </i>
    <i name="e_wo_entrp">   2441.34969218 </i>
    <i name="e_0_energy">   2441.34906682 </i>
   </energy>
  </scstep>
  <scstep>
   <time name="total">   31.03   31.28</time>
   <energy>
    <i name="e_fr_energy">   2418.83286830 </i>
    <i name="e_wo_entrp">   2418.83362741 </i>
    <i name="e_0_energy">   2418.83324785 </i>
   </energy>
  </scstep>
  <scstep>
   <time name="total">   30.86   31.11</time>
   <energy>
    <i name="e_fr_energy">   2407.99390160 </i>
    <i name="e_wo_entrp">   2407.99499408 </i>
    <i name="e_0_energy">   2407.99444784 </i>
   </energy>
  </scstep>
  <scstep>
   <time name="total">   30.87   31.13</time>
   <energy>
    <i name="e_fr_energy">   2403.95090266 </i>
    <i name="e_wo_entrp">   2403.95201163 </i>
    <i name="e_0_energy">   2403.95145715 </i>
   </energy>
  </scstep>
  <scstep>
   <time name="total">   30.92   31.18</time>
   <energy>
    <i name="e_fr_energy">   2401.74403604 </i>
    <i name="e_wo_entrp">   2401.74524477 </i>
    <i name="e_0_energy">   2401.74464041 </i>
   </energy>
  </scstep>
  <scstep>
   <time name="total">   30.84   31.09</time>
   <energy>
    <i name="e_fr_energy">   2400.51324286 </i>
    <i name="e_wo_entrp">   2400.51439840 </i>
    <i name="e_0_energy">   2400.51382063 </i>
   </energy>
  </scstep>
  <scstep>
   <time name="total">   31.03   31.28</time>
   <energy>
    <i name="e_fr_energy">   2399.84714188 </i>
    <i name="e_wo_entrp">   2399.84835640 </i>
    <i name="e_0_energy">   2399.84774914 </i>
   </energy>
  </scstep>
  <scstep>
   <time name="total">   31.04   31.30</time>
   <energy>
    <i name="e_fr_energy">   2399.51673078 </i>
    <i name="e_wo_entrp">   2399.51799552 </i>
    <i name="e_0_energy">   2399.51736315 </i>
   </energy>
  </scstep>
  <scstep>
   <time name="total">   31.18   31.43</time>
   <energy>
    <i name="e_fr_energy">   2399.31742605 </i>
    <i name="e_wo_entrp">   2399.31860997 </i>
    <i name="e_0_energy">   2399.31801801 </i>
   </energy>
  </scstep>
  <scstep>
   <time name="total">   31.16   31.41</time>
   <energy>
    <i name="e_fr_energy">   2399.21951666 </i>
    <i name="e_wo_entrp">   2399.22064297 </i>
    <i name="e_0_energy">   2399.22007981 </i>
   </energy>
  </scstep>
  <scstep>
   <time name="total">   30.94   31.19</time>
   <energy>
    <i name="e_fr_energy">   2399.16126906 </i>
    <i name="e_wo_entrp">   2399.16229244 </i>
    <i name="e_0_energy">   2399.16178075 </i>
   </energy>
  </scstep>
  <scstep>
   <time name="total">   30.87   31.13</time>
   <energy>
    <i name="e_fr_energy">   2399.13283684 </i>
    <i name="e_wo_entrp">   2399.13388838 </i>
    <i name="e_0_energy">   2399.13336261 </i>
   </energy>
  </scstep>
  <scstep>
   <time name="total">   30.78   31.03</time>
   <energy>
    <i name="e_fr_energy">   2399.11548468 </i>
    <i name="e_wo_entrp">   2399.11660117 </i>
    <i name="e_0_energy">   2399.11604293 </i>
   </energy>
  </scstep>
  <scstep>
   <time name="total">   31.05   31.30</time>
   <energy>
    <i name="e_fr_energy">   2399.10668262 </i>
    <i name="e_wo_entrp">   2399.10783967 </i>
    <i name="e_0_energy">   2399.10726115 </i>
   </energy>
  </scstep>
  <scstep>
   <time name="total">   31.02   31.27</time>
   <energy>
    <i name="e_fr_energy">   2399.10194274 </i>
    <i name="e_wo_entrp">   2399.10311266 </i>
    <i name="e_0_energy">   2399.10252770 </i>
   </energy>
  </scstep>
  <scstep>
   <time name="total">   30.86   31.12</time>
   <energy>
    <i name="e_fr_energy">   2399.09974938 </i>
    <i name="e_wo_entrp">   2399.10091015 </i>
    <i name="e_0_energy">   2399.10032977 </i>
   </energy>
  </scstep>
  <scstep>
   <time name="total">   31.43   31.69</time>
   <energy>
    <i name="e_fr_energy">   2399.09841805 </i>
    <i name="e_wo_entrp">   2399.09956223 </i>
    <i name="e_0_energy">   2399.09899014 </i>
   </energy>
  </scstep>
  <scstep>
   <time name="total">   31.30   31.57</time>
   <energy>
    <i name="e_fr_energy">   2399.09775378 </i>
    <i name="e_wo_entrp">   2399.09888516 </i>
    <i name="e_0_energy">   2399.09831947 </i>
   </energy>
  </scstep>
  <scstep>
   <time name="total">   30.93   31.21</time>
   <energy>
    <i name="e_fr_energy">   2399.09736656 </i>
    <i name="e_wo_entrp">   2399.09849173 </i>
    <i name="e_0_energy">   2399.09792915 </i>
   </energy>
  </scstep>
  <scstep>
   <time name="total">   31.05   31.34</time>
   <energy>
    <i name="e_fr_energy">   2399.09717574 </i>
    <i name="e_wo_entrp">   2399.09829485 </i>
    <i name="e_0_energy">   2399.09773530 </i>
   </energy>
  </scstep>
  <scstep>
   <time name="total">   30.95   31.24</time>
   <energy>
    <i name="e_fr_energy">   2399.09706049 </i>
    <i name="e_wo_entrp">   2399.09817543 </i>
    <i name="e_0_energy">   2399.09761796 </i>
   </energy>
  </scstep>
  <scstep>
   <time name="total">   31.05   31.34</time>
   <energy>
    <i name="e_fr_energy">   2399.09700768 </i>
    <i name="e_wo_entrp">   2399.09812112 </i>
    <i name="e_0_energy">   2399.09756440 </i>
   </energy>
  </scstep>
  <scstep>
   <time name="total">   30.96   31.25</time>
   <energy>
    <i name="e_fr_energy">   2399.09697642 </i>
    <i name="e_wo_entrp">   2399.09809015 </i>
    <i name="e_0_energy">   2399.09753329 </i>
   </energy>
  </scstep>
  <scstep>
   <time name="total">   31.09   31.36</time>
   <energy>
    <i name="e_fr_energy">   2399.09696235 </i>
    <i name="e_wo_entrp">   2399.09807672 </i>
    <i name="e_0_energy">   2399.09751954 </i>
   </energy>
  </scstep>
  <scstep>
   <time name="total">   31.04   31.32</time>
   <energy>
    <i name="e_fr_energy">   2399.09695255 </i>
    <i name="e_wo_entrp">   2399.09806742 </i>
    <i name="e_0_energy">   2399.09750998 </i>
   </energy>
  </scstep>
  <scstep>
   <time name="total">   31.15   31.42</time>
   <energy>
    <i name="e_fr_energy">   2399.09694954 </i>
    <i name="e_wo_entrp">   2399.09806498 </i>
    <i name="e_0_energy">   2399.09750726 </i>
   </energy>
  </scstep>
  <scstep>
   <time name="total">   31.00   31.27</time>
   <energy>
    <i name="e_fr_energy">   2399.09694763 </i>
    <i name="e_wo_entrp">   2399.09806366 </i>
    <i name="e_0_energy">   2399.09750564 </i>
   </energy>
  </scstep>
  <scstep>
   <time name="total">   31.01   31.28</time>
   <energy>
    <i name="e_fr_energy">   2399.09694569 </i>
    <i name="e_wo_entrp">   2399.09806190 </i>
    <i name="e_0_energy">   2399.09750380 </i>
   </energy>
  </scstep>
  <scstep>
   <time name="total">   30.89   31.16</time>
   <energy>
    <i name="e_fr_energy">   2399.09694477 </i>
    <i name="e_wo_entrp">   2399.09806096 </i>
    <i name="e_0_energy">   2399.09750286 </i>
   </energy>
  </scstep>
  <scstep>
   <time name="total">   30.42   30.67</time>
   <energy>
    <i name="e_fr_energy">   2399.09694566 </i>
    <i name="e_wo_entrp">   2399.09806179 </i>
    <i name="e_0_energy">   2399.09750373 </i>
   </energy>
  </scstep>
  <scstep>
   <time name="total">   31.25   31.50</time>
   <energy>
    <i name="e_fr_energy">   2399.09694486 </i>
    <i name="e_wo_entrp">   2399.09806101 </i>
    <i name="e_0_energy">   2399.09750294 </i>
   </energy>
  </scstep>
  <scstep>
   <time name="total">   31.28   31.55</time>
   <energy>
    <i name="e_fr_energy">   2399.09694471 </i>
    <i name="e_wo_entrp">   2399.09806086 </i>
    <i name="e_0_energy">   2399.09750279 </i>
   </energy>
  </scstep>
  <scstep>
   <time name="total">   30.97   31.24</time>
   <energy>
    <i name="e_fr_energy">   2399.09694444 </i>
    <i name="e_wo_entrp">   2399.09806059 </i>
    <i name="e_0_energy">   2399.09750252 </i>
   </energy>
  </scstep>
  <scstep>
   <time name="total">   31.45   31.70</time>
   <energy>
    <i name="e_fr_energy">   2399.09694495 </i>
    <i name="e_wo_entrp">   2399.09806107 </i>
    <i name="e_0_energy">   2399.09750301 </i>
   </energy>
  </scstep>
  <scstep>
   <time name="total">   31.15   31.39</time>
   <energy>
    <i name="e_fr_energy">   2399.09694447 </i>
    <i name="e_wo_entrp">   2399.09806060 </i>
    <i name="e_0_energy">   2399.09750253 </i>
   </energy>
  </scstep>
  <scstep>
   <time name="total">   30.58   30.82</time>
   <energy>
    <i name="e_fr_energy">   2399.09694510 </i>
    <i name="e_wo_entrp">   2399.09806126 </i>
    <i name="e_0_energy">   2399.09750318 </i>
   </energy>
  </scstep>
  <scstep>
   <time name="total">   30.36   30.59</time>
   <energy>
    <i name="e_fr_energy">   2399.09694507 </i>
    <i name="e_wo_entrp">   2399.09806124 </i>
    <i name="e_0_energy">   2399.09750316 </i>
   </energy>
  </scstep>
  <scstep>
   <time name="total">   30.79   31.04</time>
   <energy>
    <i name="e_fr_energy">   2399.09694465 </i>
    <i name="e_wo_entrp">   2399.09806082 </i>
    <i name="e_0_energy">   2399.09750274 </i>
   </energy>
  </scstep>
  <scstep>
   <time name="total">   30.70   30.94</time>
   <energy>
    <i name="e_fr_energy">   2399.09694477 </i>
    <i name="e_wo_entrp">   2399.09806094 </i>
    <i name="e_0_energy">   2399.09750286 </i>
   </energy>
  </scstep>
  <scstep>
   <time name="total">   31.06   31.30</time>
   <energy>
    <i name="e_fr_energy">   2399.09694429 </i>
    <i name="e_wo_entrp">   2399.09806047 </i>
    <i name="e_0_energy">   2399.09750238 </i>
   </energy>
  </scstep>
  <scstep>
   <time name="total">   29.47   29.70</time>
   <energy>
    <i name="e_fr_energy">   2399.09694566 </i>
    <i name="e_wo_entrp">   2399.09806183 </i>
    <i name="e_0_energy">   2399.09750375 </i>
   </energy>
  </scstep>
  <scstep>
   <time name="total">   29.79   30.02</time>
   <energy>
    <i name="e_fr_energy">   2399.09694480 </i>
    <i name="e_wo_entrp">   2399.09806097 </i>
    <i name="e_0_energy">   2399.09750289 </i>
   </energy>
  </scstep>
  <scstep>
   <time name="total">   30.10   30.33</time>
   <energy>
    <i name="e_fr_energy">   2399.09694459 </i>
    <i name="e_wo_entrp">   2399.09806077 </i>
    <i name="e_0_energy">   2399.09750268 </i>
   </energy>
  </scstep>
  <scstep>
   <time name="total">   29.44   29.66</time>
   <energy>
    <i name="e_fr_energy">   2399.09694528 </i>
    <i name="e_wo_entrp">   2399.09806146 </i>
    <i name="e_0_energy">   2399.09750337 </i>
   </energy>
  </scstep>
  <scstep>
   <time name="total">   29.99   30.21</time>
   <energy>
    <i name="e_fr_energy">   2399.09694465 </i>
    <i name="e_wo_entrp">   2399.09806083 </i>
    <i name="e_0_energy">   2399.09750274 </i>
   </energy>
  </scstep>
  <scstep>
   <time name="total">   29.28   29.50</time>
   <energy>
    <i name="e_fr_energy">   2399.09694546 </i>
    <i name="e_wo_entrp">   2399.09806164 </i>
    <i name="e_0_energy">   2399.09750355 </i>
   </energy>
  </scstep>
  <scstep>
   <time name="total">   29.48   29.71</time>
   <energy>
    <i name="e_fr_energy">   2399.09694522 </i>
    <i name="e_wo_entrp">   2399.09806140 </i>
    <i name="e_0_energy">   2399.09750331 </i>
   </energy>
  </scstep>
  <scstep>
   <time name="total">   30.14   30.37</time>
   <energy>
    <i name="e_fr_energy">   2399.09694474 </i>
    <i name="e_wo_entrp">   2399.09806093 </i>
    <i name="e_0_energy">   2399.09750283 </i>
   </energy>
  </scstep>
  <scstep>
   <time name="total">   29.91   30.14</time>
   <energy>
    <i name="e_fr_energy">   2399.09694504 </i>
    <i name="e_wo_entrp">   2399.09806123 </i>
    <i name="e_0_energy">   2399.09750313 </i>
   </energy>
  </scstep>
  <scstep>
   <time name="total">   29.49   29.72</time>
   <energy>
    <i name="e_fr_energy">   2399.09694501 </i>
    <i name="e_wo_entrp">   2399.09806120 </i>
    <i name="e_0_energy">   2399.09750310 </i>
   </energy>
  </scstep>
  <scstep>
   <time name="total">   29.74   29.97</time>
   <energy>
    <i name="e_fr_energy">   2399.09694474 </i>
    <i name="e_wo_entrp">   2399.09806093 </i>
    <i name="e_0_energy">   2399.09750284 </i>
   </energy>
  </scstep>
  <scstep>
   <time name="total">   30.19   30.42</time>
   <energy>
    <i name="e_fr_energy">   2399.09694492 </i>
    <i name="e_wo_entrp">   2399.09806111 </i>
    <i name="e_0_energy">   2399.09750301 </i>
   </energy>
  </scstep>
  <scstep>
   <time name="total">   29.28   29.50</time>
   <energy>
    <i name="e_fr_energy">   2399.09694569 </i>
    <i name="e_wo_entrp">   2399.09806189 </i>
    <i name="e_0_energy">   2399.09750379 </i>
   </energy>
  </scstep>
  <scstep>
   <time name="total">   29.14   29.36</time>
   <energy>
    <i name="e_fr_energy">   2399.09694549 </i>
    <i name="e_wo_entrp">   2399.09806168 </i>
    <i name="e_0_energy">   2399.09750358 </i>
   </energy>
  </scstep>
  <scstep>
   <time name="total">   30.17   30.39</time>
   <energy>
    <i name="e_fr_energy">   2399.09694501 </i>
    <i name="e_wo_entrp">   2399.09806120 </i>
    <i name="e_0_energy">   2399.09750311 </i>
   </energy>
  </scstep>
  <scstep>
   <time name="total">   29.51   29.78</time>
   <energy>
    <i name="e_fr_energy">   2399.09694549 </i>
    <i name="e_wo_entrp">   2399.09806168 </i>
    <i name="e_0_energy">   2399.09750358 </i>
   </energy>
  </scstep>
  <scstep>
   <time name="total">   29.32   29.54</time>
   <energy>
    <i name="e_fr_energy">   2399.09694492 </i>
    <i name="e_wo_entrp">   2399.09806112 </i>
    <i name="e_0_energy">   2399.09750302 </i>
   </energy>
  </scstep>
  <scstep>
   <time name="total">   30.02   30.24</time>
   <energy>
    <i name="e_fr_energy">   2399.09694459 </i>
    <i name="e_wo_entrp">   2399.09806079 </i>
    <i name="e_0_energy">   2399.09750269 </i>
   </energy>
  </scstep>
  <scstep>
   <time name="total">   30.09   30.30</time>
   <energy>
    <i name="e_fr_energy">   2399.09694471 </i>
    <i name="e_wo_entrp">   2399.09806091 </i>
    <i name="e_0_energy">   2399.09750281 </i>
   </energy>
  </scstep>
  <scstep>
   <time name="total">   29.92   30.13</time>
   <energy>
    <i name="e_fr_energy">   2399.09694501 </i>
    <i name="e_wo_entrp">   2399.09806121 </i>
    <i name="e_0_energy">   2399.09750311 </i>
   </energy>
  </scstep>
  <scstep>
   <time name="total">   29.83   30.05</time>
   <energy>
    <i name="e_fr_energy">   2399.09694516 </i>
    <i name="e_wo_entrp">   2399.09806136 </i>
    <i name="e_0_energy">   2399.09750326 </i>
   </energy>
  </scstep>
  <scstep>
   <time name="total">   30.06   30.29</time>
   <energy>
    <i name="e_fr_energy">   2399.09694486 </i>
    <i name="e_wo_entrp">   2399.09806106 </i>
    <i name="e_0_energy">   2399.09750296 </i>
   </energy>
  </scstep>
  <scstep>
   <time name="total">   30.04   30.26</time>
   <energy>
    <i name="e_fr_energy">   2399.09694516 </i>
    <i name="e_wo_entrp">   2399.09806136 </i>
    <i name="e_0_energy">   2399.09750326 </i>
   </energy>
  </scstep>
  <scstep>
   <time name="total">   29.27   29.49</time>
   <energy>
    <i name="e_fr_energy">   2399.09694510 </i>
    <i name="e_wo_entrp">   2399.09806130 </i>
    <i name="e_0_energy">   2399.09750320 </i>
   </energy>
  </scstep>
  <scstep>
   <time name="total">   29.92   30.14</time>
   <energy>
    <i name="e_fr_energy">   2399.09694498 </i>
    <i name="e_wo_entrp">   2399.09806118 </i>
    <i name="e_0_energy">   2399.09750308 </i>
   </energy>
  </scstep>
  <scstep>
   <time name="total">   30.05   30.27</time>
   <energy>
    <i name="e_fr_energy">   2399.09694510 </i>
    <i name="e_wo_entrp">   2399.09806130 </i>
    <i name="e_0_energy">   2399.09750320 </i>
   </energy>
  </scstep>
  <scstep>
   <time name="total">   30.09   30.31</time>
   <energy>
    <i name="e_fr_energy">   2399.09694504 </i>
    <i name="e_wo_entrp">   2399.09806124 </i>
    <i name="e_0_energy">   2399.09750314 </i>
   </energy>
  </scstep>
  <scstep>
   <time name="total">   29.91   30.13</time>
   <energy>
    <i name="e_fr_energy">   2399.09694507 </i>
    <i name="e_wo_entrp">   2399.09806127 </i>
    <i name="e_0_energy">   2399.09750317 </i>
   </energy>
  </scstep>
  <scstep>
   <time name="total">   29.18   29.41</time>
   <energy>
    <i name="e_fr_energy">   2399.09694519 </i>
    <i name="e_wo_entrp">   2399.09806139 </i>
    <i name="e_0_energy">   2399.09750329 </i>
   </energy>
  </scstep>
  <scstep>
   <time name="total">   27.47   27.67</time>
   <energy>
    <i name="e_fr_energy">   2399.09694498 </i>
    <i name="e_wo_entrp">   2399.09806118 </i>
    <i name="e_0_energy">   2399.09750308 </i>
   </energy>
  </scstep>
  <scstep>
   <time name="total">   31.83   32.06</time>
   <energy>
    <i name="alphaZ">    756.52764273 </i>
    <i name="ewald">  -6014.41792201 </i>
    <i name="hartreedc">  -3914.24686630 </i>
    <i name="XCdc">    557.04523527 </i>
    <i name="pawpsdc">**************** </i>
    <i name="pawaedc">**************** </i>
    <i name="eentropy">     -0.00111620 </i>
    <i name="bandstr">  -1087.40080320 </i>
    <i name="atom">  11870.63976582 </i>
    <i name="e_fr_energy">   2399.09694498 </i>
    <i name="e_wo_entrp">   2399.09806118 </i>
    <i name="e_0_energy">   2399.09750308 </i>
   </energy>
  </scstep>
  <structure>
   <crystal>
    <varray name="basis" >
     <v>       5.01732736       0.00000000      -2.78401254 </v>
     <v>      -1.73923620       4.70623324      -2.78401254 </v>
     <v>       0.00000000       0.00000000       5.73797000 </v>
    </varray>
    <i name="volume">    135.48903777 </i>
    <varray name="rec_basis" >
     <v>       0.19930930       0.07365677       0.00000000 </v>
     <v>       0.00000000       0.21248416       0.00000000 </v>
     <v>       0.09670312       0.13883306       0.17427766 </v>
    </varray>
   </crystal>
   <varray name="positions" >
    <v>       0.50000000       0.50000000       0.50000000 </v>
    <v>       0.50000000       0.00000000       0.00000000 </v>
    <v>       0.00000000       0.00000000       0.50000000 </v>
    <v>       0.00000000       0.50000000       0.00000000 </v>
    <v>       0.25000000       0.25000000       0.00000000 </v>
    <v>       0.21535000       0.71535000       0.93070000 </v>
    <v>       0.75000000       0.75000000       0.00000000 </v>
    <v>       0.78465000       0.28465000       0.06930000 </v>
    <v>       0.71535000       0.78465000       0.50000000 </v>
    <v>       0.28465000       0.21535000       0.50000000 </v>
    <v>       0.22689000       0.27311000       0.50000000 </v>
    <v>       0.77311000       0.72689000       0.50000000 </v>
    <v>       0.27311000       0.77311000       0.04622000 </v>
    <v>       0.72689000       0.22689000       0.95378000 </v>
   </varray>
  </structure>
  <varray name="forces" >
   <v>       0.00000000       0.00000000       0.00000000 </v>
   <v>       0.00000000       0.00000000       0.00000000 </v>
   <v>       0.00000000       0.00000000       0.00000000 </v>
   <v>       0.00000000       0.00000000       0.00000000 </v>
   <v>       0.00000000       0.00000000       0.00000000 </v>
   <v>       0.00000000       0.00000000       0.00000000 </v>
   <v>       0.00000000       0.00000000       0.00000000 </v>
   <v>       0.00000000       0.00000000       0.00000000 </v>
   <v>       0.00000000       0.00000000       0.00000000 </v>
   <v>       0.00000000       0.00000000       0.00000000 </v>
   <v>       0.00000000       0.00000000       0.00000000 </v>
   <v>       0.00000000       0.00000000       0.00000000 </v>
   <v>       0.00000000       0.00000000       0.00000000 </v>
   <v>       0.00000000       0.00000000       0.00000000 </v>
  </varray>
  <varray name="stress" >
   <v>       0.00000000       0.00000000       0.00000000 </v>
   <v>       0.00000000       0.00000000       0.00000000 </v>
   <v>       0.00000000       0.00000000       0.00000000 </v>
  </varray>
  <energy>
   <i name="e_fr_energy">   2399.09694498 </i>
   <i name="e_wo_entrp">   2399.09806118 </i>
   <i name="e_0_energy">   2399.09750308 </i>
  </energy>
