<?xml version="1.0" encoding="ISO-8859-1"?>
<modeling>
 <generator>
  <i name="program" type="string">vasp </i>
  <i name="version" type="string">6.2.0  </i>
  <i name="subversion" type="string">18Jan21 (build Jan 05 2022 15:41:44) complex                          parallel </i>
  <i name="platform" type="string">LinuxIFC </i>
  <i name="date" type="string">2025 05 07 </i>
  <i name="time" type="string">20:08:43 </i>
 </generator>
 <incar>
  <i type="string" name="SYSTEM">routine with relax: pwdword</i>
  <i type="string" name="PREC">Acc</i>
  <i type="int" name="IALGO">    38</i>
  <i type="string" name="ALGO">A</i>
  <i type="logical" name="ADDGRID"> T  </i>
  <i type="int" name="ICHARG">     2</i>
  <i type="int" name="NELM">   100</i>
  <i type="int" name="NELMIN">     6</i>
  <i name="EDIFF">      0.00000000</i>
  <i type="int" name="NSW">     0</i>
  <i type="int" name="ISIF">    -1</i>
  <i name="ENCUT">    600.00000000</i>
  <i type="logical" name="LREAL"> F  </i>
  <i type="int" name="ISMEAR">     0</i>
  <i name="SIGMA">      0.02000000</i>
  <i type="logical" name="LASPH"> T  </i>
  <i type="string" name="METAGGA">R2SCAN</i>
  <i type="logical" name="LMIXTAU"> F  </i>
 </incar>
 <primitive_cell>
  <structure name="primitive_cell" >
   <crystal>
    <varray name="basis" >
     <v>       6.61720569       0.00000000      -2.25396941 </v>
     <v>      -3.39044394       5.68263153      -2.25396941 </v>
     <v>       0.00000000       0.00000000       6.99055000 </v>
    </varray>
    <i name="volume">    262.86664228 </i>
    <varray name="rec_basis" >
     <v>       0.15112119       0.09016385       0.00000000 </v>
     <v>       0.00000000       0.17597481       0.00000000 </v>
     <v>       0.04872614       0.08581133       0.14305026 </v>
    </varray>
   </crystal>
   <varray name="positions" >
    <v>       0.75000000       0.25000000       0.50000000 </v>
    <v>       0.25000000       0.75000000       0.50000000 </v>
    <v>       0.50000000       0.00000000       0.50000000 </v>
    <v>       0.74548000       0.52482000       0.27029000 </v>
    <v>       0.25452000       0.47518000       0.72971000 </v>
    <v>       0.00000000       0.50000000       0.50000000 </v>
    <v>       0.52482000       0.25452000       0.77934000 </v>
    <v>       0.47518000       0.74548000       0.22066000 </v>
    <v>       0.75452000       0.02482000       0.77934000 </v>
    <v>       0.24548000       0.97518000       0.22066000 </v>
    <v>       0.97518000       0.75452000       0.72971000 </v>
    <v>       0.02482000       0.24548000       0.27029000 </v>
    <v>       0.24291000       0.25709000       0.50000000 </v>
    <v>       0.75709000       0.74291000       0.50000000 </v>
    <v>       0.25709000       0.75709000       0.01419000 </v>
    <v>       0.74291000       0.24291000       0.98581000 </v>
   </varray>
  </structure>
  <varray name="primitive_index" >
   <v type="int" >        1 </v>
   <v type="int" >        2 </v>
   <v type="int" >        3 </v>
   <v type="int" >        4 </v>
   <v type="int" >        5 </v>
   <v type="int" >        6 </v>
   <v type="int" >        7 </v>
   <v type="int" >        8 </v>
   <v type="int" >        9 </v>
   <v type="int" >       10 </v>
   <v type="int" >       11 </v>
   <v type="int" >       12 </v>
   <v type="int" >       13 </v>
   <v type="int" >       14 </v>
   <v type="int" >       15 </v>
   <v type="int" >       16 </v>
  </varray>
 </primitive_cell>
 <kpoints>
  <generation param="Gamma">
   <v type="int" name="divisions">       6        6        6 </v>
   <v name="usershift">      0.00000000       0.00000000       0.00000000 </v>
   <v name="genvec1">      0.16666667       0.00000000       0.00000000 </v>
   <v name="genvec2">      0.00000000       0.16666667       0.00000000 </v>
   <v name="genvec3">     -0.00000000      -0.00000000       0.16666667 </v>
   <v name="shift">      0.00000000       0.00000000       0.00000000 </v>
  </generation>
  <varray name="kpointlist" >
   <v>       0.00000000       0.00000000       0.00000000 </v>
   <v>       0.16666667      -0.00000000       0.00000000 </v>
   <v>       0.16666667      -0.00000000      -0.16666667 </v>
   <v>       0.33333333      -0.00000000       0.00000000 </v>
   <v>       0.33333333       0.00000000      -0.33333333 </v>
   <v>       0.50000000      -0.00000000       0.00000000 </v>
   <v>       0.50000000      -0.00000000       0.50000000 </v>
   <v>       0.16666667       0.16666667       0.00000000 </v>
   <v>       0.33333333      -0.00000000      -0.16666667 </v>
   <v>       0.16666667       0.16666667      -0.33333333 </v>
   <v>       0.33333333       0.16666667       0.00000000 </v>
   <v>       0.50000000      -0.00000000      -0.33333333 </v>
   <v>       0.16666667       0.33333333       0.50000000 </v>
   <v>       0.00000000       0.50000000      -0.16666667 </v>
   <v>       0.50000000       0.16666667       0.00000000 </v>
   <v>      -0.33333333      -0.00000000       0.50000000 </v>
   <v>       0.16666667       0.50000000       0.33333333 </v>
   <v>       0.00000000      -0.33333333      -0.16666667 </v>
   <v>      -0.33333333       0.16666667       0.00000000 </v>
   <v>      -0.16666667      -0.00000000       0.33333333 </v>
   <v>       0.16666667      -0.33333333       0.16666667 </v>
   <v>       0.00000000      -0.16666667      -0.16666667 </v>
   <v>      -0.16666667       0.16666667       0.00000000 </v>
   <v>      -0.00000000      -0.00000000       0.16666667 </v>
   <v>       0.33333333       0.33333333       0.00000000 </v>
   <v>      -0.33333333       0.00000000      -0.33333333 </v>
   <v>       0.33333333       0.33333333       0.33333333 </v>
   <v>       0.50000000       0.33333333       0.00000000 </v>
   <v>      -0.16666667      -0.00000000       0.50000000 </v>
   <v>       0.33333333       0.50000000       0.16666667 </v>
   <v>       0.00000000      -0.16666667      -0.33333333 </v>
   <v>      -0.33333333       0.33333333       0.00000000 </v>
   <v>      -0.00000000      -0.00000000       0.33333333 </v>
   <v>       0.50000000       0.50000000       0.00000000 </v>
   <v>       0.00000000      -0.00000000       0.50000000 </v>
   <v>       0.16666667       0.16666667       0.16666667 </v>
   <v>       0.50000000      -0.16666667      -0.16666667 </v>
   <v>       0.16666667       0.16666667       0.50000000 </v>
   <v>       0.33333333       0.16666667       0.16666667 </v>
   <v>      -0.33333333      -0.16666667      -0.33333333 </v>
   <v>      -0.16666667       0.16666667       0.16666667 </v>
   <v>       0.33333333       0.33333333       0.16666667 </v>
   <v>      -0.16666667      -0.16666667      -0.33333333 </v>
   <v>      -0.33333333       0.33333333       0.16666667 </v>
   <v>       0.16666667      -0.16666667       0.33333333 </v>
   <v>      -0.16666667       0.33333333       0.16666667 </v>
   <v>       0.33333333      -0.16666667      -0.33333333 </v>
   <v>       0.50000000       0.50000000       0.16666667 </v>
   <v>       0.16666667      -0.16666667       0.50000000 </v>
   <v>      -0.33333333       0.50000000       0.16666667 </v>
   <v>       0.33333333      -0.16666667       0.33333333 </v>
   <v>       0.50000000      -0.33333333      -0.33333333 </v>
   <v>      -0.16666667       0.33333333       0.50000000 </v>
   <v>      -0.16666667       0.50000000       0.16666667 </v>
   <v>       0.50000000      -0.16666667       0.50000000 </v>
   <v>      -0.33333333      -0.33333333       0.16666667 </v>
   <v>       0.50000000      -0.16666667       0.33333333 </v>
   <v>      -0.33333333      -0.33333333       0.50000000 </v>
   <v>      -0.16666667      -0.33333333       0.16666667 </v>
   <v>      -0.33333333      -0.16666667       0.33333333 </v>
   <v>      -0.16666667      -0.16666667       0.16666667 </v>
   <v>      -0.33333333       0.33333333       0.33333333 </v>
   <v>       0.50000000       0.50000000       0.33333333 </v>
   <v>       0.33333333      -0.33333333       0.50000000 </v>
   <v>      -0.33333333       0.50000000       0.33333333 </v>
   <v>       0.50000000      -0.33333333       0.50000000 </v>
   <v>      -0.33333333      -0.33333333       0.33333333 </v>
   <v>       0.50000000       0.50000000       0.50000000 </v>
  </varray>
  <varray name="weights" >
   <v>       0.00462963 </v>
   <v>       0.01851852 </v>
   <v>       0.01851852 </v>
   <v>       0.01851852 </v>
   <v>       0.01851852 </v>
   <v>       0.00925926 </v>
   <v>       0.00925926 </v>
   <v>       0.00925926 </v>
   <v>       0.01851852 </v>
   <v>       0.00925926 </v>
   <v>       0.01851852 </v>
   <v>       0.01851852 </v>
   <v>       0.01851852 </v>
   <v>       0.01851852 </v>
   <v>       0.01851852 </v>
   <v>       0.01851852 </v>
   <v>       0.01851852 </v>
   <v>       0.01851852 </v>
   <v>       0.01851852 </v>
   <v>       0.01851852 </v>
   <v>       0.01851852 </v>
   <v>       0.01851852 </v>
   <v>       0.00925926 </v>
   <v>       0.00925926 </v>
   <v>       0.00925926 </v>
   <v>       0.01851852 </v>
   <v>       0.00925926 </v>
   <v>       0.01851852 </v>
   <v>       0.01851852 </v>
   <v>       0.01851852 </v>
   <v>       0.01851852 </v>
   <v>       0.00925926 </v>
   <v>       0.00925926 </v>
   <v>       0.00462963 </v>
   <v>       0.00462963 </v>
   <v>       0.00925926 </v>
   <v>       0.01851852 </v>
   <v>       0.00925926 </v>
   <v>       0.01851852 </v>
   <v>       0.01851852 </v>
   <v>       0.01851852 </v>
   <v>       0.00925926 </v>
   <v>       0.00925926 </v>
   <v>       0.01851852 </v>
   <v>       0.01851852 </v>
   <v>       0.01851852 </v>
   <v>       0.01851852 </v>
   <v>       0.00925926 </v>
   <v>       0.00925926 </v>
   <v>       0.01851852 </v>
   <v>       0.01851852 </v>
   <v>       0.01851852 </v>
   <v>       0.01851852 </v>
   <v>       0.01851852 </v>
   <v>       0.01851852 </v>
   <v>       0.00925926 </v>
   <v>       0.01851852 </v>
   <v>       0.00925926 </v>
   <v>       0.01851852 </v>
   <v>       0.01851852 </v>
   <v>       0.00925926 </v>
   <v>       0.01851852 </v>
   <v>       0.00925926 </v>
   <v>       0.00925926 </v>
   <v>       0.01851852 </v>
   <v>       0.01851852 </v>
   <v>       0.00925926 </v>
   <v>       0.00462963 </v>
  </varray>
 </kpoints>
 <parameters>
  <separator name="general" >
   <i type="string" name="SYSTEM">routine with relax: pwdword</i>
   <i type="logical" name="LCOMPAT"> F  </i>
  </separator>
  <separator name="electronic" >
   <i type="string" name="PREC">acc</i>
   <i name="ENMAX">    600.00000000</i>
   <i name="ENAUG">    535.51400000</i>
   <i name="EDIFF">      0.00000000</i>
   <i type="int" name="IALGO">    58</i>
   <i type="int" name="IWAVPR">    10</i>
   <i type="int" name="NBANDS">   102</i>
   <i type="int" name="NBANDSLOW">    -1</i>
   <i type="int" name="NBANDSHIGH">    -1</i>
   <i name="NELECT">    162.00000000</i>
   <i type="int" name="TURBO">     0</i>
   <i type="int" name="IRESTART">     0</i>
   <i type="int" name="NREBOOT">     0</i>
   <i type="int" name="NMIN">     0</i>
   <i name="EREF">      0.00000000</i>
   <separator name="electronic smearing" >
    <i type="int" name="ISMEAR">     0</i>
    <i name="SIGMA">      0.02000000</i>
    <i name="KSPACING">      0.50000000</i>
    <i type="logical" name="KGAMMA"> T  </i>
    <i type="logical" name="KBLOWUP"> T  </i>
   </separator>
   <separator name="electronic projectors" >
    <i type="logical" name="LREAL"> F  </i>
    <v name="ROPT">      0.00000000      0.00000000      0.00000000</v>
    <i type="int" name="LMAXPAW">  -100</i>
    <i type="int" name="LMAXMIX">     2</i>
    <i type="logical" name="NLSPLINE"> F  </i>
   </separator>
   <separator name="electronic startup" >
    <i type="int" name="ISTART">     0</i>
    <i type="int" name="ICHARG">     2</i>
    <i type="int" name="INIWAV">     1</i>
   </separator>
   <separator name="electronic spin" >
    <i type="int" name="ISPIN">     1</i>
    <i type="logical" name="LNONCOLLINEAR"> F  </i>
    <v name="MAGMOM">      1.00000000      1.00000000      1.00000000      1.00000000      1.00000000      1.00000000      1.00000000      1.00000000      1.00000000      1.00000000      1.00000000      1.00000000      1.00000000      1.00000000      1.00000000      1.00000000</v>
    <i name="NUPDOWN">     -1.00000000</i>
    <i type="logical" name="LSORBIT"> F  </i>
    <v name="SAXIS">      0.00000000      0.00000000      1.00000000</v>
    <i type="logical" name="LSPIRAL"> F  </i>
    <v name="QSPIRAL">      0.00000000      0.00000000      0.00000000</v>
    <i type="logical" name="LZEROZ"> F  </i>
   </separator>
   <separator name="electronic exchange-correlation" >
    <i type="logical" name="LASPH"> T  </i>
    <i type="logical" name="LMETAGGA"> F  </i>
   </separator>
   <separator name="electronic convergence" >
    <i type="int" name="NELM">   100</i>
    <i type="int" name="NELMDL">    -5</i>
    <i type="int" name="NELMIN">     6</i>
    <i name="ENINI">    600.00000000</i>
    <separator name="electronic convergence detail" >
     <i type="logical" name="LDIAG"> T  </i>
     <i type="logical" name="LSUBROT"> F  </i>
     <i name="WEIMIN">      0.00000000</i>
     <i name="EBREAK">      0.00000000</i>
     <i name="DEPER">      0.30000000</i>
     <i type="int" name="NRMM">     4</i>
     <i name="TIME">      0.40000000</i>
    </separator>
   </separator>
   <separator name="electronic mixer" >
    <i name="AMIX">      0.40000000</i>
    <i name="BMIX">      1.00000000</i>
    <i name="AMIN">      0.10000000</i>
    <i name="AMIX_MAG">      1.60000000</i>
    <i name="BMIX_MAG">      1.00000000</i>
    <separator name="electronic mixer details" >
     <i type="int" name="IMIX">     4</i>
     <i type="logical" name="MIXFIRST"> F  </i>
     <i type="int" name="MAXMIX">   -45</i>
     <i name="WC">    100.00000000</i>
     <i type="int" name="INIMIX">     1</i>
     <i type="int" name="MIXPRE">     1</i>
     <i type="int" name="MREMOVE">     5</i>
    </separator>
   </separator>
   <separator name="electronic dipolcorrection" >
    <i type="logical" name="LDIPOL"> F  </i>
    <i type="logical" name="LMONO"> F  </i>
    <i type="int" name="IDIPOL">     0</i>
    <i name="EPSILON">      1.00000000</i>
    <v name="DIPOL">   -100.00000000   -100.00000000   -100.00000000</v>
    <i name="EFIELD">      0.00000000</i>
   </separator>
  </separator>
  <separator name="grids" >
   <i type="int" name="NGX">    56</i>
   <i type="int" name="NGY">    56</i>
   <i type="int" name="NGZ">    56</i>
   <i type="int" name="NGXF">   112</i>
   <i type="int" name="NGYF">   112</i>
   <i type="int" name="NGZF">   112</i>
   <i type="logical" name="ADDGRID"> T  </i>
  </separator>
  <separator name="ionic" >
   <i type="int" name="NSW">     0</i>
   <i type="int" name="IBRION">    -1</i>
   <i type="int" name="MDALGO">     0</i>
   <i type="int" name="ISIF">    -1</i>
   <i name="PSTRESS">      0.00000000</i>
   <i name="EDIFFG">      0.00000001</i>
   <i type="int" name="NFREE">     0</i>
   <i name="POTIM">      0.50000000</i>
   <i name="SMASS">     -3.00000000</i>
   <i name="SCALEE">      1.00000000</i>
  </separator>
  <separator name="ionic md" >
   <i name="TEBEG">      0.00010000</i>
   <i name="TEEND">      0.00010000</i>
   <i type="int" name="NBLOCK">     1</i>
   <i type="int" name="KBLOCK">     1</i>
   <i type="int" name="NPACO">   256</i>
   <i name="APACO">     16.00000000</i>
  </separator>
  <separator name="symmetry" >
   <i type="int" name="ISYM">     2</i>
   <i name="SYMPREC">      0.00001000</i>
  </separator>
  <separator name="dos" >
   <i type="int" name="LORBIT">     0</i>
   <v name="RWIGS">     -1.00000000     -1.00000000     -1.00000000</v>
   <i type="int" name="NEDOS">   301</i>
   <i name="EMIN">     10.00000000</i>
   <i name="EMAX">    -10.00000000</i>
   <i name="EFERMI">      0.00000000</i>
  </separator>
  <separator name="writing" >
   <i type="int" name="NWRITE">     2</i>
   <i type="logical" name="LWAVE"> T  </i>
   <i type="logical" name="LDOWNSAMPLE"> F  </i>
   <i type="logical" name="LCHARG"> T  </i>
   <i type="logical" name="LPARD"> F  </i>
   <i type="logical" name="LVTOT"> F  </i>
   <i type="logical" name="LVHAR"> F  </i>
   <i type="logical" name="LELF"> F  </i>
   <i type="logical" name="LOPTICS"> F  </i>
   <v name="STM">      0.00000000      0.00000000      0.00000000      0.00000000      0.00000000      0.00000000      0.00000000</v>
  </separator>
  <separator name="performance" >
   <i type="int" name="NPAR">     6</i>
   <i type="int" name="NSIM">     4</i>
   <i type="int" name="NBLK">    -1</i>
   <i type="logical" name="LPLANE"> T  </i>
   <i type="logical" name="LSCALAPACK"> T  </i>
   <i type="logical" name="LSCAAWARE"> F  </i>
   <i type="logical" name="LSCALU"> F  </i>
   <i type="logical" name="LASYNC"> F  </i>
   <i type="logical" name="LORBITALREAL"> F  </i>
  </separator>
  <separator name="miscellaneous" >
   <i type="int" name="IDIOT">     3</i>
   <i type="int" name="PHON_NSTRUCT">    -1</i>
   <i type="logical" name="LMUSIC"> F  </i>
   <v name="POMASS">     10.81100000     95.94000000     28.08500000</v>
   <v name="DARWINR">      0.00000000      0.00000000      0.00000000</v>
   <v name="DARWINV">      1.00000000      1.00000000      1.00000000</v>
   <i type="logical" name="LCORR"> T  </i>
  </separator>
  <i type="logical" name="GGA_COMPAT"> T  </i>
  <i type="logical" name="LBERRY"> F  </i>
  <i type="int" name="ICORELEVEL">     0</i>
  <i type="logical" name="LDAU"> F  </i>
  <i type="int" name="I_CONSTRAINED_M">     0</i>
  <separator name="electronic exchange-correlation" >
   <i type="string" name="GGA">--</i>
   <i type="int" name="VOSKOWN">     0</i>
   <i type="logical" name="LHFCALC"> F  </i>
   <i type="string" name="PRECFOCK"></i>
   <i type="logical" name="LSYMGRAD"> F  </i>
   <i type="logical" name="LHFONE"> F  </i>
   <i type="logical" name="LRHFCALC"> F  </i>
   <i type="logical" name="LTHOMAS"> F  </i>
   <i type="logical" name="LMODELHF"> F  </i>
   <i type="logical" name="LFOCKACE"> F  </i>
   <i name="ENCUT4O">     -1.00000000</i>
   <i type="int" name="EXXOEP">     0</i>
   <i type="int" name="FOURORBIT">     0</i>
   <i name="AEXX">      0.00000000</i>
   <i name="HFALPHA">      0.00000000</i>
   <i name="MCALPHA">      0.00000000</i>
   <i name="ALDAX">      1.00000000</i>
   <i name="AGGAX">      1.00000000</i>
   <i name="ALDAC">      1.00000000</i>
   <i name="AGGAC">      1.00000000</i>
   <i type="int" name="NKREDX">     1</i>
   <i type="int" name="NKREDY">     1</i>
   <i type="int" name="NKREDZ">     1</i>
   <i type="logical" name="SHIFTRED"> F  </i>
   <i type="logical" name="ODDONLY"> F  </i>
   <i type="logical" name="EVENONLY"> F  </i>
   <i type="int" name="LMAXFOCK">     0</i>
   <i type="int" name="NMAXFOCKAE">     0</i>
   <i type="logical" name="LFOCKAEDFT"> F  </i>
   <i name="HFSCREEN">      0.00000000</i>
   <i name="HFSCREENC">      0.00000000</i>
   <i type="int" name="NBANDSGWLOW">     0</i>
  </separator>
  <separator name="vdW DFT" >
   <i type="logical" name="LUSE_VDW"> F  </i>
   <i name="Zab_VDW">     -0.84910000</i>
   <i name="PARAM1">      0.12340000</i>
   <i name="PARAM2">      1.00000000</i>
   <i name="PARAM3">      0.00000000</i>
  </separator>
  <separator name="model GW" >
   <i type="int" name="MODEL_GW">     0</i>
   <i name="MODEL_EPS0">      9.85749909</i>
   <i name="MODEL_ALPHA">      1.00000000</i>
  </separator>
  <separator name="linear response parameters" >
   <i type="logical" name="LEPSILON"> F  </i>
   <i type="logical" name="LRPA"> F  </i>
   <i type="logical" name="LNABLA"> F  </i>
   <i type="logical" name="LVEL"> F  </i>
   <i type="int" name="KINTER">     0</i>
   <i name="CSHIFT">      0.10000000</i>
   <i name="OMEGAMAX">     -1.00000000</i>
   <i name="DEG_THRESHOLD">      0.00200000</i>
   <i name="RTIME">     -0.10000000</i>
   <i name="WPLASMAI">      0.00000000</i>
   <v name="DFIELD">      0.00000000      0.00000000      0.00000000</v>
   <v name="WPLASMA">      0.00000000      0.00000000      0.00000000      0.00000000      0.00000000      0.00000000      0.00000000      0.00000000      0.00000000</v>
  </separator>
  <separator name="orbital magnetization" >
   <i type="logical" name="NUCIND"> F  </i>
   <v name="MAGPOS">      0.00000000      0.00000000      0.00000000</v>
   <i type="logical" name="LNICSALL"> T  </i>
   <i type="logical" name="ORBITALMAG"> F  </i>
   <i type="logical" name="LMAGBLOCH"> F  </i>
   <i type="logical" name="LCHIMAG"> F  </i>
   <i type="logical" name="LGAUGE"> T  </i>
   <i type="int" name="MAGATOM">     0</i>
   <v name="MAGDIPOL">      0.00000000      0.00000000      0.00000000</v>
   <v name="AVECCONST">      0.00000000      0.00000000      0.00000000</v>
  </separator>
  <separator name="response functions" >
   <i type="logical" name="LFINITE_TEMPERATURE"> F  </i>
   <i type="logical" name="LADDER"> F  </i>
   <i type="logical" name="LRPAFORCE"> F  </i>
   <i type="logical" name="LFXC"> F  </i>
   <i type="logical" name="LHARTREE"> T  </i>
   <i type="int" name="IBSE">     0</i>
   <v type="int" name="KPOINT">    -1     0     0     0</v>
   <i type="logical" name="LTCTC"> F  </i>
   <i type="logical" name="LTCTE"> F  </i>
   <i type="logical" name="LTETE"> F  </i>
   <i type="logical" name="LTRIPLET"> F  </i>
   <i type="logical" name="LFXCEPS"> F  </i>
   <i type="logical" name="LFXHEG"> F  </i>
   <i type="int" name="NATURALO">     2</i>
   <i type="logical" name="LHOLEGF"> F  </i>
   <i type="logical" name="L2ORDER"> F  </i>
   <i type="logical" name="LDMP1"> F  </i>
   <i type="logical" name="LMP2LT"> F  </i>
   <i type="logical" name="LSMP2LT"> F  </i>
   <i type="logical" name="LGWLF"> F  </i>
   <i name="ENCUTGW">     -2.00000000</i>
   <i name="ENCUTGWSOFT">     -2.00000000</i>
   <i name="ENCUTLF">     -1.00000000</i>
   <i type="logical" name="LESF_SPLINES"> F  </i>
   <i type="int" name="LMAXMP2">    -1</i>
   <i name="SCISSOR">      0.00000000</i>
   <i type="int" name="NOMEGA">     0</i>
   <i type="int" name="NOMEGAR">     0</i>
   <i type="int" name="NBANDSGW">    -1</i>
   <i type="int" name="NBANDSO">    -1</i>
   <i type="int" name="NBANDSV">    -1</i>
   <i type="int" name="NELM">   100</i>
   <i type="int" name="NELMHF">     1</i>
   <i type="int" name="DIM">     3</i>
   <i type="int" name="IESPILON">     4</i>
   <i type="int" name="ANTIRES">     0</i>
   <i name="OMEGAMAX">    -30.00000000</i>
   <i name="OMEGAMIN">    -30.00000000</i>
   <i name="OMEGATL">   -200.00000000</i>
   <i type="int" name="OMEGAGRID">     0</i>
   <i name="CSHIFT">     -0.10000000</i>
   <i type="logical" name="LSELFENERGY"> F  </i>
   <i type="logical" name="LSPECTRAL"> F  </i>
   <i type="logical" name="LSPECTRALGW"> F  </i>
   <i type="logical" name="LSINGLES"> F  </i>
   <i type="logical" name="LFERMIGW"> F  </i>
   <i type="logical" name="ODDONLYGW"> F  </i>
   <i type="logical" name="EVENONLYGW"> F  </i>
   <i type="int" name="NKREDLFX">     1</i>
   <i type="int" name="NKREDLFY">     1</i>
   <i type="int" name="NKREDLFZ">     1</i>
   <i type="int" name="MAXMEM">  2800</i>
   <i type="int" name="TELESCOPE">     0</i>
   <i type="int" name="NTAUPAR">    -1</i>
   <i type="int" name="NOMEGAPAR">    -1</i>
   <i name="DAMP_NEWTON">      0.80000001</i>
   <i name="LAMBDA">      1.00000000</i>
  </separator>
  <separator name="External order field" >
   <i name="OFIELD_KAPPA">      0.00000000</i>
   <v name="OFIELD_K">      0.00000000      0.00000000      0.00000000</v>
   <i name="OFIELD_Q6_NEAR">      0.00000000</i>
   <i name="OFIELD_Q6_FAR">      0.00000000</i>
   <i name="OFIELD_A">      0.00000000</i>
  </separator>
 </parameters>
 <atominfo>
  <atoms>      16 </atoms>
  <types>       3 </types>
  <array name="atoms" >
   <dimension dim="1">ion</dimension>
   <field type="string">element</field>
   <field type="int">atomtype</field>
   <set>
    <rc><c>B </c><c>   1</c></rc>
    <rc><c>B </c><c>   1</c></rc>
    <rc><c>Mo</c><c>   2</c></rc>
    <rc><c>Mo</c><c>   2</c></rc>
    <rc><c>Mo</c><c>   2</c></rc>
    <rc><c>Mo</c><c>   2</c></rc>
    <rc><c>Mo</c><c>   2</c></rc>
    <rc><c>Mo</c><c>   2</c></rc>
    <rc><c>Mo</c><c>   2</c></rc>
    <rc><c>Mo</c><c>   2</c></rc>
    <rc><c>Mo</c><c>   2</c></rc>
    <rc><c>Mo</c><c>   2</c></rc>
    <rc><c>Si</c><c>   3</c></rc>
    <rc><c>Si</c><c>   3</c></rc>
    <rc><c>Si</c><c>   3</c></rc>
    <rc><c>Si</c><c>   3</c></rc>
   </set>
  </array>
  <array name="atomtypes" >
   <dimension dim="1">type</dimension>
   <field type="int">atomspertype</field>
   <field type="string">element</field>
   <field>mass</field>
   <field>valence</field>
   <field type="string">pseudopotential</field>
   <set>
    <rc><c>   2</c><c>B </c><c>     10.81100000</c><c>      3.00000000</c><c>  PAW_PBE B 06Sep2000                   </c></rc>
    <rc><c>  10</c><c>Mo</c><c>     95.94000000</c><c>     14.00000000</c><c>  PAW_PBE Mo_sv 02Feb2006               </c></rc>
    <rc><c>   4</c><c>Si</c><c>     28.08500000</c><c>      4.00000000</c><c>  PAW_PBE Si 05Jan2001                  </c></rc>
   </set>
  </array>
 </atominfo>
 <structure name="initialpos" >
  <crystal>
   <varray name="basis" >
    <v>       6.61720569       0.00000000      -2.25396941 </v>
    <v>      -3.39044394       5.68263153      -2.25396941 </v>
    <v>       0.00000000       0.00000000       6.99055000 </v>
   </varray>
   <i name="volume">    262.86664228 </i>
   <varray name="rec_basis" >
    <v>       0.15112119       0.09016385       0.00000000 </v>
    <v>       0.00000000       0.17597481       0.00000000 </v>
    <v>       0.04872614       0.08581133       0.14305026 </v>
   </varray>
  </crystal>
  <varray name="positions" >
   <v>       0.75000000       0.25000000       0.50000000 </v>
   <v>       0.25000000       0.75000000       0.50000000 </v>
   <v>       0.50000000       0.00000000       0.50000000 </v>
   <v>       0.74548000       0.52482000       0.27029000 </v>
   <v>       0.25452000       0.47518000       0.72971000 </v>
   <v>       0.00000000       0.50000000       0.50000000 </v>
   <v>       0.52482000       0.25452000       0.77934000 </v>
   <v>       0.47518000       0.74548000       0.22066000 </v>
   <v>       0.75452000       0.02482000       0.77934000 </v>
   <v>       0.24548000       0.97518000       0.22066000 </v>
   <v>       0.97518000       0.75452000       0.72971000 </v>
   <v>       0.02482000       0.24548000       0.27029000 </v>
   <v>       0.24291000       0.25709000       0.50000000 </v>
   <v>       0.75709000       0.74291000       0.50000000 </v>
   <v>       0.25709000       0.75709000       0.01419000 </v>
   <v>       0.74291000       0.24291000       0.98581000 </v>
  </varray>
 </structure>
 <calculation>
  <scstep>
   <time name="total">   35.55   35.92</time>
   <energy>
    <i name="alphaZ">    860.24277673 </i>
    <i name="ewald"> -12574.08604222 </i>
    <i name="hartreedc">  -6159.58838142 </i>
    <i name="XCdc">    776.00911665 </i>
    <i name="pawpsdc">  15278.13859621 </i>
    <i name="pawaedc"> -15202.21075033 </i>
    <i name="eentropy">     -0.00129273 </i>
    <i name="bandstr">   -121.64846398 </i>
    <i name="atom">  19177.43064738 </i>
    <i name="e_fr_energy">   2034.28620629 </i>
    <i name="e_wo_entrp">   2034.28749902 </i>
    <i name="e_0_energy">   2034.28685266 </i>
   </energy>
  </scstep>
  <scstep>
   <time name="total">   38.85   39.63</time>
   <energy>
    <i name="e_fr_energy">   -208.37140452 </i>
    <i name="e_wo_entrp">   -208.36948253 </i>
    <i name="e_0_energy">   -208.37044352 </i>
   </energy>
  </scstep>
  <scstep>
   <time name="total">   43.15   43.89</time>
   <energy>
    <i name="e_fr_energy">   -301.05816683 </i>
    <i name="e_wo_entrp">   -301.05671143 </i>
    <i name="e_0_energy">   -301.05743913 </i>
   </energy>
  </scstep>
  <scstep>
   <time name="total">   41.03   41.79</time>
   <energy>
    <i name="e_fr_energy">   -303.40927994 </i>
    <i name="e_wo_entrp">   -303.40746046 </i>
    <i name="e_0_energy">   -303.40837020 </i>
   </energy>
  </scstep>
  <scstep>
   <time name="total">   44.28   45.07</time>
   <energy>
    <i name="e_fr_energy">   -303.46352506 </i>
    <i name="e_wo_entrp">   -303.46165514 </i>
    <i name="e_0_energy">   -303.46259010 </i>
   </energy>
  </scstep>
  <scstep>
   <time name="total">   44.85   45.38</time>
   <energy>
    <i name="e_fr_energy">   -213.50508558 </i>
    <i name="e_wo_entrp">   -213.50282115 </i>
    <i name="e_0_energy">   -213.50395336 </i>
   </energy>
  </scstep>
  <scstep>
   <time name="total">   51.57   52.32</time>
   <energy>
    <i name="e_fr_energy">   -228.04113974 </i>
    <i name="e_wo_entrp">   -228.03926070 </i>
    <i name="e_0_energy">   -228.04020022 </i>
   </energy>
  </scstep>
  <scstep>
   <time name="total">   50.13   50.66</time>
   <energy>
    <i name="e_fr_energy">   -231.09364439 </i>
    <i name="e_wo_entrp">   -231.09052478 </i>
    <i name="e_0_energy">   -231.09208459 </i>
   </energy>
  </scstep>
  <scstep>
   <time name="total">   52.18   52.85</time>
   <energy>
    <i name="e_fr_energy">   -231.82930403 </i>
    <i name="e_wo_entrp">   -231.82641177 </i>
    <i name="e_0_energy">   -231.82785790 </i>
   </energy>
  </scstep>
  <scstep>
   <time name="total">   52.79   53.66</time>
   <energy>
    <i name="e_fr_energy">   -232.15456775 </i>
    <i name="e_wo_entrp">   -232.15152634 </i>
    <i name="e_0_energy">   -232.15304704 </i>
   </energy>
  </scstep>
  <scstep>
   <time name="total">   52.77   53.40</time>
   <energy>
    <i name="e_fr_energy">   -232.27477257 </i>
    <i name="e_wo_entrp">   -232.27168685 </i>
    <i name="e_0_energy">   -232.27322971 </i>
   </energy>
  </scstep>
  <scstep>
   <time name="total">   56.86   57.57</time>
   <energy>
    <i name="e_fr_energy">   -232.32127578 </i>
    <i name="e_wo_entrp">   -232.31835970 </i>
    <i name="e_0_energy">   -232.31981774 </i>
   </energy>
  </scstep>
  <scstep>
   <time name="total">   53.41   54.30</time>
   <energy>
    <i name="e_fr_energy">   -232.33883355 </i>
    <i name="e_wo_entrp">   -232.33606536 </i>
    <i name="e_0_energy">   -232.33744945 </i>
   </energy>
  </scstep>
  <scstep>
   <time name="total">   52.19   52.87</time>
   <energy>
    <i name="e_fr_energy">   -232.34493372 </i>
    <i name="e_wo_entrp">   -232.34224032 </i>
    <i name="e_0_energy">   -232.34358702 </i>
   </energy>
  </scstep>
  <scstep>
   <time name="total">   51.88   52.52</time>
   <energy>
    <i name="e_fr_energy">   -232.34716943 </i>
    <i name="e_wo_entrp">   -232.34449196 </i>
    <i name="e_0_energy">   -232.34583069 </i>
   </energy>
  </scstep>
  <scstep>
   <time name="total">   51.58   52.08</time>
   <energy>
    <i name="e_fr_energy">   -232.34798705 </i>
    <i name="e_wo_entrp">   -232.34531189 </i>
    <i name="e_0_energy">   -232.34664947 </i>
   </energy>
  </scstep>
  <scstep>
   <time name="total">   50.85   51.38</time>
   <energy>
    <i name="e_fr_energy">   -232.34830482 </i>
    <i name="e_wo_entrp">   -232.34562692 </i>
    <i name="e_0_energy">   -232.34696587 </i>
   </energy>
  </scstep>
  <scstep>
   <time name="total">   53.57   54.33</time>
   <energy>
    <i name="e_fr_energy">   -232.34854555 </i>
    <i name="e_wo_entrp">   -232.34585659 </i>
    <i name="e_0_energy">   -232.34720107 </i>
   </energy>
  </scstep>
  <scstep>
   <time name="total">   53.71   54.22</time>
   <energy>
    <i name="e_fr_energy">   -232.34866142 </i>
    <i name="e_wo_entrp">   -232.34596393 </i>
    <i name="e_0_energy">   -232.34731267 </i>
   </energy>
  </scstep>
  <scstep>
   <time name="total">   51.27   51.77</time>
   <energy>
    <i name="e_fr_energy">   -232.34869991 </i>
    <i name="e_wo_entrp">   -232.34599681 </i>
    <i name="e_0_energy">   -232.34734836 </i>
   </energy>
  </scstep>
  <scstep>
   <time name="total">   55.31   55.91</time>
   <energy>
    <i name="e_fr_energy">   -232.34871795 </i>
    <i name="e_wo_entrp">   -232.34601008 </i>
    <i name="e_0_energy">   -232.34736401 </i>
   </energy>
  </scstep>
  <scstep>
   <time name="total">   50.67   51.21</time>
   <energy>
    <i name="e_fr_energy">   -232.34872839 </i>
    <i name="e_wo_entrp">   -232.34601915 </i>
    <i name="e_0_energy">   -232.34737377 </i>
   </energy>
  </scstep>
  <scstep>
   <time name="total">   51.37   52.15</time>
   <energy>
    <i name="e_fr_energy">   -232.34873173 </i>
    <i name="e_wo_entrp">   -232.34602194 </i>
    <i name="e_0_energy">   -232.34737684 </i>
   </energy>
  </scstep>
  <scstep>
   <time name="total">   56.22   57.00</time>
   <energy>
    <i name="e_fr_energy">   -232.34873310 </i>
    <i name="e_wo_entrp">   -232.34602301 </i>
    <i name="e_0_energy">   -232.34737805 </i>
   </energy>
  </scstep>
  <scstep>
   <time name="total">   53.03   53.54</time>
   <energy>
    <i name="e_fr_energy">   -232.34873405 </i>
    <i name="e_wo_entrp">   -232.34602418 </i>
    <i name="e_0_energy">   -232.34737912 </i>
   </energy>
  </scstep>
  <scstep>
   <time name="total">   52.85   53.78</time>
   <energy>
    <i name="e_fr_energy">   -232.34873442 </i>
    <i name="e_wo_entrp">   -232.34602466 </i>
    <i name="e_0_energy">   -232.34737954 </i>
   </energy>
  </scstep>
  <scstep>
   <time name="total">   54.92   55.71</time>
   <energy>
    <i name="e_fr_energy">   -232.34873453 </i>
    <i name="e_wo_entrp">   -232.34602484 </i>
    <i name="e_0_energy">   -232.34737968 </i>
   </energy>
  </scstep>
  <scstep>
   <time name="total">   52.72   53.41</time>
   <energy>
    <i name="e_fr_energy">   -232.34873459 </i>
    <i name="e_wo_entrp">   -232.34602498 </i>
    <i name="e_0_energy">   -232.34737979 </i>
   </energy>
  </scstep>
  <scstep>
   <time name="total">   52.02   52.68</time>
   <energy>
    <i name="e_fr_energy">   -232.34873464 </i>
    <i name="e_wo_entrp">   -232.34602524 </i>
    <i name="e_0_energy">   -232.34737994 </i>
   </energy>
  </scstep>
  <scstep>
   <time name="total">   53.73   54.75</time>
   <energy>
    <i name="e_fr_energy">   -232.34873465 </i>
    <i name="e_wo_entrp">   -232.34602521 </i>
    <i name="e_0_energy">   -232.34737993 </i>
   </energy>
  </scstep>
  <scstep>
   <time name="total">   52.31   52.97</time>
   <energy>
    <i name="e_fr_energy">   -232.34873467 </i>
    <i name="e_wo_entrp">   -232.34602520 </i>
    <i name="e_0_energy">   -232.34737993 </i>
   </energy>
  </scstep>
  <scstep>
   <time name="total">   55.21   55.73</time>
   <energy>
    <i name="e_fr_energy">   -232.34873467 </i>
    <i name="e_wo_entrp">   -232.34602521 </i>
    <i name="e_0_energy">   -232.34737994 </i>
   </energy>
  </scstep>
  <scstep>
   <time name="total">   53.82   54.46</time>
   <energy>
    <i name="e_fr_energy">   -232.34873468 </i>
    <i name="e_wo_entrp">   -232.34602521 </i>
    <i name="e_0_energy">   -232.34737994 </i>
   </energy>
  </scstep>
  <scstep>
   <time name="total">   60.04   60.84</time>
   <energy>
    <i name="alphaZ">    860.24277673 </i>
    <i name="ewald"> -12574.08604222 </i>
    <i name="hartreedc">  -6217.25798811 </i>
    <i name="XCdc">    803.53671844 </i>
    <i name="pawpsdc">  34639.94316686 </i>
    <i name="pawaedc"> -34583.75524836 </i>
    <i name="eentropy">     -0.00270947 </i>
    <i name="bandstr">  -2338.40005595 </i>
    <i name="atom">  19177.43064738 </i>
    <i name="e_fr_energy">   -232.34873468 </i>
    <i name="e_wo_entrp">   -232.34602521 </i>
    <i name="e_0_energy">   -232.34737994 </i>
   </energy>
  </scstep>
  <structure>
   <crystal>
    <varray name="basis" >
     <v>       6.61720569       0.00000000      -2.25396941 </v>
     <v>      -3.39044394       5.68263153      -2.25396941 </v>
     <v>       0.00000000       0.00000000       6.99055000 </v>
    </varray>
    <i name="volume">    262.86664228 </i>
    <varray name="rec_basis" >
     <v>       0.15112119       0.09016385       0.00000000 </v>
     <v>       0.00000000       0.17597481       0.00000000 </v>
     <v>       0.04872614       0.08581133       0.14305026 </v>
    </varray>
   </crystal>
   <varray name="positions" >
    <v>       0.75000000       0.25000000       0.50000000 </v>
    <v>       0.25000000       0.75000000       0.50000000 </v>
    <v>       0.50000000       0.00000000       0.50000000 </v>
    <v>       0.74548000       0.52482000       0.27029000 </v>
    <v>       0.25452000       0.47518000       0.72971000 </v>
    <v>       0.00000000       0.50000000       0.50000000 </v>
    <v>       0.52482000       0.25452000       0.77934000 </v>
    <v>       0.47518000       0.74548000       0.22066000 </v>
    <v>       0.75452000       0.02482000       0.77934000 </v>
    <v>       0.24548000       0.97518000       0.22066000 </v>
    <v>       0.97518000       0.75452000       0.72971000 </v>
    <v>       0.02482000       0.24548000       0.27029000 </v>
    <v>       0.24291000       0.25709000       0.50000000 </v>
    <v>       0.75709000       0.74291000       0.50000000 </v>
    <v>       0.25709000       0.75709000       0.01419000 </v>
    <v>       0.74291000       0.24291000       0.98581000 </v>
   </varray>
  </structure>
  <varray name="forces" >
   <v>       0.00000000       0.00000000       0.00000000 </v>
   <v>       0.00000000       0.00000000       0.00000000 </v>
   <v>       0.00000000       0.00000000       0.00000000 </v>
   <v>       0.00000000       0.00000000       0.00000000 </v>
   <v>       0.00000000       0.00000000       0.00000000 </v>
   <v>       0.00000000       0.00000000       0.00000000 </v>
   <v>       0.00000000       0.00000000       0.00000000 </v>
   <v>       0.00000000       0.00000000       0.00000000 </v>
   <v>       0.00000000       0.00000000       0.00000000 </v>
   <v>       0.00000000       0.00000000       0.00000000 </v>
   <v>       0.00000000       0.00000000       0.00000000 </v>
   <v>       0.00000000       0.00000000       0.00000000 </v>
   <v>       0.00000000       0.00000000       0.00000000 </v>
   <v>       0.00000000       0.00000000       0.00000000 </v>
   <v>       0.00000000       0.00000000       0.00000000 </v>
   <v>       0.00000000       0.00000000       0.00000000 </v>
  </varray>
  <varray name="stress" >
   <v>       0.00000000       0.00000000       0.00000000 </v>
   <v>       0.00000000       0.00000000       0.00000000 </v>
   <v>       0.00000000       0.00000000       0.00000000 </v>
  </varray>
  <energy>
   <i name="e_fr_energy">   -232.34873468 </i>
   <i name="e_wo_entrp">   -232.34602521 </i>
   <i name="e_0_energy">   -232.34737994 </i>
  </energy>
  <time name="totalsc"> 1743.75 1766.89</time>
  <eigenvalues>
   <array>
    <dimension dim="1">band</dimension>
    <dimension dim="2">kpoint</dimension>
    <dimension dim="3">spin</dimension>
    <field>eigene</field>
    <field>occ</field>
    <set>
     <set comment="spin 1">
      <set comment="kpoint 1">
       <r>  -55.0629    1.0000 </r>
       <r>  -55.0390    1.0000 </r>
       <r>  -53.7975    1.0000 </r>
       <r>  -53.7973    1.0000 </r>
       <r>  -53.6749    1.0000 </r>
       <r>  -53.6646    1.0000 </r>
       <r>  -53.6645    1.0000 </r>
       <r>  -53.5951    1.0000 </r>
       <r>  -53.1380    1.0000 </r>
       <r>  -53.0724    1.0000 </r>
       <r>  -30.9544    1.0000 </r>
       <r>  -30.9538    1.0000 </r>
       <r>  -30.2719    1.0000 </r>
       <r>  -30.2715    1.0000 </r>
       <r>  -28.5225    1.0000 </r>
       <r>  -28.1632    1.0000 </r>
       <r>  -28.1573    1.0000 </r>
       <r>  -28.1569    1.0000 </r>
       <r>  -28.0867    1.0000 </r>
       <r>  -28.0822    1.0000 </r>
       <r>  -27.9094    1.0000 </r>
       <r>  -27.6642    1.0000 </r>
       <r>  -27.5928    1.0000 </r>
       <r>  -27.5511    1.0000 </r>
       <r>  -27.5509    1.0000 </r>
       <r>  -27.3640    1.0000 </r>
       <r>  -27.3392    1.0000 </r>
       <r>  -27.1262    1.0000 </r>
       <r>  -26.9668    1.0000 </r>
       <r>  -26.9667    1.0000 </r>
       <r>  -26.8939    1.0000 </r>
       <r>  -26.8595    1.0000 </r>
       <r>  -26.8595    1.0000 </r>
       <r>  -26.7923    1.0000 </r>
       <r>  -26.6381    1.0000 </r>
       <r>  -26.5768    1.0000 </r>
       <r>  -25.1826    1.0000 </r>
       <r>  -25.1825    1.0000 </r>
       <r>  -24.8852    1.0000 </r>
       <r>  -24.8850    1.0000 </r>
       <r>   -1.8595    1.0000 </r>
       <r>   -0.0339    1.0000 </r>
       <r>    0.7719    1.0000 </r>
       <r>    0.7722    1.0000 </r>
       <r>    1.0353    1.0000 </r>
       <r>    1.8812    1.0000 </r>
       <r>    2.3608    1.0000 </r>
       <r>    2.3610    1.0000 </r>
       <r>    2.3757    1.0000 </r>
       <r>    2.5020    1.0000 </r>
       <r>    2.5021    1.0000 </r>
       <r>    2.9652    1.0000 </r>
       <r>    3.2376    1.0000 </r>
       <r>    3.5553    1.0000 </r>
       <r>    3.8729    1.0000 </r>
       <r>    3.8768    1.0000 </r>
       <r>    4.0820    1.0000 </r>
       <r>    4.0820    1.0000 </r>
       <r>    4.4331    1.0000 </r>
       <r>    4.4339    1.0000 </r>
       <r>    4.7173    1.0000 </r>
       <r>    4.7176    1.0000 </r>
       <r>    4.8745    1.0000 </r>
       <r>    5.6134    1.0000 </r>
       <r>    5.8834    1.0000 </r>
       <r>    5.8836    1.0000 </r>
       <r>    6.1995    1.0000 </r>
       <r>    6.1996    1.0000 </r>
       <r>    6.8581    1.0000 </r>
       <r>    6.8586    1.0000 </r>
       <r>    7.0069    1.0000 </r>
       <r>    7.0459    1.0000 </r>
       <r>    7.0581    1.0000 </r>
       <r>    7.1383    1.0000 </r>
       <r>    8.2511    1.0000 </r>
       <r>    8.2513    1.0000 </r>
       <r>    8.2763    1.0000 </r>
       <r>    8.2764    1.0000 </r>
       <r>    8.6574    1.0000 </r>
       <r>    9.3649    0.0000 </r>
       <r>    9.6154    0.0000 </r>
       <r>    9.6155    0.0000 </r>
       <r>    9.6354    0.0000 </r>
       <r>    9.7487    0.0000 </r>
       <r>    9.7741    0.0000 </r>
       <r>    9.9051    0.0000 </r>
       <r>    9.9054    0.0000 </r>
       <r>   10.2990    0.0000 </r>
       <r>   10.2993    0.0000 </r>
       <r>   10.3384    0.0000 </r>
       <r>   10.3516    0.0000 </r>
       <r>   10.6482    0.0000 </r>
       <r>   10.6705    0.0000 </r>
       <r>   10.6707    0.0000 </r>
       <r>   10.6808    0.0000 </r>
       <r>   11.4783    0.0000 </r>
       <r>   11.8385    0.0000 </r>
       <r>   12.0825    0.0000 </r>
       <r>   12.2571    0.0000 </r>
       <r>   12.2751    0.0000 </r>
       <r>   12.2826    0.0000 </r>
       <r>   12.2996    0.0000 </r>
      </set>
      <set comment="kpoint 2">
       <r>  -55.0613    1.0000 </r>
       <r>  -55.0406    1.0000 </r>
       <r>  -53.7983    1.0000 </r>
       <r>  -53.7980    1.0000 </r>
       <r>  -53.6768    1.0000 </r>
       <r>  -53.6663    1.0000 </r>
       <r>  -53.6567    1.0000 </r>
       <r>  -53.5984    1.0000 </r>
       <r>  -53.1334    1.0000 </r>
       <r>  -53.0765    1.0000 </r>
       <r>  -30.9546    1.0000 </r>
       <r>  -30.9540    1.0000 </r>
       <r>  -30.2726    1.0000 </r>
       <r>  -30.2722    1.0000 </r>
       <r>  -28.5070    1.0000 </r>
       <r>  -28.2446    1.0000 </r>
       <r>  -28.1551    1.0000 </r>
       <r>  -28.1030    1.0000 </r>
       <r>  -28.0864    1.0000 </r>
       <r>  -28.0825    1.0000 </r>
       <r>  -27.8671    1.0000 </r>
       <r>  -27.6686    1.0000 </r>
       <r>  -27.6495    1.0000 </r>
       <r>  -27.5810    1.0000 </r>
       <r>  -27.4748    1.0000 </r>
       <r>  -27.3660    1.0000 </r>
       <r>  -27.3322    1.0000 </r>
       <r>  -27.1476    1.0000 </r>
       <r>  -26.9684    1.0000 </r>
       <r>  -26.9672    1.0000 </r>
       <r>  -26.8887    1.0000 </r>
       <r>  -26.8622    1.0000 </r>
       <r>  -26.8566    1.0000 </r>
       <r>  -26.7964    1.0000 </r>
       <r>  -26.6335    1.0000 </r>
       <r>  -26.5805    1.0000 </r>
       <r>  -25.1816    1.0000 </r>
       <r>  -25.1815    1.0000 </r>
       <r>  -24.8862    1.0000 </r>
       <r>  -24.8861    1.0000 </r>
       <r>   -1.7382    1.0000 </r>
       <r>    0.0388    1.0000 </r>
       <r>    0.4575    1.0000 </r>
       <r>    0.8160    1.0000 </r>
       <r>    1.1193    1.0000 </r>
       <r>    1.8186    1.0000 </r>
       <r>    1.8374    1.0000 </r>
       <r>    2.1427    1.0000 </r>
       <r>    2.4355    1.0000 </r>
       <r>    2.4440    1.0000 </r>
       <r>    2.5450    1.0000 </r>
       <r>    3.1868    1.0000 </r>
       <r>    3.6315    1.0000 </r>
       <r>    3.7326    1.0000 </r>
       <r>    3.8283    1.0000 </r>
       <r>    3.8770    1.0000 </r>
       <r>    3.9110    1.0000 </r>
       <r>    4.0373    1.0000 </r>
       <r>    4.5047    1.0000 </r>
       <r>    4.5715    1.0000 </r>
       <r>    4.7619    1.0000 </r>
       <r>    4.8184    1.0000 </r>
       <r>    4.8740    1.0000 </r>
       <r>    5.7472    1.0000 </r>
       <r>    5.9220    1.0000 </r>
       <r>    6.0880    1.0000 </r>
       <r>    6.2697    1.0000 </r>
       <r>    6.3884    1.0000 </r>
       <r>    6.7500    1.0000 </r>
       <r>    6.7813    1.0000 </r>
       <r>    6.9523    1.0000 </r>
       <r>    7.0950    1.0000 </r>
       <r>    7.1107    1.0000 </r>
       <r>    7.3572    1.0000 </r>
       <r>    8.0949    1.0000 </r>
       <r>    8.1865    1.0000 </r>
       <r>    8.2294    1.0000 </r>
       <r>    8.3873    1.0000 </r>
       <r>    8.6338    1.0000 </r>
       <r>    8.9069    0.2830 </r>
       <r>    9.1779    0.0000 </r>
       <r>    9.2228    0.0000 </r>
       <r>    9.4736    0.0000 </r>
       <r>    9.5018    0.0000 </r>
       <r>    9.5801    0.0000 </r>
       <r>    9.7372    0.0000 </r>
       <r>   10.0865    0.0000 </r>
       <r>   10.1169    0.0000 </r>
       <r>   10.1639    0.0000 </r>
       <r>   10.2829    0.0000 </r>
       <r>   10.3707    0.0000 </r>
       <r>   10.5241    0.0000 </r>
       <r>   10.9270    0.0000 </r>
       <r>   10.9987    0.0000 </r>
       <r>   11.0647    0.0000 </r>
       <r>   11.6325    0.0000 </r>
       <r>   11.7822    0.0000 </r>
       <r>   11.9008    0.0000 </r>
       <r>   12.0368    0.0000 </r>
       <r>   12.2791    0.0000 </r>
       <r>   12.3738    0.0000 </r>
       <r>   12.7333    0.0000 </r>
      </set>
      <set comment="kpoint 3">
       <r>  -55.0613    1.0000 </r>
       <r>  -55.0406    1.0000 </r>
       <r>  -53.7983    1.0000 </r>
       <r>  -53.7980    1.0000 </r>
       <r>  -53.6768    1.0000 </r>
       <r>  -53.6663    1.0000 </r>
       <r>  -53.6567    1.0000 </r>
       <r>  -53.5984    1.0000 </r>
       <r>  -53.1334    1.0000 </r>
       <r>  -53.0765    1.0000 </r>
       <r>  -30.9546    1.0000 </r>
       <r>  -30.9540    1.0000 </r>
       <r>  -30.2726    1.0000 </r>
       <r>  -30.2722    1.0000 </r>
       <r>  -28.5070    1.0000 </r>
       <r>  -28.2446    1.0000 </r>
       <r>  -28.1551    1.0000 </r>
       <r>  -28.1030    1.0000 </r>
       <r>  -28.0864    1.0000 </r>
       <r>  -28.0825    1.0000 </r>
       <r>  -27.8671    1.0000 </r>
       <r>  -27.6686    1.0000 </r>
       <r>  -27.6495    1.0000 </r>
       <r>  -27.5810    1.0000 </r>
       <r>  -27.4748    1.0000 </r>
       <r>  -27.3660    1.0000 </r>
       <r>  -27.3322    1.0000 </r>
       <r>  -27.1476    1.0000 </r>
       <r>  -26.9684    1.0000 </r>
       <r>  -26.9672    1.0000 </r>
       <r>  -26.8887    1.0000 </r>
       <r>  -26.8622    1.0000 </r>
       <r>  -26.8566    1.0000 </r>
       <r>  -26.7964    1.0000 </r>
       <r>  -26.6335    1.0000 </r>
       <r>  -26.5805    1.0000 </r>
       <r>  -25.1816    1.0000 </r>
       <r>  -25.1815    1.0000 </r>
       <r>  -24.8862    1.0000 </r>
       <r>  -24.8861    1.0000 </r>
       <r>   -1.7382    1.0000 </r>
       <r>    0.0388    1.0000 </r>
       <r>    0.4575    1.0000 </r>
       <r>    0.8160    1.0000 </r>
       <r>    1.1193    1.0000 </r>
       <r>    1.8186    1.0000 </r>
       <r>    1.8374    1.0000 </r>
       <r>    2.1427    1.0000 </r>
       <r>    2.4355    1.0000 </r>
       <r>    2.4440    1.0000 </r>
       <r>    2.5450    1.0000 </r>
       <r>    3.1868    1.0000 </r>
       <r>    3.6315    1.0000 </r>
       <r>    3.7326    1.0000 </r>
       <r>    3.8283    1.0000 </r>
       <r>    3.8770    1.0000 </r>
       <r>    3.9110    1.0000 </r>
       <r>    4.0373    1.0000 </r>
       <r>    4.5047    1.0000 </r>
       <r>    4.5715    1.0000 </r>
       <r>    4.7619    1.0000 </r>
       <r>    4.8184    1.0000 </r>
       <r>    4.8740    1.0000 </r>
       <r>    5.7472    1.0000 </r>
       <r>    5.9220    1.0000 </r>
       <r>    6.0880    1.0000 </r>
       <r>    6.2697    1.0000 </r>
       <r>    6.3884    1.0000 </r>
       <r>    6.7500    1.0000 </r>
       <r>    6.7813    1.0000 </r>
       <r>    6.9522    1.0000 </r>
       <r>    7.0950    1.0000 </r>
       <r>    7.1107    1.0000 </r>
       <r>    7.3572    1.0000 </r>
       <r>    8.0949    1.0000 </r>
       <r>    8.1865    1.0000 </r>
       <r>    8.2294    1.0000 </r>
       <r>    8.3873    1.0000 </r>
       <r>    8.6338    1.0000 </r>
       <r>    8.9069    0.2828 </r>
       <r>    9.1778    0.0000 </r>
       <r>    9.2228    0.0000 </r>
       <r>    9.4736    0.0000 </r>
       <r>    9.5018    0.0000 </r>
       <r>    9.5801    0.0000 </r>
       <r>    9.7372    0.0000 </r>
       <r>   10.0865    0.0000 </r>
       <r>   10.1170    0.0000 </r>
       <r>   10.1639    0.0000 </r>
       <r>   10.2829    0.0000 </r>
       <r>   10.3707    0.0000 </r>
       <r>   10.5241    0.0000 </r>
       <r>   10.9270    0.0000 </r>
       <r>   10.9986    0.0000 </r>
       <r>   11.0648    0.0000 </r>
       <r>   11.6286    0.0000 </r>
       <r>   11.7909    0.0000 </r>
       <r>   11.8995    0.0000 </r>
       <r>   12.0334    0.0000 </r>
       <r>   12.3156    0.0000 </r>
       <r>   12.5107    0.0000 </r>
       <r>   12.7344    0.0000 </r>
      </set>
      <set comment="kpoint 4">
       <r>  -55.0569    1.0000 </r>
       <r>  -55.0449    1.0000 </r>
       <r>  -53.7999    1.0000 </r>
       <r>  -53.7993    1.0000 </r>
       <r>  -53.6770    1.0000 </r>
       <r>  -53.6703    1.0000 </r>
       <r>  -53.6408    1.0000 </r>
       <r>  -53.6082    1.0000 </r>
       <r>  -53.1208    1.0000 </r>
       <r>  -53.0880    1.0000 </r>
       <r>  -30.9551    1.0000 </r>
       <r>  -30.9544    1.0000 </r>
       <r>  -30.2739    1.0000 </r>
       <r>  -30.2735    1.0000 </r>
       <r>  -28.4650    1.0000 </r>
       <r>  -28.3302    1.0000 </r>
       <r>  -28.1407    1.0000 </r>
       <r>  -28.0866    1.0000 </r>
       <r>  -28.0857    1.0000 </r>
       <r>  -28.0835    1.0000 </r>
       <r>  -27.7847    1.0000 </r>
       <r>  -27.7108    1.0000 </r>
       <r>  -27.6767    1.0000 </r>
       <r>  -27.6014    1.0000 </r>
       <r>  -27.4064    1.0000 </r>
       <r>  -27.3846    1.0000 </r>
       <r>  -27.3033    1.0000 </r>
       <r>  -27.2037    1.0000 </r>
       <r>  -26.9704    1.0000 </r>
       <r>  -26.9685    1.0000 </r>
       <r>  -26.8802    1.0000 </r>
       <r>  -26.8682    1.0000 </r>
       <r>  -26.8452    1.0000 </r>
       <r>  -26.8085    1.0000 </r>
       <r>  -26.6212    1.0000 </r>
       <r>  -26.5908    1.0000 </r>
       <r>  -25.1796    1.0000 </r>
       <r>  -25.1795    1.0000 </r>
       <r>  -24.8882    1.0000 </r>
       <r>  -24.8881    1.0000 </r>
       <r>   -1.3861    1.0000 </r>
       <r>   -0.1764    1.0000 </r>
       <r>    0.2585    1.0000 </r>
       <r>    0.9593    1.0000 </r>
       <r>    1.1453    1.0000 </r>
       <r>    1.2867    1.0000 </r>
       <r>    1.6397    1.0000 </r>
       <r>    1.7020    1.0000 </r>
       <r>    2.6097    1.0000 </r>
       <r>    2.6287    1.0000 </r>
       <r>    2.7008    1.0000 </r>
       <r>    3.1394    1.0000 </r>
       <r>    3.4874    1.0000 </r>
       <r>    3.5438    1.0000 </r>
       <r>    3.7468    1.0000 </r>
       <r>    3.8712    1.0000 </r>
       <r>    4.0330    1.0000 </r>
       <r>    4.3327    1.0000 </r>
       <r>    4.5458    1.0000 </r>
       <r>    4.9255    1.0000 </r>
       <r>    4.9733    1.0000 </r>
       <r>    5.1035    1.0000 </r>
       <r>    5.5631    1.0000 </r>
       <r>    5.8105    1.0000 </r>
       <r>    5.8330    1.0000 </r>
       <r>    6.1527    1.0000 </r>
       <r>    6.3422    1.0000 </r>
       <r>    6.5189    1.0000 </r>
       <r>    6.6541    1.0000 </r>
       <r>    6.8947    1.0000 </r>
       <r>    7.0554    1.0000 </r>
       <r>    7.1635    1.0000 </r>
       <r>    7.1805    1.0000 </r>
       <r>    7.4701    1.0000 </r>
       <r>    7.9148    1.0000 </r>
       <r>    8.0594    1.0000 </r>
       <r>    8.1413    1.0000 </r>
       <r>    8.4263    1.0000 </r>
       <r>    8.5294    1.0000 </r>
       <r>    8.5516    1.0000 </r>
       <r>    8.8170    1.0000 </r>
       <r>    8.8879    0.7805 </r>
       <r>    9.0773    0.0000 </r>
       <r>    9.2082    0.0000 </r>
       <r>    9.3152    0.0000 </r>
       <r>    9.6626    0.0000 </r>
       <r>    9.7090    0.0000 </r>
       <r>    9.8877    0.0000 </r>
       <r>    9.9758    0.0000 </r>
       <r>   10.1895    0.0000 </r>
       <r>   10.2475    0.0000 </r>
       <r>   10.3526    0.0000 </r>
       <r>   11.2102    0.0000 </r>
       <r>   11.2336    0.0000 </r>
       <r>   11.3054    0.0000 </r>
       <r>   11.5917    0.0000 </r>
       <r>   11.8658    0.0000 </r>
       <r>   11.8766    0.0000 </r>
       <r>   12.0056    0.0000 </r>
       <r>   12.3117    0.0000 </r>
       <r>   12.6553    0.0000 </r>
       <r>   12.8211    0.0000 </r>
      </set>
      <set comment="kpoint 5">
       <r>  -55.0569    1.0000 </r>
       <r>  -55.0449    1.0000 </r>
       <r>  -53.7999    1.0000 </r>
       <r>  -53.7993    1.0000 </r>
       <r>  -53.6770    1.0000 </r>
       <r>  -53.6703    1.0000 </r>
       <r>  -53.6408    1.0000 </r>
       <r>  -53.6082    1.0000 </r>
       <r>  -53.1208    1.0000 </r>
       <r>  -53.0880    1.0000 </r>
       <r>  -30.9551    1.0000 </r>
       <r>  -30.9544    1.0000 </r>
       <r>  -30.2739    1.0000 </r>
       <r>  -30.2735    1.0000 </r>
       <r>  -28.4650    1.0000 </r>
       <r>  -28.3302    1.0000 </r>
       <r>  -28.1407    1.0000 </r>
       <r>  -28.0866    1.0000 </r>
       <r>  -28.0857    1.0000 </r>
       <r>  -28.0835    1.0000 </r>
       <r>  -27.7847    1.0000 </r>
       <r>  -27.7108    1.0000 </r>
       <r>  -27.6767    1.0000 </r>
       <r>  -27.6014    1.0000 </r>
       <r>  -27.4064    1.0000 </r>
       <r>  -27.3846    1.0000 </r>
       <r>  -27.3033    1.0000 </r>
       <r>  -27.2037    1.0000 </r>
       <r>  -26.9704    1.0000 </r>
       <r>  -26.9685    1.0000 </r>
       <r>  -26.8802    1.0000 </r>
       <r>  -26.8682    1.0000 </r>
       <r>  -26.8452    1.0000 </r>
       <r>  -26.8085    1.0000 </r>
       <r>  -26.6212    1.0000 </r>
       <r>  -26.5908    1.0000 </r>
       <r>  -25.1796    1.0000 </r>
       <r>  -25.1795    1.0000 </r>
       <r>  -24.8882    1.0000 </r>
       <r>  -24.8881    1.0000 </r>
       <r>   -1.3861    1.0000 </r>
       <r>   -0.1764    1.0000 </r>
       <r>    0.2585    1.0000 </r>
       <r>    0.9593    1.0000 </r>
       <r>    1.1453    1.0000 </r>
       <r>    1.2867    1.0000 </r>
       <r>    1.6397    1.0000 </r>
       <r>    1.7020    1.0000 </r>
       <r>    2.6097    1.0000 </r>
       <r>    2.6287    1.0000 </r>
       <r>    2.7008    1.0000 </r>
       <r>    3.1394    1.0000 </r>
       <r>    3.4875    1.0000 </r>
       <r>    3.5438    1.0000 </r>
       <r>    3.7468    1.0000 </r>
       <r>    3.8712    1.0000 </r>
       <r>    4.0330    1.0000 </r>
       <r>    4.3327    1.0000 </r>
       <r>    4.5458    1.0000 </r>
       <r>    4.9255    1.0000 </r>
       <r>    4.9733    1.0000 </r>
       <r>    5.1035    1.0000 </r>
       <r>    5.5631    1.0000 </r>
       <r>    5.8105    1.0000 </r>
       <r>    5.8330    1.0000 </r>
       <r>    6.1528    1.0000 </r>
       <r>    6.3422    1.0000 </r>
       <r>    6.5189    1.0000 </r>
       <r>    6.6541    1.0000 </r>
       <r>    6.8947    1.0000 </r>
       <r>    7.0554    1.0000 </r>
       <r>    7.1635    1.0000 </r>
       <r>    7.1805    1.0000 </r>
       <r>    7.4701    1.0000 </r>
       <r>    7.9149    1.0000 </r>
       <r>    8.0595    1.0000 </r>
       <r>    8.1412    1.0000 </r>
       <r>    8.4263    1.0000 </r>
       <r>    8.5294    1.0000 </r>
       <r>    8.5515    1.0000 </r>
       <r>    8.8170    1.0000 </r>
       <r>    8.8880    0.7782 </r>
       <r>    9.0774    0.0000 </r>
       <r>    9.2083    0.0000 </r>
       <r>    9.3152    0.0000 </r>
       <r>    9.6626    0.0000 </r>
       <r>    9.7089    0.0000 </r>
       <r>    9.8877    0.0000 </r>
       <r>    9.9758    0.0000 </r>
       <r>   10.1895    0.0000 </r>
       <r>   10.2474    0.0000 </r>
       <r>   10.3526    0.0000 </r>
       <r>   11.2101    0.0000 </r>
       <r>   11.2337    0.0000 </r>
       <r>   11.3057    0.0000 </r>
       <r>   11.5896    0.0000 </r>
       <r>   11.8582    0.0000 </r>
       <r>   11.8793    0.0000 </r>
       <r>   12.0053    0.0000 </r>
       <r>   12.2999    0.0000 </r>
       <r>   12.6769    0.0000 </r>
       <r>   12.9260    0.0000 </r>
      </set>
      <set comment="kpoint 6">
       <r>  -55.0511    1.0000 </r>
       <r>  -55.0507    1.0000 </r>
       <r>  -53.8004    1.0000 </r>
       <r>  -53.8002    1.0000 </r>
       <r>  -53.6746    1.0000 </r>
       <r>  -53.6745    1.0000 </r>
       <r>  -53.6233    1.0000 </r>
       <r>  -53.6232    1.0000 </r>
       <r>  -53.1042    1.0000 </r>
       <r>  -53.1041    1.0000 </r>
       <r>  -30.9553    1.0000 </r>
       <r>  -30.9546    1.0000 </r>
       <r>  -30.2746    1.0000 </r>
       <r>  -30.2742    1.0000 </r>
       <r>  -28.4046    1.0000 </r>
       <r>  -28.4044    1.0000 </r>
       <r>  -28.1094    1.0000 </r>
       <r>  -28.1093    1.0000 </r>
       <r>  -28.0848    1.0000 </r>
       <r>  -28.0845    1.0000 </r>
       <r>  -27.7380    1.0000 </r>
       <r>  -27.7379    1.0000 </r>
       <r>  -27.6477    1.0000 </r>
       <r>  -27.6475    1.0000 </r>
       <r>  -27.3808    1.0000 </r>
       <r>  -27.3808    1.0000 </r>
       <r>  -27.2662    1.0000 </r>
       <r>  -27.2661    1.0000 </r>
       <r>  -26.9702    1.0000 </r>
       <r>  -26.9702    1.0000 </r>
       <r>  -26.8743    1.0000 </r>
       <r>  -26.8742    1.0000 </r>
       <r>  -26.8266    1.0000 </r>
       <r>  -26.8266    1.0000 </r>
       <r>  -26.6056    1.0000 </r>
       <r>  -26.6055    1.0000 </r>
       <r>  -25.1785    1.0000 </r>
       <r>  -25.1785    1.0000 </r>
       <r>  -24.8893    1.0000 </r>
       <r>  -24.8891    1.0000 </r>
       <r>   -0.8405    1.0000 </r>
       <r>   -0.8405    1.0000 </r>
       <r>    0.6285    1.0000 </r>
       <r>    0.6286    1.0000 </r>
       <r>    1.2221    1.0000 </r>
       <r>    1.2222    1.0000 </r>
       <r>    1.5031    1.0000 </r>
       <r>    1.5034    1.0000 </r>
       <r>    2.7383    1.0000 </r>
       <r>    2.7385    1.0000 </r>
       <r>    2.9716    1.0000 </r>
       <r>    2.9716    1.0000 </r>
       <r>    3.2817    1.0000 </r>
       <r>    3.2818    1.0000 </r>
       <r>    3.8180    1.0000 </r>
       <r>    3.8182    1.0000 </r>
       <r>    4.1443    1.0000 </r>
       <r>    4.1444    1.0000 </r>
       <r>    4.9984    1.0000 </r>
       <r>    4.9985    1.0000 </r>
       <r>    5.4504    1.0000 </r>
       <r>    5.4507    1.0000 </r>
       <r>    5.5480    1.0000 </r>
       <r>    5.5481    1.0000 </r>
       <r>    6.0509    1.0000 </r>
       <r>    6.0509    1.0000 </r>
       <r>    6.5223    1.0000 </r>
       <r>    6.5223    1.0000 </r>
       <r>    6.7162    1.0000 </r>
       <r>    6.7162    1.0000 </r>
       <r>    7.0303    1.0000 </r>
       <r>    7.0303    1.0000 </r>
       <r>    7.3136    1.0000 </r>
       <r>    7.3137    1.0000 </r>
       <r>    7.8841    1.0000 </r>
       <r>    7.8841    1.0000 </r>
       <r>    8.4685    1.0000 </r>
       <r>    8.4687    1.0000 </r>
       <r>    8.5018    1.0000 </r>
       <r>    8.5018    1.0000 </r>
       <r>    8.7887    1.0000 </r>
       <r>    8.7888    1.0000 </r>
       <r>    9.1037    0.0000 </r>
       <r>    9.1039    0.0000 </r>
       <r>    9.2590    0.0000 </r>
       <r>    9.2591    0.0000 </r>
       <r>    9.5927    0.0000 </r>
       <r>    9.5928    0.0000 </r>
       <r>    9.9560    0.0000 </r>
       <r>    9.9562    0.0000 </r>
       <r>   10.2693    0.0000 </r>
       <r>   10.2694    0.0000 </r>
       <r>   11.1997    0.0000 </r>
       <r>   11.2001    0.0000 </r>
       <r>   11.3723    0.0000 </r>
       <r>   11.3724    0.0000 </r>
       <r>   12.0433    0.0000 </r>
       <r>   12.0467    0.0000 </r>
       <r>   12.3444    0.0000 </r>
       <r>   12.3598    0.0000 </r>
       <r>   12.5704    0.0000 </r>
       <r>   12.6508    0.0000 </r>
      </set>
      <set comment="kpoint 7">
       <r>  -55.0511    1.0000 </r>
       <r>  -55.0507    1.0000 </r>
       <r>  -53.8004    1.0000 </r>
       <r>  -53.8002    1.0000 </r>
       <r>  -53.6746    1.0000 </r>
       <r>  -53.6745    1.0000 </r>
       <r>  -53.6233    1.0000 </r>
       <r>  -53.6232    1.0000 </r>
       <r>  -53.1042    1.0000 </r>
       <r>  -53.1041    1.0000 </r>
       <r>  -30.9553    1.0000 </r>
       <r>  -30.9546    1.0000 </r>
       <r>  -30.2746    1.0000 </r>
       <r>  -30.2742    1.0000 </r>
       <r>  -28.4046    1.0000 </r>
       <r>  -28.4044    1.0000 </r>
       <r>  -28.1094    1.0000 </r>
       <r>  -28.1093    1.0000 </r>
       <r>  -28.0848    1.0000 </r>
       <r>  -28.0845    1.0000 </r>
       <r>  -27.7380    1.0000 </r>
       <r>  -27.7379    1.0000 </r>
       <r>  -27.6477    1.0000 </r>
       <r>  -27.6475    1.0000 </r>
       <r>  -27.3808    1.0000 </r>
       <r>  -27.3808    1.0000 </r>
       <r>  -27.2662    1.0000 </r>
       <r>  -27.2661    1.0000 </r>
       <r>  -26.9702    1.0000 </r>
       <r>  -26.9702    1.0000 </r>
       <r>  -26.8743    1.0000 </r>
       <r>  -26.8742    1.0000 </r>
       <r>  -26.8266    1.0000 </r>
       <r>  -26.8266    1.0000 </r>
       <r>  -26.6056    1.0000 </r>
       <r>  -26.6055    1.0000 </r>
       <r>  -25.1785    1.0000 </r>
       <r>  -25.1785    1.0000 </r>
       <r>  -24.8893    1.0000 </r>
       <r>  -24.8891    1.0000 </r>
       <r>   -0.8406    1.0000 </r>
       <r>   -0.8404    1.0000 </r>
       <r>    0.6285    1.0000 </r>
       <r>    0.6286    1.0000 </r>
       <r>    1.2221    1.0000 </r>
       <r>    1.2222    1.0000 </r>
       <r>    1.5031    1.0000 </r>
       <r>    1.5034    1.0000 </r>
       <r>    2.7383    1.0000 </r>
       <r>    2.7385    1.0000 </r>
       <r>    2.9716    1.0000 </r>
       <r>    2.9716    1.0000 </r>
       <r>    3.2817    1.0000 </r>
       <r>    3.2818    1.0000 </r>
       <r>    3.8180    1.0000 </r>
       <r>    3.8182    1.0000 </r>
       <r>    4.1443    1.0000 </r>
       <r>    4.1444    1.0000 </r>
       <r>    4.9983    1.0000 </r>
       <r>    4.9985    1.0000 </r>
       <r>    5.4505    1.0000 </r>
       <r>    5.4507    1.0000 </r>
       <r>    5.5480    1.0000 </r>
       <r>    5.5481    1.0000 </r>
       <r>    6.0508    1.0000 </r>
       <r>    6.0509    1.0000 </r>
       <r>    6.5223    1.0000 </r>
       <r>    6.5223    1.0000 </r>
       <r>    6.7162    1.0000 </r>
       <r>    6.7162    1.0000 </r>
       <r>    7.0303    1.0000 </r>
       <r>    7.0303    1.0000 </r>
       <r>    7.3135    1.0000 </r>
       <r>    7.3136    1.0000 </r>
       <r>    7.8841    1.0000 </r>
       <r>    7.8842    1.0000 </r>
       <r>    8.4685    1.0000 </r>
       <r>    8.4686    1.0000 </r>
       <r>    8.5018    1.0000 </r>
       <r>    8.5018    1.0000 </r>
       <r>    8.7889    1.0000 </r>
       <r>    8.7889    1.0000 </r>
       <r>    9.1037    0.0000 </r>
       <r>    9.1039    0.0000 </r>
       <r>    9.2590    0.0000 </r>
       <r>    9.2590    0.0000 </r>
       <r>    9.5927    0.0000 </r>
       <r>    9.5928    0.0000 </r>
       <r>    9.9559    0.0000 </r>
       <r>    9.9562    0.0000 </r>
       <r>   10.2694    0.0000 </r>
       <r>   10.2694    0.0000 </r>
       <r>   11.1995    0.0000 </r>
       <r>   11.1997    0.0000 </r>
       <r>   11.3724    0.0000 </r>
       <r>   11.3732    0.0000 </r>
       <r>   12.0483    0.0000 </r>
       <r>   12.0540    0.0000 </r>
       <r>   12.3383    0.0000 </r>
       <r>   12.3647    0.0000 </r>
       <r>   12.5731    0.0000 </r>
       <r>   12.9882    0.0000 </r>
      </set>
      <set comment="kpoint 8">
       <r>  -55.0599    1.0000 </r>
       <r>  -55.0419    1.0000 </r>
       <r>  -53.8003    1.0000 </r>
       <r>  -53.7984    1.0000 </r>
       <r>  -53.6762    1.0000 </r>
       <r>  -53.6645    1.0000 </r>
       <r>  -53.6539    1.0000 </r>
       <r>  -53.6015    1.0000 </r>
       <r>  -53.1294    1.0000 </r>
       <r>  -53.0802    1.0000 </r>
       <r>  -30.9558    1.0000 </r>
       <r>  -30.9536    1.0000 </r>
       <r>  -30.2738    1.0000 </r>
       <r>  -30.2714    1.0000 </r>
       <r>  -28.4918    1.0000 </r>
       <r>  -28.2545    1.0000 </r>
       <r>  -28.2014    1.0000 </r>
       <r>  -28.0879    1.0000 </r>
       <r>  -28.0813    1.0000 </r>
       <r>  -28.0643    1.0000 </r>
       <r>  -27.8514    1.0000 </r>
       <r>  -27.7067    1.0000 </r>
       <r>  -27.6428    1.0000 </r>
       <r>  -27.5489    1.0000 </r>
       <r>  -27.4829    1.0000 </r>
       <r>  -27.3464    1.0000 </r>
       <r>  -27.3408    1.0000 </r>
       <r>  -27.1619    1.0000 </r>
       <r>  -26.9711    1.0000 </r>
       <r>  -26.9666    1.0000 </r>
       <r>  -26.8825    1.0000 </r>
       <r>  -26.8613    1.0000 </r>
       <r>  -26.8559    1.0000 </r>
       <r>  -26.8019    1.0000 </r>
       <r>  -26.6308    1.0000 </r>
       <r>  -26.5830    1.0000 </r>
       <r>  -25.1885    1.0000 </r>
       <r>  -25.1806    1.0000 </r>
       <r>  -24.8855    1.0000 </r>
       <r>  -24.8828    1.0000 </r>
       <r>   -1.5583    1.0000 </r>
       <r>    0.2450    1.0000 </r>
       <r>    0.3861    1.0000 </r>
       <r>    0.4956    1.0000 </r>
       <r>    1.1382    1.0000 </r>
       <r>    1.2299    1.0000 </r>
       <r>    1.7829    1.0000 </r>
       <r>    1.8958    1.0000 </r>
       <r>    2.5748    1.0000 </r>
       <r>    2.6577    1.0000 </r>
       <r>    2.6647    1.0000 </r>
       <r>    3.2976    1.0000 </r>
       <r>    3.4856    1.0000 </r>
       <r>    3.6434    1.0000 </r>
       <r>    3.7284    1.0000 </r>
       <r>    3.8828    1.0000 </r>
       <r>    3.9066    1.0000 </r>
       <r>    4.5099    1.0000 </r>
       <r>    4.5979    1.0000 </r>
       <r>    4.6998    1.0000 </r>
       <r>    4.8514    1.0000 </r>
       <r>    4.8968    1.0000 </r>
       <r>    4.9899    1.0000 </r>
       <r>    5.7677    1.0000 </r>
       <r>    5.8735    1.0000 </r>
       <r>    6.2257    1.0000 </r>
       <r>    6.3695    1.0000 </r>
       <r>    6.6390    1.0000 </r>
       <r>    6.7988    1.0000 </r>
       <r>    6.8604    1.0000 </r>
       <r>    7.0120    1.0000 </r>
       <r>    7.0784    1.0000 </r>
       <r>    7.2198    1.0000 </r>
       <r>    7.5654    1.0000 </r>
       <r>    8.0056    1.0000 </r>
       <r>    8.1465    1.0000 </r>
       <r>    8.1903    1.0000 </r>
       <r>    8.2396    1.0000 </r>
       <r>    8.3371    1.0000 </r>
       <r>    8.4945    1.0000 </r>
       <r>    8.6533    1.0000 </r>
       <r>    8.9929    0.0000 </r>
       <r>    9.3124    0.0000 </r>
       <r>    9.3452    0.0000 </r>
       <r>    9.7347    0.0000 </r>
       <r>    9.7443    0.0000 </r>
       <r>    9.8591    0.0000 </r>
       <r>    9.9962    0.0000 </r>
       <r>   10.1137    0.0000 </r>
       <r>   10.1465    0.0000 </r>
       <r>   10.3065    0.0000 </r>
       <r>   10.4610    0.0000 </r>
       <r>   11.0941    0.0000 </r>
       <r>   11.2752    0.0000 </r>
       <r>   11.3748    0.0000 </r>
       <r>   11.4791    0.0000 </r>
       <r>   11.7833    0.0000 </r>
       <r>   11.8029    0.0000 </r>
       <r>   12.0713    0.0000 </r>
       <r>   12.1786    0.0000 </r>
       <r>   12.5363    0.0000 </r>
       <r>   12.8326    0.0000 </r>
      </set>
      <set comment="kpoint 9">
       <r>  -55.0599    1.0000 </r>
       <r>  -55.0419    1.0000 </r>
       <r>  -53.8005    1.0000 </r>
       <r>  -53.7982    1.0000 </r>
       <r>  -53.6762    1.0000 </r>
       <r>  -53.6646    1.0000 </r>
       <r>  -53.6538    1.0000 </r>
       <r>  -53.6015    1.0000 </r>
       <r>  -53.1294    1.0000 </r>
       <r>  -53.0802    1.0000 </r>
       <r>  -30.9552    1.0000 </r>
       <r>  -30.9543    1.0000 </r>
       <r>  -30.2734    1.0000 </r>
       <r>  -30.2718    1.0000 </r>
       <r>  -28.4918    1.0000 </r>
       <r>  -28.2543    1.0000 </r>
       <r>  -28.2018    1.0000 </r>
       <r>  -28.0879    1.0000 </r>
       <r>  -28.0813    1.0000 </r>
       <r>  -28.0641    1.0000 </r>
       <r>  -27.8515    1.0000 </r>
       <r>  -27.7067    1.0000 </r>
       <r>  -27.6427    1.0000 </r>
       <r>  -27.5488    1.0000 </r>
       <r>  -27.4831    1.0000 </r>
       <r>  -27.3464    1.0000 </r>
       <r>  -27.3409    1.0000 </r>
       <r>  -27.1618    1.0000 </r>
       <r>  -26.9712    1.0000 </r>
       <r>  -26.9665    1.0000 </r>
       <r>  -26.8825    1.0000 </r>
       <r>  -26.8614    1.0000 </r>
       <r>  -26.8559    1.0000 </r>
       <r>  -26.8019    1.0000 </r>
       <r>  -26.6308    1.0000 </r>
       <r>  -26.5830    1.0000 </r>
       <r>  -25.1885    1.0000 </r>
       <r>  -25.1807    1.0000 </r>
       <r>  -24.8853    1.0000 </r>
       <r>  -24.8829    1.0000 </r>
       <r>   -1.5583    1.0000 </r>
       <r>    0.2450    1.0000 </r>
       <r>    0.3859    1.0000 </r>
       <r>    0.4958    1.0000 </r>
       <r>    1.1382    1.0000 </r>
       <r>    1.2298    1.0000 </r>
       <r>    1.7828    1.0000 </r>
       <r>    1.8960    1.0000 </r>
       <r>    2.5746    1.0000 </r>
       <r>    2.6576    1.0000 </r>
       <r>    2.6650    1.0000 </r>
       <r>    3.2977    1.0000 </r>
       <r>    3.4856    1.0000 </r>
       <r>    3.6434    1.0000 </r>
       <r>    3.7283    1.0000 </r>
       <r>    3.8827    1.0000 </r>
       <r>    3.9065    1.0000 </r>
       <r>    4.5100    1.0000 </r>
       <r>    4.5979    1.0000 </r>
       <r>    4.6999    1.0000 </r>
       <r>    4.8514    1.0000 </r>
       <r>    4.8964    1.0000 </r>
       <r>    4.9900    1.0000 </r>
       <r>    5.7678    1.0000 </r>
       <r>    5.8734    1.0000 </r>
       <r>    6.2258    1.0000 </r>
       <r>    6.3696    1.0000 </r>
       <r>    6.6391    1.0000 </r>
       <r>    6.7989    1.0000 </r>
       <r>    6.8603    1.0000 </r>
       <r>    7.0120    1.0000 </r>
       <r>    7.0783    1.0000 </r>
       <r>    7.2197    1.0000 </r>
       <r>    7.5654    1.0000 </r>
       <r>    8.0058    1.0000 </r>
       <r>    8.1466    1.0000 </r>
       <r>    8.1902    1.0000 </r>
       <r>    8.2397    1.0000 </r>
       <r>    8.3369    1.0000 </r>
       <r>    8.4945    1.0000 </r>
       <r>    8.6534    1.0000 </r>
       <r>    8.9929    0.0000 </r>
       <r>    9.3124    0.0000 </r>
       <r>    9.3451    0.0000 </r>
       <r>    9.7348    0.0000 </r>
       <r>    9.7442    0.0000 </r>
       <r>    9.8591    0.0000 </r>
       <r>    9.9960    0.0000 </r>
       <r>   10.1137    0.0000 </r>
       <r>   10.1465    0.0000 </r>
       <r>   10.3067    0.0000 </r>
       <r>   10.4609    0.0000 </r>
       <r>   11.0940    0.0000 </r>
       <r>   11.2752    0.0000 </r>
       <r>   11.3748    0.0000 </r>
       <r>   11.4801    0.0000 </r>
       <r>   11.7822    0.0000 </r>
       <r>   11.8074    0.0000 </r>
       <r>   12.0835    0.0000 </r>
       <r>   12.1852    0.0000 </r>
       <r>   12.5154    0.0000 </r>
       <r>   12.8584    0.0000 </r>
      </set>
      <set comment="kpoint 10">
       <r>  -55.0599    1.0000 </r>
       <r>  -55.0419    1.0000 </r>
       <r>  -53.8003    1.0000 </r>
       <r>  -53.7984    1.0000 </r>
       <r>  -53.6762    1.0000 </r>
       <r>  -53.6645    1.0000 </r>
       <r>  -53.6539    1.0000 </r>
       <r>  -53.6015    1.0000 </r>
       <r>  -53.1294    1.0000 </r>
       <r>  -53.0802    1.0000 </r>
       <r>  -30.9558    1.0000 </r>
       <r>  -30.9536    1.0000 </r>
       <r>  -30.2738    1.0000 </r>
       <r>  -30.2714    1.0000 </r>
       <r>  -28.4918    1.0000 </r>
       <r>  -28.2545    1.0000 </r>
       <r>  -28.2014    1.0000 </r>
       <r>  -28.0879    1.0000 </r>
       <r>  -28.0813    1.0000 </r>
       <r>  -28.0643    1.0000 </r>
       <r>  -27.8514    1.0000 </r>
       <r>  -27.7067    1.0000 </r>
       <r>  -27.6428    1.0000 </r>
       <r>  -27.5489    1.0000 </r>
       <r>  -27.4829    1.0000 </r>
       <r>  -27.3464    1.0000 </r>
       <r>  -27.3408    1.0000 </r>
       <r>  -27.1619    1.0000 </r>
       <r>  -26.9711    1.0000 </r>
       <r>  -26.9666    1.0000 </r>
       <r>  -26.8825    1.0000 </r>
       <r>  -26.8613    1.0000 </r>
       <r>  -26.8559    1.0000 </r>
       <r>  -26.8019    1.0000 </r>
       <r>  -26.6308    1.0000 </r>
       <r>  -26.5830    1.0000 </r>
       <r>  -25.1885    1.0000 </r>
       <r>  -25.1806    1.0000 </r>
       <r>  -24.8855    1.0000 </r>
       <r>  -24.8828    1.0000 </r>
       <r>   -1.5583    1.0000 </r>
       <r>    0.2450    1.0000 </r>
       <r>    0.3861    1.0000 </r>
       <r>    0.4956    1.0000 </r>
       <r>    1.1382    1.0000 </r>
       <r>    1.2299    1.0000 </r>
       <r>    1.7829    1.0000 </r>
       <r>    1.8958    1.0000 </r>
       <r>    2.5748    1.0000 </r>
       <r>    2.6577    1.0000 </r>
       <r>    2.6647    1.0000 </r>
       <r>    3.2976    1.0000 </r>
       <r>    3.4856    1.0000 </r>
       <r>    3.6433    1.0000 </r>
       <r>    3.7284    1.0000 </r>
       <r>    3.8828    1.0000 </r>
       <r>    3.9066    1.0000 </r>
       <r>    4.5099    1.0000 </r>
       <r>    4.5979    1.0000 </r>
       <r>    4.6998    1.0000 </r>
       <r>    4.8514    1.0000 </r>
       <r>    4.8968    1.0000 </r>
       <r>    4.9899    1.0000 </r>
       <r>    5.7677    1.0000 </r>
       <r>    5.8735    1.0000 </r>
       <r>    6.2258    1.0000 </r>
       <r>    6.3695    1.0000 </r>
       <r>    6.6390    1.0000 </r>
       <r>    6.7988    1.0000 </r>
       <r>    6.8603    1.0000 </r>
       <r>    7.0119    1.0000 </r>
       <r>    7.0784    1.0000 </r>
       <r>    7.2198    1.0000 </r>
       <r>    7.5654    1.0000 </r>
       <r>    8.0056    1.0000 </r>
       <r>    8.1465    1.0000 </r>
       <r>    8.1903    1.0000 </r>
       <r>    8.2396    1.0000 </r>
       <r>    8.3370    1.0000 </r>
       <r>    8.4944    1.0000 </r>
       <r>    8.6534    1.0000 </r>
       <r>    8.9930    0.0000 </r>
       <r>    9.3124    0.0000 </r>
       <r>    9.3452    0.0000 </r>
       <r>    9.7348    0.0000 </r>
       <r>    9.7443    0.0000 </r>
       <r>    9.8591    0.0000 </r>
       <r>    9.9962    0.0000 </r>
       <r>   10.1137    0.0000 </r>
       <r>   10.1465    0.0000 </r>
       <r>   10.3065    0.0000 </r>
       <r>   10.4609    0.0000 </r>
       <r>   11.0940    0.0000 </r>
       <r>   11.2753    0.0000 </r>
       <r>   11.3747    0.0000 </r>
       <r>   11.4799    0.0000 </r>
       <r>   11.7834    0.0000 </r>
       <r>   11.8030    0.0000 </r>
       <r>   12.0750    0.0000 </r>
       <r>   12.1776    0.0000 </r>
       <r>   12.5816    0.0000 </r>
       <r>   12.8332    0.0000 </r>
      </set>
      <set comment="kpoint 11">
       <r>  -55.0560    1.0000 </r>
       <r>  -55.0457    1.0000 </r>
       <r>  -53.8027    1.0000 </r>
       <r>  -53.8007    1.0000 </r>
       <r>  -53.6737    1.0000 </r>
       <r>  -53.6660    1.0000 </r>
       <r>  -53.6415    1.0000 </r>
       <r>  -53.6107    1.0000 </r>
       <r>  -53.1187    1.0000 </r>
       <r>  -53.0903    1.0000 </r>
       <r>  -30.9567    1.0000 </r>
       <r>  -30.9546    1.0000 </r>
       <r>  -30.2741    1.0000 </r>
       <r>  -30.2717    1.0000 </r>
       <r>  -28.4506    1.0000 </r>
       <r>  -28.3213    1.0000 </r>
       <r>  -28.1864    1.0000 </r>
       <r>  -28.0884    1.0000 </r>
       <r>  -28.0809    1.0000 </r>
       <r>  -28.0768    1.0000 </r>
       <r>  -27.7995    1.0000 </r>
       <r>  -27.7072    1.0000 </r>
       <r>  -27.6749    1.0000 </r>
       <r>  -27.5665    1.0000 </r>
       <r>  -27.4344    1.0000 </r>
       <r>  -27.3571    1.0000 </r>
       <r>  -27.3104    1.0000 </r>
       <r>  -27.2031    1.0000 </r>
       <r>  -26.9728    1.0000 </r>
       <r>  -26.9705    1.0000 </r>
       <r>  -26.8747    1.0000 </r>
       <r>  -26.8636    1.0000 </r>
       <r>  -26.8443    1.0000 </r>
       <r>  -26.8144    1.0000 </r>
       <r>  -26.6213    1.0000 </r>
       <r>  -26.5916    1.0000 </r>
       <r>  -25.1944    1.0000 </r>
       <r>  -25.1868    1.0000 </r>
       <r>  -24.8814    1.0000 </r>
       <r>  -24.8789    1.0000 </r>
       <r>   -1.1724    1.0000 </r>
       <r>   -0.2582    1.0000 </r>
       <r>    0.4782    1.0000 </r>
       <r>    0.6084    1.0000 </r>
       <r>    0.7780    1.0000 </r>
       <r>    1.3522    1.0000 </r>
       <r>    1.4481    1.0000 </r>
       <r>    1.6988    1.0000 </r>
       <r>    2.7268    1.0000 </r>
       <r>    2.7810    1.0000 </r>
       <r>    2.8864    1.0000 </r>
       <r>    3.2344    1.0000 </r>
       <r>    3.3085    1.0000 </r>
       <r>    3.4006    1.0000 </r>
       <r>    3.8409    1.0000 </r>
       <r>    3.8520    1.0000 </r>
       <r>    3.9416    1.0000 </r>
       <r>    4.4817    1.0000 </r>
       <r>    4.8360    1.0000 </r>
       <r>    4.9246    1.0000 </r>
       <r>    5.0969    1.0000 </r>
       <r>    5.3284    1.0000 </r>
       <r>    5.5032    1.0000 </r>
       <r>    5.6606    1.0000 </r>
       <r>    5.8109    1.0000 </r>
       <r>    5.9035    1.0000 </r>
       <r>    6.4384    1.0000 </r>
       <r>    6.6276    1.0000 </r>
       <r>    6.7276    1.0000 </r>
       <r>    6.9724    1.0000 </r>
       <r>    7.1502    1.0000 </r>
       <r>    7.2740    1.0000 </r>
       <r>    7.4380    1.0000 </r>
       <r>    7.5811    1.0000 </r>
       <r>    7.6753    1.0000 </r>
       <r>    7.8046    1.0000 </r>
       <r>    8.0630    1.0000 </r>
       <r>    8.2491    1.0000 </r>
       <r>    8.4389    1.0000 </r>
       <r>    8.4858    1.0000 </r>
       <r>    8.6201    1.0000 </r>
       <r>    8.9442    0.0007 </r>
       <r>    9.1295    0.0000 </r>
       <r>    9.2180    0.0000 </r>
       <r>    9.3973    0.0000 </r>
       <r>    9.4278    0.0000 </r>
       <r>    9.5628    0.0000 </r>
       <r>    9.9413    0.0000 </r>
       <r>    9.9717    0.0000 </r>
       <r>   10.0871    0.0000 </r>
       <r>   10.3292    0.0000 </r>
       <r>   10.4477    0.0000 </r>
       <r>   10.9602    0.0000 </r>
       <r>   11.2715    0.0000 </r>
       <r>   11.4148    0.0000 </r>
       <r>   11.6195    0.0000 </r>
       <r>   11.7171    0.0000 </r>
       <r>   12.0366    0.0000 </r>
       <r>   12.1171    0.0000 </r>
       <r>   12.2486    0.0000 </r>
       <r>   12.6344    0.0000 </r>
       <r>   12.8674    0.0000 </r>
      </set>
[...]
       <r>  -28.1001    1.0000 </r>
       <r>  -28.0700    1.0000 </r>
       <r>  -27.9104    1.0000 </r>
       <r>  -27.6655    1.0000 </r>
       <r>  -27.5917    1.0000 </r>
       <r>  -27.5509    1.0000 </r>
       <r>  -27.5508    1.0000 </r>
       <r>  -27.3651    1.0000 </r>
       <r>  -27.3392    1.0000 </r>
       <r>  -27.1255    1.0000 </r>
       <r>  -26.9654    1.0000 </r>
       <r>  -26.9653    1.0000 </r>
       <r>  -26.8764    1.0000 </r>
       <r>  -26.8605    1.0000 </r>
       <r>  -26.8604    1.0000 </r>
       <r>  -26.8068    1.0000 </r>
       <r>  -26.6468    1.0000 </r>
       <r>  -26.5706    1.0000 </r>
       <r>  -25.1823    1.0000 </r>
       <r>  -25.1822    1.0000 </r>
       <r>  -24.8854    1.0000 </r>
       <r>  -24.8853    1.0000 </r>
       <r>   -1.4015    1.0000 </r>
       <r>   -0.2963    1.0000 </r>
       <r>    0.3454    1.0000 </r>
       <r>    0.3457    1.0000 </r>
       <r>    1.1135    1.0000 </r>
       <r>    1.8638    1.0000 </r>
       <r>    2.1656    1.0000 </r>
       <r>    2.5623    1.0000 </r>
       <r>    2.5625    1.0000 </r>
       <r>    2.6452    1.0000 </r>
       <r>    2.6454    1.0000 </r>
       <r>    2.8711    1.0000 </r>
       <r>    3.1460    1.0000 </r>
       <r>    3.4903    1.0000 </r>
       <r>    3.5124    1.0000 </r>
       <r>    3.8665    1.0000 </r>
       <r>    4.1475    1.0000 </r>
       <r>    4.1475    1.0000 </r>
       <r>    4.2546    1.0000 </r>
       <r>    4.6687    1.0000 </r>
       <r>    5.4366    1.0000 </r>
       <r>    5.5075    1.0000 </r>
       <r>    5.5079    1.0000 </r>
       <r>    5.5192    1.0000 </r>
       <r>    5.5194    1.0000 </r>
       <r>    5.8105    1.0000 </r>
       <r>    6.1895    1.0000 </r>
       <r>    6.1897    1.0000 </r>
       <r>    6.2965    1.0000 </r>
       <r>    6.4508    1.0000 </r>
       <r>    7.0282    1.0000 </r>
       <r>    7.1658    1.0000 </r>
       <r>    7.2083    1.0000 </r>
       <r>    7.2436    1.0000 </r>
       <r>    7.8918    1.0000 </r>
       <r>    7.8918    1.0000 </r>
       <r>    8.1474    1.0000 </r>
       <r>    8.2302    1.0000 </r>
       <r>    8.2304    1.0000 </r>
       <r>    9.2715    0.0000 </r>
       <r>    9.3474    0.0000 </r>
       <r>    9.7204    0.0000 </r>
       <r>    9.7448    0.0000 </r>
       <r>    9.7785    0.0000 </r>
       <r>    9.8059    0.0000 </r>
       <r>    9.8061    0.0000 </r>
       <r>    9.8062    0.0000 </r>
       <r>    9.9174    0.0000 </r>
       <r>    9.9174    0.0000 </r>
       <r>   10.1487    0.0000 </r>
       <r>   10.1516    0.0000 </r>
       <r>   10.1517    0.0000 </r>
       <r>   11.2128    0.0000 </r>
       <r>   11.2128    0.0000 </r>
       <r>   11.4361    0.0000 </r>
       <r>   11.8051    0.0000 </r>
       <r>   11.8053    0.0000 </r>
       <r>   11.8719    0.0000 </r>
       <r>   12.1794    0.0000 </r>
       <r>   12.1953    0.0000 </r>
       <r>   12.7567    0.0000 </r>
       <r>   12.9889    0.0000 </r>
      </set>
     </set>
    </set>
   </array>
  </eigenvalues>
  <separator name="orbital magnetization" >
   <v name="MAGDIPOLOUT">      0.00000000      0.00000000      0.00000000</v>
  </separator>
  <dos>
   <i name="efermi">      8.89882040 </i>
   <total>
    <array>
     <dimension dim="1">gridpoints</dimension>
     <dimension dim="2">spin</dimension>
     <field>energy</field>
     <field>total</field>
     <field>integrated</field>
     <set>
      <set comment="spin 1">
       <r>   -58.4765     0.0000     0.0000 </r>
       <r>   -58.2261     0.0000     0.0000 </r>
       <r>   -57.9758     0.0000     0.0000 </r>
       <r>   -57.7255     0.0000     0.0000 </r>
       <r>   -57.4752     0.0000     0.0000 </r>
       <r>   -57.2248     0.0000     0.0000 </r>
       <r>   -56.9745     0.0000     0.0000 </r>
       <r>   -56.7242     0.0000     0.0000 </r>
       <r>   -56.4738     0.0000     0.0000 </r>
       <r>   -56.2235     0.0000     0.0000 </r>
       <r>   -55.9732     0.0000     0.0000 </r>
       <r>   -55.7229     0.0000     0.0000 </r>
       <r>   -55.4725     0.0000     0.0000 </r>
       <r>   -55.2222     0.0000     0.0000 </r>
       <r>   -54.9719    15.9791     4.0000 </r>
       <r>   -54.7216     0.0000     4.0000 </r>
       <r>   -54.4712     0.0000     4.0000 </r>
       <r>   -54.2209     0.0000     4.0000 </r>
       <r>   -53.9706     0.0000     4.0000 </r>
       <r>   -53.7203    15.9844     8.0013 </r>
       <r>   -53.4699     8.2115    16.0000 </r>
       <r>   -53.2196     0.0000    16.0000 </r>
       <r>   -52.9693    13.9818    20.0000 </r>
       <r>   -52.7190     0.0000    20.0000 </r>
       <r>   -52.4686     0.0000    20.0000 </r>
       <r>   -52.2183     0.0000    20.0000 </r>
       <r>   -51.9680     0.0000    20.0000 </r>
       <r>   -51.7176     0.0000    20.0000 </r>
       <r>   -51.4673     0.0000    20.0000 </r>
       <r>   -51.2170     0.0000    20.0000 </r>
       <r>   -50.9667     0.0000    20.0000 </r>
       <r>   -50.7163     0.0000    20.0000 </r>
       <r>   -50.4660     0.0000    20.0000 </r>
       <r>   -50.2157     0.0000    20.0000 </r>
       <r>   -49.9654     0.0000    20.0000 </r>
       <r>   -49.7150     0.0000    20.0000 </r>
       <r>   -49.4647     0.0000    20.0000 </r>
       <r>   -49.2144     0.0000    20.0000 </r>
       <r>   -48.9641     0.0000    20.0000 </r>
       <r>   -48.7137     0.0000    20.0000 </r>
       <r>   -48.4634     0.0000    20.0000 </r>
       <r>   -48.2131     0.0000    20.0000 </r>
       <r>   -47.9628     0.0000    20.0000 </r>
       <r>   -47.7124     0.0000    20.0000 </r>
       <r>   -47.4621     0.0000    20.0000 </r>
       <r>   -47.2118     0.0000    20.0000 </r>
       <r>   -46.9615     0.0000    20.0000 </r>
       <r>   -46.7111     0.0000    20.0000 </r>
       <r>   -46.4608     0.0000    20.0000 </r>
       <r>   -46.2105     0.0000    20.0000 </r>
       <r>   -45.9601     0.0000    20.0000 </r>
       <r>   -45.7098     0.0000    20.0000 </r>
       <r>   -45.4595     0.0000    20.0000 </r>
       <r>   -45.2092     0.0000    20.0000 </r>
       <r>   -44.9588     0.0000    20.0000 </r>
       <r>   -44.7085     0.0000    20.0000 </r>
       <r>   -44.4582     0.0000    20.0000 </r>
       <r>   -44.2079     0.0000    20.0000 </r>
       <r>   -43.9575     0.0000    20.0000 </r>
       <r>   -43.7072     0.0000    20.0000 </r>
       <r>   -43.4569     0.0000    20.0000 </r>
       <r>   -43.2066     0.0000    20.0000 </r>
       <r>   -42.9562     0.0000    20.0000 </r>
       <r>   -42.7059     0.0000    20.0000 </r>
       <r>   -42.4556     0.0000    20.0000 </r>
       <r>   -42.2053     0.0000    20.0000 </r>
       <r>   -41.9549     0.0000    20.0000 </r>
       <r>   -41.7046     0.0000    20.0000 </r>
       <r>   -41.4543     0.0000    20.0000 </r>
       <r>   -41.2039     0.0000    20.0000 </r>
       <r>   -40.9536     0.0000    20.0000 </r>
       <r>   -40.7033     0.0000    20.0000 </r>
       <r>   -40.4530     0.0000    20.0000 </r>
       <r>   -40.2026     0.0000    20.0000 </r>
       <r>   -39.9523     0.0000    20.0000 </r>
       <r>   -39.7020     0.0000    20.0000 </r>
       <r>   -39.4517     0.0000    20.0000 </r>
       <r>   -39.2013     0.0000    20.0000 </r>
       <r>   -38.9510     0.0000    20.0000 </r>
       <r>   -38.7007     0.0000    20.0000 </r>
       <r>   -38.4504     0.0000    20.0000 </r>
       <r>   -38.2000     0.0000    20.0000 </r>
       <r>   -37.9497     0.0000    20.0000 </r>
       <r>   -37.6994     0.0000    20.0000 </r>
       <r>   -37.4491     0.0000    20.0000 </r>
       <r>   -37.1987     0.0000    20.0000 </r>
       <r>   -36.9484     0.0000    20.0000 </r>
       <r>   -36.6981     0.0000    20.0000 </r>
       <r>   -36.4477     0.0000    20.0000 </r>
       <r>   -36.1974     0.0000    20.0000 </r>
       <r>   -35.9471     0.0000    20.0000 </r>
       <r>   -35.6968     0.0000    20.0000 </r>
       <r>   -35.4464     0.0000    20.0000 </r>
       <r>   -35.1961     0.0000    20.0000 </r>
       <r>   -34.9458     0.0000    20.0000 </r>
       <r>   -34.6955     0.0000    20.0000 </r>
       <r>   -34.4451     0.0000    20.0000 </r>
       <r>   -34.1948     0.0000    20.0000 </r>
       <r>   -33.9445     0.0000    20.0000 </r>
       <r>   -33.6942     0.0000    20.0000 </r>
       <r>   -33.4438     0.0000    20.0000 </r>
       <r>   -33.1935     0.0000    20.0000 </r>
       <r>   -32.9432     0.0000    20.0000 </r>
       <r>   -32.6929     0.0000    20.0000 </r>
       <r>   -32.4425     0.0000    20.0000 </r>
       <r>   -32.1922     0.0000    20.0000 </r>
       <r>   -31.9419     0.0000    20.0000 </r>
       <r>   -31.6915     0.0000    20.0000 </r>
       <r>   -31.4412     0.0000    20.0000 </r>
       <r>   -31.1909     0.0000    20.0000 </r>
       <r>   -30.9406    13.7166    23.4336 </r>
       <r>   -30.6902     0.0000    24.0000 </r>
       <r>   -30.4399     0.0000    24.0000 </r>
       <r>   -30.1896    15.9791    28.0000 </r>
       <r>   -29.9393     0.0000    28.0000 </r>
       <r>   -29.6889     0.0000    28.0000 </r>
       <r>   -29.4386     0.0000    28.0000 </r>
       <r>   -29.1883     0.0000    28.0000 </r>
       <r>   -28.9380     0.0000    28.0000 </r>
       <r>   -28.6876     0.0000    28.0000 </r>
       <r>   -28.4373     4.3757    29.0954 </r>
       <r>   -28.1870     9.4801    32.8731 </r>
       <r>   -27.9367    18.9818    40.0016 </r>
       <r>   -27.6863    13.3373    43.8387 </r>
       <r>   -27.4360    11.3423    49.0615 </r>
       <r>   -27.1857    13.7044    55.4306 </r>
       <r>   -26.9354    15.8787    59.9749 </r>
       <r>   -26.6850    12.5031    68.0002 </r>
       <r>   -26.4347     4.6606    72.0000 </r>
       <r>   -26.1844     0.0000    72.0000 </r>
       <r>   -25.9340     0.0000    72.0000 </r>
       <r>   -25.6837     0.0000    72.0000 </r>
       <r>   -25.4334     0.0000    72.0000 </r>
       <r>   -25.1831    10.8069    74.7052 </r>
       <r>   -24.9327     0.0045    76.0011 </r>
       <r>   -24.6824     0.0000    80.0000 </r>
       <r>   -24.4321     0.0000    80.0000 </r>
       <r>   -24.1818     0.0000    80.0000 </r>
       <r>   -23.9314     0.0000    80.0000 </r>
       <r>   -23.6811     0.0000    80.0000 </r>
       <r>   -23.4308     0.0000    80.0000 </r>
       <r>   -23.1805     0.0000    80.0000 </r>
       <r>   -22.9301     0.0000    80.0000 </r>
       <r>   -22.6798     0.0000    80.0000 </r>
       <r>   -22.4295     0.0000    80.0000 </r>
       <r>   -22.1792     0.0000    80.0000 </r>
       <r>   -21.9288     0.0000    80.0000 </r>
       <r>   -21.6785     0.0000    80.0000 </r>
       <r>   -21.4282     0.0000    80.0000 </r>
       <r>   -21.1778     0.0000    80.0000 </r>
       <r>   -20.9275     0.0000    80.0000 </r>
       <r>   -20.6772     0.0000    80.0000 </r>
       <r>   -20.4269     0.0000    80.0000 </r>
       <r>   -20.1765     0.0000    80.0000 </r>
       <r>   -19.9262     0.0000    80.0000 </r>
       <r>   -19.6759     0.0000    80.0000 </r>
       <r>   -19.4256     0.0000    80.0000 </r>
       <r>   -19.1752     0.0000    80.0000 </r>
       <r>   -18.9249     0.0000    80.0000 </r>
       <r>   -18.6746     0.0000    80.0000 </r>
       <r>   -18.4243     0.0000    80.0000 </r>
       <r>   -18.1739     0.0000    80.0000 </r>
       <r>   -17.9236     0.0000    80.0000 </r>
       <r>   -17.6733     0.0000    80.0000 </r>
       <r>   -17.4230     0.0000    80.0000 </r>
       <r>   -17.1726     0.0000    80.0000 </r>
       <r>   -16.9223     0.0000    80.0000 </r>
       <r>   -16.6720     0.0000    80.0000 </r>
       <r>   -16.4216     0.0000    80.0000 </r>
       <r>   -16.1713     0.0000    80.0000 </r>
       <r>   -15.9210     0.0000    80.0000 </r>
       <r>   -15.6707     0.0000    80.0000 </r>
       <r>   -15.4203     0.0000    80.0000 </r>
       <r>   -15.1700     0.0000    80.0000 </r>
       <r>   -14.9197     0.0000    80.0000 </r>
       <r>   -14.6694     0.0000    80.0000 </r>
       <r>   -14.4190     0.0000    80.0000 </r>
       <r>   -14.1687     0.0000    80.0000 </r>
       <r>   -13.9184     0.0000    80.0000 </r>
       <r>   -13.6681     0.0000    80.0000 </r>
       <r>   -13.4177     0.0000    80.0000 </r>
       <r>   -13.1674     0.0000    80.0000 </r>
       <r>   -12.9171     0.0000    80.0000 </r>
       <r>   -12.6668     0.0000    80.0000 </r>
       <r>   -12.4164     0.0000    80.0000 </r>
       <r>   -12.1661     0.0000    80.0000 </r>
       <r>   -11.9158     0.0000    80.0000 </r>
       <r>   -11.6655     0.0000    80.0000 </r>
       <r>   -11.4151     0.0000    80.0000 </r>
       <r>   -11.1648     0.0000    80.0000 </r>
       <r>   -10.9145     0.0000    80.0000 </r>
       <r>   -10.6641     0.0000    80.0000 </r>
       <r>   -10.4138     0.0000    80.0000 </r>
       <r>   -10.1635     0.0000    80.0000 </r>
       <r>    -9.9132     0.0000    80.0000 </r>
       <r>    -9.6628     0.0000    80.0000 </r>
       <r>    -9.4125     0.0000    80.0000 </r>
       <r>    -9.1622     0.0000    80.0000 </r>
       <r>    -8.9119     0.0000    80.0000 </r>
       <r>    -8.6615     0.0000    80.0000 </r>
       <r>    -8.4112     0.0000    80.0000 </r>
       <r>    -8.1609     0.0000    80.0000 </r>
       <r>    -7.9106     0.0000    80.0000 </r>
       <r>    -7.6602     0.0000    80.0000 </r>
       <r>    -7.4099     0.0000    80.0000 </r>
       <r>    -7.1596     0.0000    80.0000 </r>
       <r>    -6.9093     0.0000    80.0000 </r>
       <r>    -6.6589     0.0000    80.0000 </r>
       <r>    -6.4086     0.0000    80.0000 </r>
       <r>    -6.1583     0.0000    80.0000 </r>
       <r>    -5.9079     0.0000    80.0000 </r>
       <r>    -5.6576     0.0000    80.0000 </r>
       <r>    -5.4073     0.0000    80.0000 </r>
       <r>    -5.1570     0.0000    80.0000 </r>
       <r>    -4.9066     0.0000    80.0000 </r>
       <r>    -4.6563     0.0000    80.0000 </r>
       <r>    -4.4060     0.0000    80.0000 </r>
       <r>    -4.1557     0.0000    80.0000 </r>
       <r>    -3.9053     0.0000    80.0000 </r>
       <r>    -3.6550     0.0000    80.0000 </r>
       <r>    -3.4047     0.0000    80.0000 </r>
       <r>    -3.1544     0.0000    80.0000 </r>
       <r>    -2.9040     0.0000    80.0000 </r>
       <r>    -2.6537     0.0000    80.0000 </r>
       <r>    -2.4034     0.0000    80.0000 </r>
       <r>    -2.1531     0.0000    80.0000 </r>
       <r>    -1.9027     0.0000    80.0000 </r>
       <r>    -1.6524     0.5169    80.1387 </r>
       <r>    -1.4021     1.2004    80.4394 </r>
       <r>    -1.1517     0.9043    80.9486 </r>
       <r>    -0.9014     1.1633    81.5319 </r>
       <r>    -0.6511     0.7947    81.9952 </r>
       <r>    -0.4008     1.6893    82.7932 </r>
       <r>    -0.1504     1.8383    83.2750 </r>
       <r>     0.0999     4.6385    84.5593 </r>
       <r>     0.3502     3.8499    85.7415 </r>
       <r>     0.6005     3.9973    86.9636 </r>
       <r>     0.8509     2.6929    88.2297 </r>
       <r>     1.1012     1.8575    88.9650 </r>
       <r>     1.3515     3.9874    90.7389 </r>
       <r>     1.6018     6.7226    92.8680 </r>
       <r>     1.8522     6.2936    95.0569 </r>
       <r>     2.1025     0.2974    95.3522 </r>
       <r>     2.3528     2.8061    96.2858 </r>
       <r>     2.6031     5.6762    98.2172 </r>
       <r>     2.8535     6.0974   100.8412 </r>
       <r>     3.1038     3.1084   102.0466 </r>
       <r>     3.3541     5.8015   104.2764 </r>
       <r>     3.6045     5.8913   106.8081 </r>
       <r>     3.8548     9.1172   110.1434 </r>
       <r>     4.1051     4.4587   114.1717 </r>
       <r>     4.3554     3.7460   115.7340 </r>
       <r>     4.6058     4.1505   117.0667 </r>
       <r>     4.8561     4.0557   118.5523 </r>
       <r>     5.1064     5.4765   121.3061 </r>
       <r>     5.3567     6.3515   123.2288 </r>
       <r>     5.6071     7.2669   126.2450 </r>
       <r>     5.8574     8.1488   129.5121 </r>
       <r>     6.1077     6.7685   132.3795 </r>
       <r>     6.3580     5.5830   134.0828 </r>
       <r>     6.6084     4.5968   136.2155 </r>
       <r>     6.8587     7.5529   138.8166 </r>
       <r>     7.1090     8.8926   142.1149 </r>
       <r>     7.3593     7.0287   145.4447 </r>
       <r>     7.6097     6.1056   148.0654 </r>
       <r>     7.8600     4.6841   150.0059 </r>
       <r>     8.1103     5.1575   152.4577 </r>
       <r>     8.3606     8.8196   155.7170 </r>
       <r>     8.6110     6.8606   158.6526 </r>
       <r>     8.8613     6.6408   161.6068 </r>
       <r>     9.1116     4.8863   163.8343 </r>
       <r>     9.3620     9.3249   167.8898 </r>
       <r>     9.6123     8.2421   171.1095 </r>
       <r>     9.8626     6.9063   174.2473 </r>
       <r>    10.1129     9.3182   178.0363 </r>
       <r>    10.3633     6.6595   180.5652 </r>
       <r>    10.6136     4.5700   182.8755 </r>
       <r>    10.8639     4.6268   185.3341 </r>
       <r>    11.1142     4.9108   186.8867 </r>
       <r>    11.3646     6.0849   189.2732 </r>
       <r>    11.6149     5.0081   191.4203 </r>
       <r>    11.8652     9.4776   194.6595 </r>
       <r>    12.1155     6.3659   197.1769 </r>
       <r>    12.3659     5.5216   199.5674 </r>
       <r>    12.6162     5.1135   201.3171 </r>
       <r>    12.8665     3.8754   203.0442 </r>
       <r>    13.1168     1.5168   203.8890 </r>
       <r>    13.3672     0.1480   204.0000 </r>
       <r>    13.6175     0.0000   204.0000 </r>
       <r>    13.8678     0.0000   204.0000 </r>
       <r>    14.1182     0.0000   204.0000 </r>
       <r>    14.3685     0.0000   204.0000 </r>
       <r>    14.6188     0.0000   204.0000 </r>
       <r>    14.8691     0.0000   204.0000 </r>
       <r>    15.1195     0.0000   204.0000 </r>
       <r>    15.3698     0.0000   204.0000 </r>
       <r>    15.6201     0.0000   204.0000 </r>
       <r>    15.8704     0.0000   204.0000 </r>
       <r>    16.1208     0.0000   204.0000 </r>
       <r>    16.3711     0.0000   204.0000 </r>
       <r>    16.6214     0.0000   204.0000 </r>
      </set>
     </set>
    </array>
   </total>
  </dos>
 </calculation>
 <structure name="finalpos" >
  <crystal>
   <varray name="basis" >
    <v>       6.61720569       0.00000000      -2.25396941 </v>
    <v>      -3.39044394       5.68263153      -2.25396941 </v>
    <v>       0.00000000       0.00000000       6.99055000 </v>
   </varray>
   <i name="volume">    262.86664228 </i>
   <varray name="rec_basis" >
    <v>       0.15112119       0.09016385       0.00000000 </v>
    <v>       0.00000000       0.17597481       0.00000000 </v>
    <v>       0.04872614       0.08581133       0.14305026 </v>
   </varray>
  </crystal>
  <varray name="positions" >
   <v>       0.75000000       0.25000000       0.50000000 </v>
   <v>       0.25000000       0.75000000       0.50000000 </v>
   <v>       0.50000000       0.00000000       0.50000000 </v>
   <v>       0.74548000       0.52482000       0.27029000 </v>
   <v>       0.25452000       0.47518000       0.72971000 </v>
   <v>       0.00000000       0.50000000       0.50000000 </v>
   <v>       0.52482000       0.25452000       0.77934000 </v>
   <v>       0.47518000       0.74548000       0.22066000 </v>
   <v>       0.75452000       0.02482000       0.77934000 </v>
   <v>       0.24548000       0.97518000       0.22066000 </v>
   <v>       0.97518000       0.75452000       0.72971000 </v>
   <v>       0.02482000       0.24548000       0.27029000 </v>
   <v>       0.24291000       0.25709000       0.50000000 </v>
   <v>       0.75709000       0.74291000       0.50000000 </v>
   <v>       0.25709000       0.75709000       0.01419000 </v>
   <v>       0.74291000       0.24291000       0.98581000 </v>
  </varray>
 </structure>
</modeling>
