 vasp.6.2.0 18Jan21 (build Jan 05 2022 15:41:44) complex                        
  
 executed on             LinuxIFC date 2025.05.07  15:32:22
 running on   24 total cores
 distrk:  each k-point on   12 cores,    2 groups
 distr:  one band on NCORE=   2 cores,    6 groups


--------------------------------------------------------------------------------------------------------


 INCAR:
   SYSTEM = routine with relax: pwdword
   ICHARG = 2
   NPAR = 6
   KPAR = 2
   NCORE = 2
   ADDGRID = T
   PREC = Acc
   ENCUT = 600
   METAGGA = R2SCAN
   LASPH = .TRUE.
   LMIXTAU = .FALSE.
   ALGO = A
   EDIFF = 1E-9
   NELM = 100
   NELMIN = 6
   IALGO = 38
   LREAL = F
   NSW = 0
   ISIF = -1
   ISMEAR = 0
   SIGMA = 0.02

 POTCAR:    PAW_PBE B 06Sep2000                   
 POTCAR:    PAW_PBE Mo_sv 02Feb2006               
 POTCAR:    PAW_PBE Si 05Jan2001                  
 -----------------------------------------------------------------------------
|                                                                             |
|           W    W    AA    RRRRR   N    N  II  N    N   GGGG   !!!           |
|           W    W   A  A   R    R  NN   N  II  NN   N  G    G  !!!           |
|           W    W  A    A  R    R  N N  N  II  N N  N  G       !!!           |
|           W WW W  AAAAAA  RRRRR   N  N N  II  N  N N  G  GGG   !            |
|           WW  WW  A    A  R   R   N   NN  II  N   NN  G    G                |
|           W    W  A    A  R    R  N    N  II  N    N   GGGG   !!!           |
|                                                                             |
|     For optimal performance we recommend to set                             |
|       NCORE = 2 up to number-of-cores-per-socket                            |
|     NCORE specifies how many cores store one orbital (NPAR=cpu/NCORE).      |
|     This setting can greatly improve the performance of VASP for DFT.       |
|     The default, NCORE=1 might be grossly inefficient on modern             |
|     multi-core architectures or massively parallel machines. Do your        |
|     own testing! More info at https://www.vasp.at/wiki/index.php/NCORE      |
|     Unfortunately you need to use the default for GW and RPA                |
|     calculations (for HF NCORE is supported but not extensively tested      |
|     yet).                                                                   |
|                                                                             |
 -----------------------------------------------------------------------------

 POTCAR:    PAW_PBE B 06Sep2000                   
   VRHFIN =B: s2p1                                                                                  
   LEXCH  = PE                                                                                      
   EATOM  =    71.1703 eV,    5.2309 Ry                                                             
                                                                                                    
   TITEL  = PAW_PBE B 06Sep2000                                                                     
   LULTRA =        F    use ultrasoft PP ?                                                          
   IUNSCR =        1    unscreen: 0-lin 1-nonlin 2-no                                               
   RPACOR =    1.200    partial core radius                                                         
   POMASS =   10.811; ZVAL   =    3.000    mass and valenz                                          
   RCORE  =    1.700    outmost cutoff radius                                                       
   RWIGS  =    1.710; RWIGS  =    0.905    wigner-seitz radius (au A)                               
   ENMAX  =  318.614; ENMIN  =  238.960 eV                                                          
   ICORE  =        2    local potential                                                             
   LCOR   =        T    correct aug charges                                                         
   LPAW   =        T    paw PP                                                                      
   EAUG   =  535.514                                                                                
   DEXC   =    0.000                                                                                
   RMAX   =    1.732    core radius for proj-oper                                                   
   RAUG   =    1.300    factor for augmentation sphere                                              
   RDEP   =    1.757    radius for radial grids                                                     
   RDEPT  =    1.436    core radius for aug-charge                                                  
                                                                                                    
   Atomic configuration                                                                             
    4 entries                                                                                       
     n  l   j            E        occ.                                                              
     1  0  0.50      -180.5896   2.0000                                                             
     2  0  0.50        -9.4431   2.0000                                                             
     2  1  0.50        -3.6068   1.0000                                                             
     3  2  1.50        -4.0817   0.0000                                                             
   Description                                                                                      
     l       E           TYP  RCUT    TYP  RCUT                                                     
     0     -9.4430752     23  1.500                                                                 
     0      0.8675899     23  1.500                                                                 
     1     -3.6067955     23  1.700                                                                 
     1      6.1086146     23  1.700                                                                 
     2     -4.0817478      7  1.700                                                                 
  local pseudopotential read in
  partial core-charges read in
  partial kinetic energy density read in
  atomic valenz-charges read in
  non local Contribution for L=           0  read in
    real space projection operators read in
  non local Contribution for L=           0  read in
    real space projection operators read in
  non local Contribution for L=           1  read in
    real space projection operators read in
  non local Contribution for L=           1  read in
    real space projection operators read in
    PAW grid and wavefunctions read in
 
   number of l-projection  operators is LMAX  =           4
   number of lm-projection operators is LMMAX =           8
 
 POTCAR:    PAW_PBE Mo_sv 02Feb2006               
   VRHFIN =Mo: 4p5s4d                                                                               
   LEXCH  = PE                                                                                      
   EATOM  =  1862.2866 eV,  136.8742 Ry                                                             
                                                                                                    
   TITEL  = PAW_PBE Mo_sv 02Feb2006                                                                 
   LULTRA =        F    use ultrasoft PP ?                                                          
   IUNSCR =        1    unscreen: 0-lin 1-nonlin 2-no                                               
   RPACOR =    2.200    partial core radius                                                         
   POMASS =   95.940; ZVAL   =   14.000    mass and valenz                                          
   RCORE  =    2.500    outmost cutoff radius                                                       
   RWIGS  =    2.750; RWIGS  =    1.455    wigner-seitz radius (au A)                               
   ENMAX  =  242.676; ENMIN  =  182.007 eV                                                          
   ICORE  =        3    local potential                                                             
   LCOR   =        T    correct aug charges                                                         
   LPAW   =        T    paw PP                                                                      
   EAUG   =  446.014                                                                                
   DEXC   =    0.000                                                                                
   RMAX   =    2.563    core radius for proj-oper                                                   
   RAUG   =    1.300    factor for augmentation sphere                                              
   RDEP   =    2.641    radius for radial grids                                                     
   RDEPT  =    2.031    core radius for aug-charge                                                  
                                                                                                    
   Atomic configuration                                                                             
   11 entries                                                                                       
     n  l   j            E        occ.                                                              
     1  0  0.50    -19819.0341   2.0000                                                             
     2  0  0.50     -2799.0127   2.0000                                                             
     2  1  1.50     -2502.0276   6.0000                                                             
     3  0  0.50      -476.4449   2.0000                                                             
     3  1  1.50      -379.1496   6.0000                                                             
     3  2  2.50      -220.9367  10.0000                                                             
     4  0  0.50       -64.3378   2.0000                                                             
     5  0  0.50        -4.0862   1.0000                                                             
     4  1  1.50       -38.4773   6.0000                                                             
     4  2  2.50        -3.7535   5.0000                                                             
     4  3  2.50        -1.3606   0.0000                                                             
   Description                                                                                      
     l       E           TYP  RCUT    TYP  RCUT                                                     
     0    -64.3377829     23  2.100                                                                 
     0     -4.0861640     23  2.400                                                                 
     1    -38.4772993     23  2.100                                                                 
     1     13.6058260     23  2.100                                                                 
     2     -3.7534941     23  2.400                                                                 
     2     -5.1140767     23  2.400                                                                 
     3     -4.0817478     23  2.500                                                                 
  local pseudopotential read in
  partial core-charges read in
  partial kinetic energy density read in
  atomic valenz-charges read in
  non local Contribution for L=           0  read in
    real space projection operators read in
  non local Contribution for L=           0  read in
    real space projection operators read in
  non local Contribution for L=           1  read in
    real space projection operators read in
  non local Contribution for L=           1  read in
    real space projection operators read in
  non local Contribution for L=           2  read in
    real space projection operators read in
  non local Contribution for L=           2  read in
    real space projection operators read in
    PAW grid and wavefunctions read in
 
   number of l-projection  operators is LMAX  =           6
   number of lm-projection operators is LMMAX =          18
 
 POTCAR:    PAW_PBE Si 05Jan2001                  
   VRHFIN =Si: s2p2                                                                                 
   LEXCH  = PE                                                                                      
   EATOM  =   103.0669 eV,    7.5752 Ry                                                             
                                                                                                    
   TITEL  = PAW_PBE Si 05Jan2001                                                                    
   LULTRA =        F    use ultrasoft PP ?                                                          
   IUNSCR =        1    unscreen: 0-lin 1-nonlin 2-no                                               
   RPACOR =    1.500    partial core radius                                                         
   POMASS =   28.085; ZVAL   =    4.000    mass and valenz                                          
   RCORE  =    1.900    outmost cutoff radius                                                       
   RWIGS  =    2.480; RWIGS  =    1.312    wigner-seitz radius (au A)                               
   ENMAX  =  245.345; ENMIN  =  184.009 eV                                                          
   ICORE  =        2    local potential                                                             
   LCOR   =        T    correct aug charges                                                         
   LPAW   =        T    paw PP                                                                      
   EAUG   =  322.069                                                                                
   DEXC   =    0.000                                                                                
   RMAX   =    1.950    core radius for proj-oper                                                   
   RAUG   =    1.300    factor for augmentation sphere                                              
   RDEP   =    1.993    radius for radial grids                                                     
   RDEPT  =    1.837    core radius for aug-charge                                                  
                                                                                                    
   Atomic configuration                                                                             
    6 entries                                                                                       
     n  l   j            E        occ.                                                              
     1  0  0.50     -1785.8828   2.0000                                                             
     2  0  0.50      -139.4969   2.0000                                                             
     2  1  1.50       -95.5546   6.0000                                                             
     3  0  0.50       -10.8127   2.0000                                                             
     3  1  0.50        -4.0811   2.0000                                                             
     3  2  1.50        -4.0817   0.0000                                                             
   Description                                                                                      
     l       E           TYP  RCUT    TYP  RCUT                                                     
     0    -10.8127223     23  1.900                                                                 
     0     -7.6451159     23  1.900                                                                 
     1     -4.0811372     23  1.900                                                                 
     1      2.4879257     23  1.900                                                                 
     2     -4.0817478      7  1.900                                                                 
  local pseudopotential read in
  partial core-charges read in
  partial kinetic energy density read in
  atomic valenz-charges read in
  non local Contribution for L=           0  read in
    real space projection operators read in
  non local Contribution for L=           0  read in
    real space projection operators read in
  non local Contribution for L=           1  read in
    real space projection operators read in
  non local Contribution for L=           1  read in
    real space projection operators read in
    PAW grid and wavefunctions read in
 
   number of l-projection  operators is LMAX  =           4
   number of lm-projection operators is LMMAX =           8
 
  PAW_PBE B 06Sep2000                   :
 energy of atom  1       EATOM=  -71.1703
 kinetic energy error for atom=    0.0007 (will be added to EATOM!!)
  PAW_PBE Mo_sv 02Feb2006               :
 energy of atom  2       EATOM=-1862.2866
 kinetic energy error for atom=    0.0041 (will be added to EATOM!!)
  PAW_PBE Si 05Jan2001                  :
 energy of atom  3       EATOM= -103.0669
 kinetic energy error for atom=    0.0003 (will be added to EATOM!!)
 
 
 POSCAR: EA51
  positions in direct lattice
  No initial velocities read in

 METAGGA = R2SCA    LMAXTAU =  6    LMIXTAU =  F

 exchange correlation table for  LEXCH =        8
   RHO(1)=    0.500       N(1)  =     2000
   RHO(2)=  100.500       N(2)  =     4000
 


--------------------------------------------------------------------------------------------------------


 ion  position               nearest neighbor table
   1  0.750  0.250  0.500-   5 2.31   7 2.31   3 2.31   6 2.31
   2  0.250  0.750  0.500-   5 2.31   7 2.31   6 2.31   3 2.31
   3  0.000  0.500  0.000-   9 2.31  10 2.31   2 2.31   1 2.31   7 3.27   7 3.27   5 3.27   5 3.27
                             4 3.30   4 3.30   8 3.30   8 3.30
   4  0.000  0.000  0.000-   9 2.35  10 2.35   3 3.30   7 3.30   7 3.30   3 3.30   6 3.30   6 3.30
                             5 3.30   5 3.30
   5  0.500  0.500  0.500-   1 2.31   2 2.31  10 2.31   9 2.31   6 3.27   6 3.27   3 3.27   3 3.27
                             8 3.30   8 3.30   4 3.30   4 3.30
   6  0.500  0.000  0.000-   9 2.31  10 2.31   1 2.31   2 2.31   5 3.27   5 3.27   7 3.27   7 3.27
                             8 3.30   8 3.30   4 3.30   4 3.30
   7  0.000  0.000  0.500-   1 2.31   2 2.31   9 2.31  10 2.31   3 3.27   3 3.27   6 3.27   6 3.27
                             4 3.30   4 3.30   8 3.30   8 3.30
   8  0.500  0.500  0.000-   9 2.35  10 2.35   5 3.30   6 3.30   5 3.30   6 3.30   3 3.30   3 3.30
                             7 3.30   7 3.30
   9  0.250  0.250  0.000-   3 2.31   6 2.31   5 2.31   7 2.31   8 2.35   4 2.35
  10  0.750  0.750  0.000-   3 2.31   6 2.31   7 2.31   5 2.31   8 2.35   4 2.35
 
  LATTYP: Found a body centered tetragonal cell.
 ALAT       =     6.5410638623
 C/A-ratio  =     1.4358717281
  
  Lattice vectors:
  
 A1 = (   5.6790571865,   0.0000000000,  -3.3457543945)
 A2 = (  -1.8548492512,   5.3676088515,  -3.3457543945)
 A3 = (   0.0000000000,   0.0000000000,   6.5913400000)


Analysis of symmetry for initial positions (statically):
=====================================================================
 Subroutine PRICEL returns following result:
 
  LATTYP: Found a simple tetragonal cell.
 ALAT       =     4.6252289401
 C/A-ratio  =     1.0153150031
  
  Lattice vectors:
  
 A1 = (   3.7669532189,  -2.6838044258,   0.0000000000)
 A2 = (   1.9121039676,   2.6838044258,   3.2455856055)
 A3 = (  -1.9121039676,  -2.6838044258,   3.3457543945)
 
   2 primitive cells build up your supercell.
 

 Routine SETGRP: Setting up the symmetry group for a 
 body centered tetragonal supercell.


 Subroutine GETGRP returns: Found 16 space group operations
 (whereof 16 operations were pure point group operations)
 out of a pool of 16 trial point group operations.


The static configuration has the point symmetry D_4h.


Analysis of symmetry for dynamics (positions and initial velocities):
=====================================================================
 Subroutine PRICEL returns following result:
 
  LATTYP: Found a simple tetragonal cell.
 ALAT       =     4.6252289401
 C/A-ratio  =     1.0153150031
  
  Lattice vectors:
  
 A1 = (   3.7669532189,  -2.6838044258,   0.0000000000)
 A2 = (   1.9121039676,   2.6838044258,   3.2455856055)
 A3 = (  -1.9121039676,  -2.6838044258,   3.3457543945)
 
   2 primitive cells build up your supercell.
 

 Routine SETGRP: Setting up the symmetry group for a 
 body centered tetragonal supercell.


 Subroutine GETGRP returns: Found 16 space group operations
 (whereof 16 operations were pure point group operations)
 out of a pool of 16 trial point group operations.


The dynamic configuration has the point symmetry D_4h.


 Subroutine INISYM returns: Found 16 space group operations
 (whereof 16 operations are pure point group operations),
 and found     2 'primitive' translations


----------------------------------------------------------------------------------------

                                     Primitive cell                                     

  volume of cell :     100.4618

  direct lattice vectors                    reciprocal lattice vectors
     3.766953219 -2.683804426  0.000000000     0.176085566 -0.125453966  0.000000000
     1.912103968  2.683804426  3.245585606     0.089380772  0.125453697  0.151714219
    -1.912103968 -2.683804426  3.345754394    -0.086704794 -0.121697729  0.151714219

  length of vectors
     4.625228940  4.625232286  4.696064336     0.216205514  0.216205358  0.212944272

  position of ions in fractional coordinates (direct lattice)
     0.500000000  0.500000000  0.500000000
     0.500000000  0.000000000  0.500000000
     0.000000000  0.000000000  0.000000000
     0.000000000  0.500000000  0.500000000
     0.000000000  0.000000000  0.500000000

  ion indices of the primitive-cell ions
   primitive index   ion index
                 1           1
                 2           3
                 3           4
                 4           5
                 5           9

----------------------------------------------------------------------------------------

 
 
 KPOINTS: EA                                      

Automatic generation of k-mesh.
 Grid dimensions read from file:
 generate k-points for:    7    7    8

 Generating k-lattice:

  Cartesian coordinates                     Fractional coordinates (reciprocal lattice)
     0.025155081  0.008692676  0.000000000     0.142857143  0.000000000  0.000000000
     0.000000000  0.026614671  0.000000000     0.000000000  0.142857143  0.000000000
     0.011172596  0.015681712  0.018964277     0.000000000 -0.000000000  0.125000000

  Length of vectors
     0.026614671  0.026614671  0.027025670

  Shift w.r.t. Gamma in fractional coordinates (k-lattice)
     0.000000000  0.000000000  0.000000000

 -----------------------------------------------------------------------------
|                                                                             |
|           W    W    AA    RRRRR   N    N  II  N    N   GGGG   !!!           |
|           W    W   A  A   R    R  NN   N  II  NN   N  G    G  !!!           |
|           W    W  A    A  R    R  N N  N  II  N N  N  G       !!!           |
|           W WW W  AAAAAA  RRRRR   N  N N  II  N  N N  G  GGG   !            |
|           WW  WW  A    A  R   R   N   NN  II  N   NN  G    G                |
|           W    W  A    A  R    R  N    N  II  N    N   GGGG   !!!           |
|                                                                             |
|     Your reciprocal lattice and k-lattice belong to different lattice       |
|     classes:                                                                |
|                                                                             |
|        The reciprocal lattice is body-centered tetragonal,                  |
|        whereas your k-lattice is base-centered monoclinic.                  |
|                                                                             |
|     Results are often still useful ...                                      |
|                                                                             |
 -----------------------------------------------------------------------------

 WARNING: IBZKPT: internal override: KBLOWUP is changed to .FALSE.
      ... skipping the blow-up phase ...

 
 Subroutine IBZKPT returns following result:
 ===========================================
 
 Found    116 irreducible k-points:
 
 Following reciprocal coordinates:
            Coordinates               Weight
  0.000000  0.000000  0.000000      1.000000
  0.142857  0.000000  0.000000      4.000000
  0.285714  0.000000  0.000000      4.000000
  0.428571 -0.000000  0.000000      4.000000
  0.142857  0.142857  0.000000      2.000000
  0.285714  0.142857  0.000000      4.000000
  0.428571  0.142857  0.000000      4.000000
 -0.428571  0.142857  0.000000      4.000000
 -0.285714  0.142857  0.000000      4.000000
 -0.142857  0.142857  0.000000      2.000000
  0.285714  0.285714  0.000000      2.000000
  0.428571  0.285714  0.000000      4.000000
 -0.428571  0.285714  0.000000      4.000000
 -0.285714  0.285714  0.000000      2.000000
  0.428571  0.428571  0.000000      2.000000
 -0.428571  0.428571  0.000000      2.000000
  0.000000  0.000000  0.125000      2.000000
  0.142857  0.000000  0.125000      4.000000
  0.285714  0.000000  0.125000      4.000000
  0.428571  0.000000  0.125000      4.000000
 -0.428571  0.000000  0.125000      4.000000
 -0.285714  0.000000  0.125000      4.000000
 -0.142857  0.000000  0.125000      4.000000
  0.142857  0.142857  0.125000      2.000000
  0.285714  0.142857  0.125000      4.000000
  0.428571  0.142857  0.125000      4.000000
 -0.428571  0.142857  0.125000      4.000000
 -0.285714  0.142857  0.125000      4.000000
 -0.142857  0.142857  0.125000      4.000000
  0.285714  0.285714  0.125000      2.000000
  0.428571  0.285714  0.125000      4.000000
 -0.428571  0.285714  0.125000      4.000000
 -0.285714  0.285714  0.125000      4.000000
 -0.142857  0.285714  0.125000      4.000000
  0.428571  0.428571  0.125000      2.000000
 -0.428571  0.428571  0.125000      4.000000
 -0.285714  0.428571  0.125000      4.000000
 -0.142857  0.428571  0.125000      4.000000
 -0.428571 -0.428571  0.125000      2.000000
 -0.285714 -0.428571  0.125000      4.000000
 -0.142857 -0.428571  0.125000      4.000000
 -0.285714 -0.285714  0.125000      2.000000
 -0.142857 -0.285714  0.125000      4.000000
 -0.142857 -0.142857  0.125000      2.000000
  0.000000  0.000000  0.250000      2.000000
  0.142857  0.000000  0.250000      4.000000
  0.285714 -0.000000  0.250000      4.000000
  0.428571  0.000000  0.250000      4.000000
 -0.428571  0.000000  0.250000      4.000000
 -0.285714  0.000000  0.250000      4.000000
 -0.142857  0.000000  0.250000      4.000000
  0.142857  0.142857  0.250000      2.000000
  0.285714  0.142857  0.250000      4.000000
  0.428571  0.142857  0.250000      4.000000
 -0.428571  0.142857  0.250000      4.000000
 -0.285714  0.142857  0.250000      4.000000
 -0.142857  0.142857  0.250000      4.000000
  0.285714  0.285714  0.250000      2.000000
  0.428571  0.285714  0.250000      4.000000
 -0.428571  0.285714  0.250000      4.000000
 -0.285714  0.285714  0.250000      4.000000
 -0.142857  0.285714  0.250000      4.000000
  0.428571  0.428571  0.250000      2.000000
 -0.428571  0.428571  0.250000      4.000000
 -0.285714  0.428571  0.250000      4.000000
 -0.142857  0.428571  0.250000      4.000000
 -0.428571 -0.428571  0.250000      2.000000
 -0.285714 -0.428571  0.250000      4.000000
 -0.142857 -0.428571  0.250000      4.000000
 -0.285714 -0.285714  0.250000      2.000000
 -0.142857 -0.285714  0.250000      4.000000
 -0.142857 -0.142857  0.250000      2.000000
  0.000000 -0.000000  0.375000      2.000000
  0.142857 -0.000000  0.375000      4.000000
  0.285714  0.000000  0.375000      4.000000
  0.428571  0.000000  0.375000      4.000000
 -0.428571 -0.000000  0.375000      4.000000
 -0.285714 -0.000000  0.375000      4.000000
 -0.142857 -0.000000  0.375000      4.000000
  0.142857  0.142857  0.375000      2.000000
  0.285714  0.142857  0.375000      4.000000
  0.428571  0.142857  0.375000      4.000000
 -0.428571  0.142857  0.375000      4.000000
 -0.285714  0.142857  0.375000      4.000000
 -0.142857  0.142857  0.375000      4.000000
  0.285714  0.285714  0.375000      2.000000
  0.428571  0.285714  0.375000      4.000000
 -0.428571  0.285714  0.375000      4.000000
 -0.285714  0.285714  0.375000      4.000000
 -0.142857  0.285714  0.375000      4.000000
  0.428571  0.428571  0.375000      2.000000
 -0.428571  0.428571  0.375000      4.000000
 -0.285714  0.428571  0.375000      4.000000
 -0.142857  0.428571  0.375000      4.000000
 -0.428571 -0.428571  0.375000      2.000000
 -0.285714 -0.428571  0.375000      4.000000
 -0.142857 -0.428571  0.375000      4.000000
 -0.285714 -0.285714  0.375000      2.000000
 -0.142857 -0.285714  0.375000      4.000000
 -0.142857 -0.142857  0.375000      2.000000
  0.000000  0.000000  0.500000      1.000000
  0.142857  0.000000  0.500000      4.000000
  0.285714  0.000000  0.500000      4.000000
  0.428571  0.000000  0.500000      4.000000
  0.142857  0.142857  0.500000      2.000000
  0.285714  0.142857  0.500000      4.000000
  0.428571  0.142857  0.500000      4.000000
 -0.428571  0.142857  0.500000      4.000000
 -0.285714  0.142857  0.500000      4.000000
 -0.142857  0.142857  0.500000      2.000000
  0.285714  0.285714  0.500000      2.000000
  0.428571  0.285714  0.500000      4.000000
 -0.428571  0.285714  0.500000      4.000000
 -0.285714  0.285714  0.500000      2.000000
  0.428571  0.428571  0.500000      2.000000
 -0.428571  0.428571  0.500000      2.000000
 
 Following cartesian coordinates:
            Coordinates               Weight
  0.000000  0.000000  0.000000      1.000000
  0.025155  0.008693  0.000000      4.000000
  0.050310  0.017385  0.000000      4.000000
  0.075465  0.026078  0.000000      4.000000
  0.025155  0.035307  0.000000      2.000000
  0.050310  0.044000  0.000000      4.000000
  0.075465  0.052693  0.000000      4.000000
 -0.075465  0.000537  0.000000      4.000000
 -0.050310  0.009229  0.000000      4.000000
 -0.025155  0.017922  0.000000      2.000000
  0.050310  0.070615  0.000000      2.000000
  0.075465  0.079307  0.000000      4.000000
 -0.075465  0.027151  0.000000      4.000000
 -0.050310  0.035844  0.000000      2.000000
  0.075465  0.105922  0.000000      2.000000
 -0.075465  0.053766  0.000000      2.000000
  0.011173  0.015682  0.018964      2.000000
  0.036328  0.024374  0.018964      4.000000
  0.061483  0.033067  0.018964      4.000000
  0.086638  0.041760  0.018964      4.000000
 -0.064293 -0.010396  0.018964      4.000000
 -0.039138 -0.001704  0.018964      4.000000
 -0.013982  0.006989  0.018964      4.000000
  0.036328  0.050989  0.018964      2.000000
  0.061483  0.059682  0.018964      4.000000
  0.086638  0.068374  0.018964      4.000000
 -0.064293  0.016218  0.018964      4.000000
 -0.039138  0.024911  0.018964      4.000000
 -0.013982  0.033604  0.018964      4.000000
  0.061483  0.086296  0.018964      2.000000
  0.086638  0.094989  0.018964      4.000000
 -0.064293  0.042833  0.018964      4.000000
 -0.039138  0.051526  0.018964      4.000000
 -0.013982  0.060218  0.018964      4.000000
  0.086638  0.121604  0.018964      2.000000
 -0.064293  0.069448  0.018964      4.000000
 -0.039138  0.078140  0.018964      4.000000
 -0.013982  0.086833  0.018964      4.000000
 -0.064293 -0.090240  0.018964      2.000000
 -0.039138 -0.081548  0.018964      4.000000
 -0.013982 -0.072855  0.018964      4.000000
 -0.039138 -0.054933  0.018964      2.000000
 -0.013982 -0.046240  0.018964      4.000000
 -0.013982 -0.019626  0.018964      2.000000
  0.022345  0.031363  0.037929      2.000000
  0.047500  0.040056  0.037929      4.000000
  0.072655  0.048749  0.037929      4.000000
  0.097810  0.057441  0.037929      4.000000
 -0.053120  0.005285  0.037929      4.000000
 -0.027965  0.013978  0.037929      4.000000
 -0.002810  0.022671  0.037929      4.000000
  0.047500  0.066671  0.037929      2.000000
  0.072655  0.075363  0.037929      4.000000
  0.097810  0.084056  0.037929      4.000000
 -0.053120  0.031900  0.037929      4.000000
 -0.027965  0.040593  0.037929      4.000000
 -0.002810  0.049285  0.037929      4.000000
  0.072655  0.101978  0.037929      2.000000
  0.097810  0.110671  0.037929      4.000000
 -0.053120  0.058515  0.037929      4.000000
 -0.027965  0.067207  0.037929      4.000000
 -0.002810  0.075900  0.037929      4.000000
  0.097810  0.137285  0.037929      2.000000
 -0.053120  0.085129  0.037929      4.000000
 -0.027965  0.093822  0.037929      4.000000
 -0.002810  0.102515  0.037929      4.000000
 -0.053120 -0.074559  0.037929      2.000000
 -0.027965 -0.065866  0.037929      4.000000
 -0.002810 -0.057173  0.037929      4.000000
 -0.027965 -0.039251  0.037929      2.000000
 -0.002810 -0.030559  0.037929      4.000000
 -0.002810 -0.003944  0.037929      2.000000
  0.033518  0.047045  0.056893      2.000000
  0.058673  0.055738  0.056893      4.000000
  0.083828  0.064430  0.056893      4.000000
  0.108983  0.073123  0.056893      4.000000
 -0.041947  0.020967  0.056893      4.000000
 -0.016792  0.029660  0.056893      4.000000
  0.008363  0.038352  0.056893      4.000000
  0.058673  0.082352  0.056893      2.000000
  0.083828  0.091045  0.056893      4.000000
  0.108983  0.099738  0.056893      4.000000
 -0.041947  0.047582  0.056893      4.000000
 -0.016792  0.056274  0.056893      4.000000
  0.008363  0.064967  0.056893      4.000000
  0.083828  0.117660  0.056893      2.000000
  0.108983  0.126353  0.056893      4.000000
 -0.041947  0.074196  0.056893      4.000000
 -0.016792  0.082889  0.056893      4.000000
  0.008363  0.091582  0.056893      4.000000
  0.108983  0.152967  0.056893      2.000000
 -0.041947  0.100811  0.056893      4.000000
 -0.016792  0.109504  0.056893      4.000000
  0.008363  0.118196  0.056893      4.000000
 -0.041947 -0.058877  0.056893      2.000000
 -0.016792 -0.050184  0.056893      4.000000
  0.008363 -0.041492  0.056893      4.000000
 -0.016792 -0.023570  0.056893      2.000000
  0.008363 -0.014877  0.056893      4.000000
  0.008363  0.011738  0.056893      2.000000
  0.044690  0.062727  0.075857      1.000000
  0.069845  0.071420  0.075857      4.000000
  0.095001  0.080112  0.075857      4.000000
  0.120156  0.088805  0.075857      4.000000
  0.069845  0.098034  0.075857      2.000000
  0.095001  0.106727  0.075857      4.000000
  0.120156  0.115420  0.075857      4.000000
 -0.030775  0.063263  0.075857      4.000000
 -0.005620  0.071956  0.075857      4.000000
  0.019535  0.080649  0.075857      2.000000
  0.095001  0.133342  0.075857      2.000000
  0.120156  0.142034  0.075857      4.000000
 -0.030775  0.089878  0.075857      4.000000
 -0.005620  0.098571  0.075857      2.000000
  0.120156  0.168649  0.075857      2.000000
 -0.030775  0.116493  0.075857      2.000000
 


--------------------------------------------------------------------------------------------------------




 Dimension of arrays:
   k-points           NKPTS =    116   k-points in BZ     NKDIM =    116   number of bands    NBANDS=     60
   number of dos      NEDOS =    301   number of ions     NIONS =     10
   non local maximal  LDIM  =      6   non local SUM 2l+1 LMDIM =     18
   total plane-waves  NPLWV = 157464
   max r-space proj   IRMAX =      1   max aug-charges    IRDMAX= 274347
   dimension x,y,z NGX =    54 NGY =   54 NGZ =   54
   dimension x,y,z NGXF=   108 NGYF=  108 NGZF=  108
   support grid    NGXF=   216 NGYF=  216 NGZF=  216
   ions per type =               2   6   2
   NGX,Y,Z   is equivalent  to a cutoff of  13.62, 13.62, 13.62 a.u.
   NGXF,Y,Z  is equivalent  to a cutoff of  27.24, 27.24, 27.24 a.u.

 SYSTEM =  routine with relax: pwdword             
 POSCAR =  EA51                                    

 Startparameter for this run:
   NWRITE =      2    write-flag & timer
   PREC   = acc       normal or accurate (medium, high low for compatibility)
   ISTART =      0    job   : 0-new  1-cont  2-samecut
   ICHARG =      2    charge: 1-file 2-atom 10-const
   ISPIN  =      1    spin polarized calculation?
   LNONCOLLINEAR =      F non collinear calculations
   LSORBIT =      F    spin-orbit coupling
   INIWAV =      1    electr: 0-lowe 1-rand  2-diag
   LASPH  =      T    aspherical Exc in radial PAW
   METAGGA=      F    non-selfconsistent MetaGGA calc.

 Electronic Relaxation 1
   ENCUT  =  600.0 eV  44.10 Ry    6.64 a.u.  13.16 13.16 13.16*2*pi/ulx,y,z
   ENINI  =  600.0     initial cutoff
   ENAUG  =  535.5 eV  augmentation charge cutoff
   NELM   =    100;   NELMIN=  6; NELMDL= -5     # of ELM steps 
   EDIFF  = 0.1E-08   stopping-criterion for ELM
   LREAL  =      F    real-space projection
   NLSPLINE    = F    spline interpolate recip. space projectors
   LCOMPAT=      F    compatible to vasp.4.4
   GGA_COMPAT  = T    GGA compatible to vasp.4.4-vasp.4.6
   LMAXPAW     = -100 max onsite density
   LMAXMIX     =    2 max onsite mixed and CHGCAR
   VOSKOWN=      0    Vosko Wilk Nusair interpolation
   ROPT   =    0.00000   0.00000   0.00000
 Ionic relaxation
   EDIFFG = 0.1E-07   stopping-criterion for IOM
   NSW    =      0    number of steps for IOM
   NBLOCK =      1;   KBLOCK =      1    inner block; outer block 
   IBRION =     -1    ionic relax: 0-MD 1-quasi-New 2-CG
   NFREE  =      0    steps in history (QN), initial steepest desc. (CG)
   ISIF   =     -1    stress and relaxation
   IWAVPR =     10    prediction:  0-non 1-charg 2-wave 3-comb
   ISYM   =      2    0-nonsym 1-usesym 2-fastsym
   LCORR  =      T    Harris-Foulkes like correction to forces

   POTIM  = 0.5000    time-step for ionic-motion
   TEIN   =    0.0    initial temperature
   TEBEG  =    0.0;   TEEND  =   0.0 temperature during run
   SMASS  =  -3.00    Nose mass-parameter (am)
   estimated Nose-frequenzy (Omega)   =  0.10E-29 period in steps = 0.13E+47 mass=  -0.993E-27a.u.
   SCALEE = 1.0000    scale energy and forces
   NPACO  =    256;   APACO  = 16.0  distance and # of slots for P.C.
   PSTRESS=    0.0 pullay stress

  Mass of Ions in am
   POMASS =  10.81 95.94 28.09
  Ionic Valenz
   ZVAL   =   3.00 14.00  4.00
  Atomic Wigner-Seitz radii
   RWIGS  =  -1.00 -1.00 -1.00
  virtual crystal weights 
   VCA    =   1.00  1.00  1.00
   NELECT =      98.0000    total number of electrons
   NUPDOWN=      -1.0000    fix difference up-down

 DOS related values:
   EMIN   =  10.00;   EMAX   =-10.00  energy-range for DOS
   EFERMI =   0.00
   ISMEAR =     0;   SIGMA  =   0.02  broadening in eV -4-tet -1-fermi 0-gaus

 Electronic relaxation 2 (details)
   IALGO  =     58    algorithm
   LDIAG  =      T    sub-space diagonalisation (order eigenvalues)
   LSUBROT=      F    optimize rotation matrix (better conditioning)
   TURBO    =      0    0=normal 1=particle mesh
   IRESTART =      0    0=no restart 2=restart with 2 vectors
   NREBOOT  =      0    no. of reboots
   NMIN     =      0    reboot dimension
   EREF     =   0.00    reference energy to select bands
   IMIX   =      4    mixing-type and parameters
     AMIX     =   0.40;   BMIX     =  1.00
     AMIX_MAG =   1.60;   BMIX_MAG =  1.00
     AMIN     =   0.10
     WC   =   100.;   INIMIX=   1;  MIXPRE=   1;  MAXMIX= -45

 Intra band minimization:
   WEIMIN = 0.0000     energy-eigenvalue tresh-hold
   EBREAK =  0.42E-11  absolut break condition
   DEPER  =   0.30     relativ break condition  

   TIME   =   0.40     timestep for ELM

  volume/ion in A,a.u.               =      20.09       135.59
  Fermi-wavevector in a.u.,A,eV,Ry     =   1.288665  2.435223 22.594605  1.660657
  Thomas-Fermi vector in A             =   2.420605
 
 Write flags
   LWAVE        =      T    write WAVECAR
   LDOWNSAMPLE  =      F    k-point downsampling of WAVECAR
   LCHARG       =      T    write CHGCAR
   LVTOT        =      F    write LOCPOT, total local potential
   LVHAR        =      F    write LOCPOT, Hartree potential only
   LELF         =      F    write electronic localiz. function (ELF)
   LORBIT       =      0    0 simple, 1 ext, 2 COOP (PROOUT), +10 PAW based schemes


 Dipole corrections
   LMONO  =      F    monopole corrections only (constant potential shift)
   LDIPOL =      F    correct potential (dipole corrections)
   IDIPOL =      0    1-x, 2-y, 3-z, 4-all directions 
   EPSILON=  1.0000000 bulk dielectric constant

 Exchange correlation treatment:
   GGA     =    --    GGA type
   LEXCH   =     8    internal setting for exchange type
   VOSKOWN=      0    Vosko Wilk Nusair interpolation
   LHFCALC =     F    Hartree Fock is set to
   LHFONE  =     F    Hartree Fock one center treatment
   AEXX    =    0.0000 exact exchange contribution

 Linear response parameters
   LEPSILON=     F    determine dielectric tensor
   LRPA    =     F    only Hartree local field effects (RPA)
   LNABLA  =     F    use nabla operator in PAW spheres
   LVEL    =     F    velocity operator in full k-point grid
   LINTERFAST=   F  fast interpolation
   KINTER  =     0    interpolate to denser k-point grid
   CSHIFT  =0.1000    complex shift for real part using Kramers Kronig
   OMEGAMAX=  -1.0    maximum frequency
   DEG_THRESHOLD= 0.2000000E-02 threshold for treating states as degnerate
   RTIME   =   -0.100 relaxation time in fs
  (WPLASMAI=    0.000 imaginary part of plasma frequency in eV, 0.658/RTIME)
   DFIELD  = 0.0000000 0.0000000 0.0000000 field for delta impulse in time
 
 Orbital magnetization related:
   ORBITALMAG=     F  switch on orbital magnetization
   LCHIMAG   =     F  perturbation theory with respect to B field
   DQ        =  0.001000  dq finite difference perturbation B field
   LLRAUG    =     F  two centre corrections for induced B field



--------------------------------------------------------------------------------------------------------


 Static calculation
 charge density and potential will be updated during run
 non-spin polarized calculation
 Conjugate gradient for all bands (Freysoldt, et al. PRB 79, 241103 (2009))
 preconditioned conjugated gradient                                        
 perform sub-space diagonalisation
    before iterative eigenvector-optimisation
 modified Broyden-mixing scheme, WC =      100.0
 initial mixing is a Kerker type mixing with AMIX =  0.4000 and BMIX =      1.0000
 Hartree-type preconditioning will be used
 using additional bands           11
 reciprocal scheme for non local part
 use partial core corrections
 no Harris-corrections to forces 
 use gradient corrections 
 use of overlap-Matrix (Vanderbilt PP)
 Gauss-broadening in eV      SIGMA  =   0.02


--------------------------------------------------------------------------------------------------------


  energy-cutoff  :      600.00
  volume of cell :      200.92
      direct lattice vectors                 reciprocal lattice vectors
     5.679057187  0.000000000 -3.345754394     0.176085566  0.060848730  0.000000000
    -1.854849251  5.367608852 -3.345754394     0.000000000  0.186302696  0.000000000
     0.000000000  0.000000000  6.591340000     0.089380772  0.125453697  0.151714219

  length of vectors
     6.591340000  6.591340000  6.591340000     0.186302696  0.186302696  0.216205358


 
 k-points in units of 2pi/SCALE and weight: EA                                      
   0.00000000  0.00000000  0.00000000       0.003
   0.02515508  0.00869268  0.00000000       0.010
   0.05031016  0.01738535  0.00000000       0.010
   0.07546524  0.02607803  0.00000000       0.010
   0.02515508  0.03530735  0.00000000       0.005
   0.05031016  0.04400002  0.00000000       0.010
   0.07546524  0.05269270  0.00000000       0.010
  -0.07546524  0.00053664  0.00000000       0.010
  -0.05031016  0.00922932  0.00000000       0.010
  -0.02515508  0.01792200  0.00000000       0.005
   0.05031016  0.07061469  0.00000000       0.005
   0.07546524  0.07930737  0.00000000       0.010
  -0.07546524  0.02715131  0.00000000       0.010
  -0.05031016  0.03584399  0.00000000       0.005
   0.07546524  0.10592204  0.00000000       0.005
  -0.07546524  0.05376599  0.00000000       0.005
   0.01117260  0.01568171  0.01896428       0.005
   0.03632768  0.02437439  0.01896428       0.010
   0.06148276  0.03306706  0.01896428       0.010
   0.08663784  0.04175974  0.01896428       0.010
  -0.06429265 -0.01039631  0.01896428       0.010
  -0.03913757 -0.00170364  0.01896428       0.010
  -0.01398248  0.00698904  0.01896428       0.010
   0.03632768  0.05098906  0.01896428       0.005
   0.06148276  0.05968173  0.01896428       0.010
   0.08663784  0.06837441  0.01896428       0.010
  -0.06429265  0.01621836  0.01896428       0.010
  -0.03913757  0.02491103  0.01896428       0.010
  -0.01398248  0.03360371  0.01896428       0.010
   0.06148276  0.08629641  0.01896428       0.005
   0.08663784  0.09498908  0.01896428       0.010
  -0.06429265  0.04283303  0.01896428       0.010
  -0.03913757  0.05152570  0.01896428       0.010
  -0.01398248  0.06021838  0.01896428       0.010
   0.08663784  0.12160375  0.01896428       0.005
  -0.06429265  0.06944770  0.01896428       0.010
  -0.03913757  0.07814037  0.01896428       0.010
  -0.01398248  0.08683305  0.01896428       0.010
  -0.06429265 -0.09024033  0.01896428       0.005
  -0.03913757 -0.08154765  0.01896428       0.010
  -0.01398248 -0.07285498  0.01896428       0.010
  -0.03913757 -0.05493298  0.01896428       0.005
  -0.01398248 -0.04624031  0.01896428       0.010
  -0.01398248 -0.01962563  0.01896428       0.005
   0.02234519  0.03136342  0.03792855       0.005
   0.04750027  0.04005610  0.03792855       0.010
   0.07265535  0.04874878  0.03792855       0.010
   0.09781044  0.05744145  0.03792855       0.010
  -0.05312005  0.00528540  0.03792855       0.010
  -0.02796497  0.01397807  0.03792855       0.010
  -0.00280989  0.02267075  0.03792855       0.010
   0.04750027  0.06667077  0.03792855       0.005
   0.07265535  0.07536345  0.03792855       0.010
   0.09781044  0.08405612  0.03792855       0.010
  -0.05312005  0.03190007  0.03792855       0.010
  -0.02796497  0.04059274  0.03792855       0.010
  -0.00280989  0.04928542  0.03792855       0.010
   0.07265535  0.10197812  0.03792855       0.005
   0.09781044  0.11067079  0.03792855       0.010
  -0.05312005  0.05851474  0.03792855       0.010
  -0.02796497  0.06720741  0.03792855       0.010
  -0.00280989  0.07590009  0.03792855       0.010
   0.09781044  0.13728546  0.03792855       0.005
  -0.05312005  0.08512941  0.03792855       0.010
  -0.02796497  0.09382209  0.03792855       0.010
  -0.00280989  0.10251476  0.03792855       0.010
  -0.05312005 -0.07455862  0.03792855       0.005
  -0.02796497 -0.06586594  0.03792855       0.010
  -0.00280989 -0.05717326  0.03792855       0.010
  -0.02796497 -0.03925127  0.03792855       0.005
  -0.00280989 -0.03055859  0.03792855       0.010
  -0.00280989 -0.00394392  0.03792855       0.005
   0.03351779  0.04704514  0.05689283       0.005
   0.05867287  0.05573781  0.05689283       0.010
   0.08382795  0.06443049  0.05689283       0.010
   0.10898303  0.07312316  0.05689283       0.010
  -0.04194745  0.02096711  0.05689283       0.010
  -0.01679237  0.02965978  0.05689283       0.010
   0.00836271  0.03835246  0.05689283       0.010
   0.05867287  0.08235248  0.05689283       0.005
   0.08382795  0.09104516  0.05689283       0.010
   0.10898303  0.09973783  0.05689283       0.010
  -0.04194745  0.04758178  0.05689283       0.010
  -0.01679237  0.05627446  0.05689283       0.010
   0.00836271  0.06496713  0.05689283       0.010
   0.08382795  0.11765983  0.05689283       0.005
   0.10898303  0.12635250  0.05689283       0.010
  -0.04194745  0.07419645  0.05689283       0.010
  -0.01679237  0.08288913  0.05689283       0.010
   0.00836271  0.09158180  0.05689283       0.010
   0.10898303  0.15296718  0.05689283       0.005
  -0.04194745  0.10081112  0.05689283       0.010
  -0.01679237  0.10950380  0.05689283       0.010
   0.00836271  0.11819647  0.05689283       0.010
  -0.04194745 -0.05887690  0.05689283       0.005
  -0.01679237 -0.05018423  0.05689283       0.010
   0.00836271 -0.04149155  0.05689283       0.010
  -0.01679237 -0.02356956  0.05689283       0.005
   0.00836271 -0.01487688  0.05689283       0.010
   0.00836271  0.01173779  0.05689283       0.005
   0.04469039  0.06272685  0.07585711       0.003
   0.06984547  0.07141952  0.07585711       0.010
   0.09500055  0.08011220  0.07585711       0.010
   0.12015563  0.08880488  0.07585711       0.010
   0.06984547  0.09803419  0.07585711       0.005
   0.09500055  0.10672687  0.07585711       0.010
   0.12015563  0.11541955  0.07585711       0.010
  -0.03077486  0.06326349  0.07585711       0.010
  -0.00561978  0.07195617  0.07585711       0.010
   0.01953531  0.08064884  0.07585711       0.005
   0.09500055  0.13334154  0.07585711       0.005
   0.12015563  0.14203422  0.07585711       0.010
  -0.03077486  0.08987816  0.07585711       0.010
  -0.00561978  0.09857084  0.07585711       0.005
   0.12015563  0.16864889  0.07585711       0.005
  -0.03077486  0.11649283  0.07585711       0.005
 
 k-points in reciprocal lattice and weights: EA                                      
   0.00000000  0.00000000  0.00000000       0.003
   0.14285714  0.00000000  0.00000000       0.010
   0.28571429  0.00000000  0.00000000       0.010
   0.42857143 -0.00000000  0.00000000       0.010
   0.14285714  0.14285714  0.00000000       0.005
   0.28571429  0.14285714  0.00000000       0.010
   0.42857143  0.14285714  0.00000000       0.010
  -0.42857143  0.14285714  0.00000000       0.010
  -0.28571429  0.14285714  0.00000000       0.010
  -0.14285714  0.14285714  0.00000000       0.005
   0.28571429  0.28571429  0.00000000       0.005
   0.42857143  0.28571429  0.00000000       0.010
  -0.42857143  0.28571429  0.00000000       0.010
  -0.28571429  0.28571429  0.00000000       0.005
   0.42857143  0.42857143  0.00000000       0.005
  -0.42857143  0.42857143  0.00000000       0.005
   0.00000000  0.00000000  0.12500000       0.005
   0.14285714  0.00000000  0.12500000       0.010
   0.28571429  0.00000000  0.12500000       0.010
   0.42857143  0.00000000  0.12500000       0.010
  -0.42857143  0.00000000  0.12500000       0.010
  -0.28571429  0.00000000  0.12500000       0.010
  -0.14285714  0.00000000  0.12500000       0.010
   0.14285714  0.14285714  0.12500000       0.005
   0.28571429  0.14285714  0.12500000       0.010
   0.42857143  0.14285714  0.12500000       0.010
  -0.42857143  0.14285714  0.12500000       0.010
  -0.28571429  0.14285714  0.12500000       0.010
  -0.14285714  0.14285714  0.12500000       0.010
   0.28571429  0.28571429  0.12500000       0.005
   0.42857143  0.28571429  0.12500000       0.010
  -0.42857143  0.28571429  0.12500000       0.010
  -0.28571429  0.28571429  0.12500000       0.010
  -0.14285714  0.28571429  0.12500000       0.010
   0.42857143  0.42857143  0.12500000       0.005
  -0.42857143  0.42857143  0.12500000       0.010
  -0.28571429  0.42857143  0.12500000       0.010
  -0.14285714  0.42857143  0.12500000       0.010
  -0.42857143 -0.42857143  0.12500000       0.005
  -0.28571429 -0.42857143  0.12500000       0.010
  -0.14285714 -0.42857143  0.12500000       0.010
  -0.28571429 -0.28571429  0.12500000       0.005
  -0.14285714 -0.28571429  0.12500000       0.010
  -0.14285714 -0.14285714  0.12500000       0.005
   0.00000000  0.00000000  0.25000000       0.005
   0.14285714  0.00000000  0.25000000       0.010
   0.28571429 -0.00000000  0.25000000       0.010
   0.42857143  0.00000000  0.25000000       0.010
  -0.42857143  0.00000000  0.25000000       0.010
  -0.28571429  0.00000000  0.25000000       0.010
  -0.14285714  0.00000000  0.25000000       0.010
   0.14285714  0.14285714  0.25000000       0.005
   0.28571429  0.14285714  0.25000000       0.010
   0.42857143  0.14285714  0.25000000       0.010
  -0.42857143  0.14285714  0.25000000       0.010
  -0.28571429  0.14285714  0.25000000       0.010
  -0.14285714  0.14285714  0.25000000       0.010
   0.28571429  0.28571429  0.25000000       0.005
   0.42857143  0.28571429  0.25000000       0.010
  -0.42857143  0.28571429  0.25000000       0.010
  -0.28571429  0.28571429  0.25000000       0.010
  -0.14285714  0.28571429  0.25000000       0.010
   0.42857143  0.42857143  0.25000000       0.005
  -0.42857143  0.42857143  0.25000000       0.010
  -0.28571429  0.42857143  0.25000000       0.010
  -0.14285714  0.42857143  0.25000000       0.010
  -0.42857143 -0.42857143  0.25000000       0.005
  -0.28571429 -0.42857143  0.25000000       0.010
  -0.14285714 -0.42857143  0.25000000       0.010
  -0.28571429 -0.28571429  0.25000000       0.005
  -0.14285714 -0.28571429  0.25000000       0.010
  -0.14285714 -0.14285714  0.25000000       0.005
   0.00000000 -0.00000000  0.37500000       0.005
   0.14285714 -0.00000000  0.37500000       0.010
   0.28571429  0.00000000  0.37500000       0.010
   0.42857143  0.00000000  0.37500000       0.010
  -0.42857143 -0.00000000  0.37500000       0.010
  -0.28571429 -0.00000000  0.37500000       0.010
  -0.14285714 -0.00000000  0.37500000       0.010
   0.14285714  0.14285714  0.37500000       0.005
   0.28571429  0.14285714  0.37500000       0.010
   0.42857143  0.14285714  0.37500000       0.010
  -0.42857143  0.14285714  0.37500000       0.010
  -0.28571429  0.14285714  0.37500000       0.010
  -0.14285714  0.14285714  0.37500000       0.010
   0.28571429  0.28571429  0.37500000       0.005
   0.42857143  0.28571429  0.37500000       0.010
  -0.42857143  0.28571429  0.37500000       0.010
  -0.28571429  0.28571429  0.37500000       0.010
  -0.14285714  0.28571429  0.37500000       0.010
   0.42857143  0.42857143  0.37500000       0.005
  -0.42857143  0.42857143  0.37500000       0.010
  -0.28571429  0.42857143  0.37500000       0.010
  -0.14285714  0.42857143  0.37500000       0.010
  -0.42857143 -0.42857143  0.37500000       0.005
  -0.28571429 -0.42857143  0.37500000       0.010
  -0.14285714 -0.42857143  0.37500000       0.010
  -0.28571429 -0.28571429  0.37500000       0.005
  -0.14285714 -0.28571429  0.37500000       0.010
  -0.14285714 -0.14285714  0.37500000       0.005
   0.00000000  0.00000000  0.50000000       0.003
   0.14285714  0.00000000  0.50000000       0.010
   0.28571429  0.00000000  0.50000000       0.010
   0.42857143  0.00000000  0.50000000       0.010
   0.14285714  0.14285714  0.50000000       0.005
   0.28571429  0.14285714  0.50000000       0.010
   0.42857143  0.14285714  0.50000000       0.010
  -0.42857143  0.14285714  0.50000000       0.010
  -0.28571429  0.14285714  0.50000000       0.010
  -0.14285714  0.14285714  0.50000000       0.005
   0.28571429  0.28571429  0.50000000       0.005
   0.42857143  0.28571429  0.50000000       0.010
  -0.42857143  0.28571429  0.50000000       0.010
  -0.28571429  0.28571429  0.50000000       0.005
   0.42857143  0.42857143  0.50000000       0.005
  -0.42857143  0.42857143  0.50000000       0.005
 
 position of ions in fractional coordinates (direct lattice) 
   0.75000000  0.25000000  0.50000000
   0.25000000  0.75000000  0.50000000
   0.00000000  0.50000000  0.00000000
   0.00000000  0.00000000  0.00000000
   0.50000000  0.50000000  0.50000000
   0.50000000  0.00000000  0.00000000
   0.00000000  0.00000000  0.50000000
   0.50000000  0.50000000  0.00000000
   0.25000000  0.25000000  0.00000000
   0.75000000  0.75000000  0.00000000
 
 position of ions in cartesian coordinates  (Angst):
   3.79558058  1.34190221 -0.05008439
   0.02862736  4.02570664 -0.05008439
  -0.92742463  2.68380443 -1.67287720
   0.00000000  0.00000000  0.00000000
   1.91210397  2.68380443 -0.05008439
   2.83952859  0.00000000 -1.67287720
   0.00000000  0.00000000  3.29567000
   1.91210397  2.68380443 -3.34575439
   0.95605198  1.34190221 -1.67287720
   2.86815595  4.02570664 -5.01863159
 


--------------------------------------------------------------------------------------------------------


 k-point   1 :   0.0000 0.0000 0.0000  plane waves:    6719
 k-point   2 :   0.1429 0.0000 0.0000  plane waves:    6697
 k-point   3 :   0.2857 0.0000 0.0000  plane waves:    6699
 k-point   4 :   0.4286-0.0000 0.0000  plane waves:    6713
 k-point   5 :   0.1429 0.1429 0.0000  plane waves:    6701
 k-point   6 :   0.2857 0.1429 0.0000  plane waves:    6695
 k-point   7 :   0.4286 0.1429 0.0000  plane waves:    6703
 k-point   8 :  -0.4286 0.1429 0.0000  plane waves:    6695
 k-point   9 :  -0.2857 0.1429 0.0000  plane waves:    6701
 k-point  10 :  -0.1429 0.1429 0.0000  plane waves:    6683
 k-point  11 :   0.2857 0.2857 0.0000  plane waves:    6710
 k-point  12 :   0.4286 0.2857 0.0000  plane waves:    6717
 k-point  13 :  -0.4286 0.2857 0.0000  plane waves:    6712
 k-point  14 :  -0.2857 0.2857 0.0000  plane waves:    6698
 k-point  15 :   0.4286 0.4286 0.0000  plane waves:    6714
 k-point  16 :  -0.4286 0.4286 0.0000  plane waves:    6730
 k-point  17 :   0.0000 0.0000 0.1250  plane waves:    6683
 k-point  18 :   0.1429 0.0000 0.1250  plane waves:    6699
 k-point  19 :   0.2857 0.0000 0.1250  plane waves:    6690
 k-point  20 :   0.4286 0.0000 0.1250  plane waves:    6703
 k-point  21 :  -0.4286 0.0000 0.1250  plane waves:    6697
 k-point  22 :  -0.2857 0.0000 0.1250  plane waves:    6695
 k-point  23 :  -0.1429 0.0000 0.1250  plane waves:    6694
 k-point  24 :   0.1429 0.1429 0.1250  plane waves:    6690
 k-point  25 :   0.2857 0.1429 0.1250  plane waves:    6707
 k-point  26 :   0.4286 0.1429 0.1250  plane waves:    6698
 k-point  27 :  -0.4286 0.1429 0.1250  plane waves:    6701
 k-point  28 :  -0.2857 0.1429 0.1250  plane waves:    6695
 k-point  29 :  -0.1429 0.1429 0.1250  plane waves:    6690
 k-point  30 :   0.2857 0.2857 0.1250  plane waves:    6715
 k-point  31 :   0.4286 0.2857 0.1250  plane waves:    6718
 k-point  32 :  -0.4286 0.2857 0.1250  plane waves:    6707
 k-point  33 :  -0.2857 0.2857 0.1250  plane waves:    6718
 k-point  34 :  -0.1429 0.2857 0.1250  plane waves:    6692
 k-point  35 :   0.4286 0.4286 0.1250  plane waves:    6719
 k-point  36 :  -0.4286 0.4286 0.1250  plane waves:    6716
 k-point  37 :  -0.2857 0.4286 0.1250  plane waves:    6702
 k-point  38 :  -0.1429 0.4286 0.1250  plane waves:    6695
 k-point  39 :  -0.4286-0.4286 0.1250  plane waves:    6725
 k-point  40 :  -0.2857-0.4286 0.1250  plane waves:    6710
 k-point  41 :  -0.1429-0.4286 0.1250  plane waves:    6710
 k-point  42 :  -0.2857-0.2857 0.1250  plane waves:    6709
 k-point  43 :  -0.1429-0.2857 0.1250  plane waves:    6701
 k-point  44 :  -0.1429-0.1429 0.1250  plane waves:    6693
 k-point  45 :   0.0000 0.0000 0.2500  plane waves:    6700
 k-point  46 :   0.1429 0.0000 0.2500  plane waves:    6713
 k-point  47 :   0.2857-0.0000 0.2500  plane waves:    6713
 k-point  48 :   0.4286 0.0000 0.2500  plane waves:    6714
 k-point  49 :  -0.4286 0.0000 0.2500  plane waves:    6702
 k-point  50 :  -0.2857 0.0000 0.2500  plane waves:    6695
 k-point  51 :  -0.1429 0.0000 0.2500  plane waves:    6694
 k-point  52 :   0.1429 0.1429 0.2500  plane waves:    6724
 k-point  53 :   0.2857 0.1429 0.2500  plane waves:    6711
 k-point  54 :   0.4286 0.1429 0.2500  plane waves:    6701
 k-point  55 :  -0.4286 0.1429 0.2500  plane waves:    6696
 k-point  56 :  -0.2857 0.1429 0.2500  plane waves:    6689
 k-point  57 :  -0.1429 0.1429 0.2500  plane waves:    6711
 k-point  58 :   0.2857 0.2857 0.2500  plane waves:    6713
 k-point  59 :   0.4286 0.2857 0.2500  plane waves:    6720
 k-point  60 :  -0.4286 0.2857 0.2500  plane waves:    6707
 k-point  61 :  -0.2857 0.2857 0.2500  plane waves:    6698
 k-point  62 :  -0.1429 0.2857 0.2500  plane waves:    6696
 k-point  63 :   0.4286 0.4286 0.2500  plane waves:    6723
 k-point  64 :  -0.4286 0.4286 0.2500  plane waves:    6711
 k-point  65 :  -0.2857 0.4286 0.2500  plane waves:    6706
 k-point  66 :  -0.1429 0.4286 0.2500  plane waves:    6711
 k-point  67 :  -0.4286-0.4286 0.2500  plane waves:    6711
 k-point  68 :  -0.2857-0.4286 0.2500  plane waves:    6704
 k-point  69 :  -0.1429-0.4286 0.2500  plane waves:    6711
 k-point  70 :  -0.2857-0.2857 0.2500  plane waves:    6698
 k-point  71 :  -0.1429-0.2857 0.2500  plane waves:    6698
 k-point  72 :  -0.1429-0.1429 0.2500  plane waves:    6695
 k-point  73 :   0.0000-0.0000 0.3750  plane waves:    6718
 k-point  74 :   0.1429-0.0000 0.3750  plane waves:    6718
 k-point  75 :   0.2857 0.0000 0.3750  plane waves:    6713
 k-point  76 :   0.4286 0.0000 0.3750  plane waves:    6713
 k-point  77 :  -0.4286-0.0000 0.3750  plane waves:    6693
 k-point  78 :  -0.2857-0.0000 0.3750  plane waves:    6699
 k-point  79 :  -0.1429-0.0000 0.3750  plane waves:    6713
 k-point  80 :   0.1429 0.1429 0.3750  plane waves:    6716
 k-point  81 :   0.2857 0.1429 0.3750  plane waves:    6716
 k-point  82 :   0.4286 0.1429 0.3750  plane waves:    6707
 k-point  83 :  -0.4286 0.1429 0.3750  plane waves:    6695
 k-point  84 :  -0.2857 0.1429 0.3750  plane waves:    6694
 k-point  85 :  -0.1429 0.1429 0.3750  plane waves:    6710
 k-point  86 :   0.2857 0.2857 0.3750  plane waves:    6705
 k-point  87 :   0.4286 0.2857 0.3750  plane waves:    6710
 k-point  88 :  -0.4286 0.2857 0.3750  plane waves:    6705
 k-point  89 :  -0.2857 0.2857 0.3750  plane waves:    6704
 k-point  90 :  -0.1429 0.2857 0.3750  plane waves:    6715
 k-point  91 :   0.4286 0.4286 0.3750  plane waves:    6713
 k-point  92 :  -0.4286 0.4286 0.3750  plane waves:    6704
 k-point  93 :  -0.2857 0.4286 0.3750  plane waves:    6713
 k-point  94 :  -0.1429 0.4286 0.3750  plane waves:    6712
 k-point  95 :  -0.4286-0.4286 0.3750  plane waves:    6701
 k-point  96 :  -0.2857-0.4286 0.3750  plane waves:    6706
 k-point  97 :  -0.1429-0.4286 0.3750  plane waves:    6713
 k-point  98 :  -0.2857-0.2857 0.3750  plane waves:    6700
 k-point  99 :  -0.1429-0.2857 0.3750  plane waves:    6705
 k-point 100 :  -0.1429-0.1429 0.3750  plane waves:    6687
 k-point 101 :   0.0000 0.0000 0.5000  plane waves:    6734
 k-point 102 :   0.1429 0.0000 0.5000  plane waves:    6715
 k-point 103 :   0.2857 0.0000 0.5000  plane waves:    6708
 k-point 104 :   0.4286 0.0000 0.5000  plane waves:    6708
 k-point 105 :   0.1429 0.1429 0.5000  plane waves:    6716
 k-point 106 :   0.2857 0.1429 0.5000  plane waves:    6707
 k-point 107 :   0.4286 0.1429 0.5000  plane waves:    6707
 k-point 108 :  -0.4286 0.1429 0.5000  plane waves:    6709
 k-point 109 :  -0.2857 0.1429 0.5000  plane waves:    6705
 k-point 110 :  -0.1429 0.1429 0.5000  plane waves:    6714
 k-point 111 :   0.2857 0.2857 0.5000  plane waves:    6709
 k-point 112 :   0.4286 0.2857 0.5000  plane waves:    6699
 k-point 113 :  -0.4286 0.2857 0.5000  plane waves:    6709
 k-point 114 :  -0.2857 0.2857 0.5000  plane waves:    6720
 k-point 115 :   0.4286 0.4286 0.5000  plane waves:    6694
 k-point 116 :  -0.4286 0.4286 0.5000  plane waves:    6702

 maximum and minimum number of plane-waves per node :      3376     3326

 maximum number of plane-waves:      6734
 maximum index in each direction: 
   IXMAX=   13   IYMAX=   13   IZMAX=   13
   IXMIN=  -13   IYMIN=  -13   IZMIN=  -13


 parallel 3D FFT for wavefunctions:
    minimum data exchange during FFTs selected (reduces bandwidth)
 parallel 3D FFT for charge:
    minimum data exchange during FFTs selected (reduces bandwidth)


 total amount of memory used by VASP MPI-rank0   423118. kBytes
=======================================================================

   base      :      30000. kBytes
   nonl-proj :     169818. kBytes
   fftplans  :      17769. kBytes
   grid      :      13358. kBytes
   one-center:         77. kBytes
   wavefun   :     192096. kBytes
 
     INWAV:  cpu time    0.0001: real time    0.0001
 Broyden mixing: mesh for mixing (old mesh)
   NGX = 27   NGY = 27   NGZ = 27
  (NGX  =108   NGY  =108   NGZ  =108)
  gives a total of  19683 points

 initial charge density was supplied:
 charge density of overlapping atoms calculated
 number of electron      98.0000000 magnetization 
 keeping initial charge density in first step


--------------------------------------------------------------------------------------------------------


 Maximum index for augmentation-charges        22347 (set IRDMAX)


--------------------------------------------------------------------------------------------------------


 First call to EWALD:  gamma=   0.303
 Maximum number of real-space cells 3x 3x 3
 Maximum number of reciprocal cells 3x 3x 3

    FEWALD:  cpu time    0.0214: real time    0.0216


--------------------------------------- Iteration      1(   1)  ---------------------------------------


    POTLOK:  cpu time    0.1598: real time    0.1613
    SETDIJ:  cpu time    0.6350: real time    0.6399
    TRIAL :  cpu time   28.5082: real time   28.8294
    CORREC:  cpu time    0.0019: real time    0.0019
    --------------------------------------------
      LOOP:  cpu time   29.4220: real time   29.7554

 eigenvalue-minimisations  : 15072
 total energy-change (2. order) : 0.9758396E+03  (-0.6466560E+04)
 number of electron      98.0000000 magnetization 
 augmentation part       98.0000000 magnetization 

 Free energy of the ion-electron system (eV)
  ---------------------------------------------------
  alpha Z        PSCENC =       415.80218290
  Ewald energy   TEWEN  =     -7901.62513732
  -Hartree energ DENC   =     -3205.77567904
  -exchange      EXHF   =         0.00000000
  -V(xc)+E(xc)   XCENC  =       459.65221005
  PAW double counting   =      9166.97638771    -9126.13493418
  entropy T*S    EENTRO =        -0.00090377
  eigenvalues    EBANDS =      -355.22199046
  atomic energy  EATOM  =     11522.16744521
  ---------------------------------------------------
  free energy    TOTEN  =       975.83958112 eV

  energy without entropy =      975.84048489  energy(sigma->0) =      975.84003300


--------------------------------------------------------------------------------------------------------




--------------------------------------- Iteration      1(   2)  ---------------------------------------


    TRIAL :  cpu time   31.8106: real time   32.1559
    CORREC:  cpu time    0.0020: real time    0.0020
    --------------------------------------------
      LOOP:  cpu time   31.8154: real time   32.1614

 eigenvalue-minimisations  : 15420
 total energy-change (2. order) :-0.1145577E+04  (-0.1114255E+04)
 number of electron      98.0000000 magnetization 
 augmentation part       98.0000000 magnetization 

 Free energy of the ion-electron system (eV)
  ---------------------------------------------------
  alpha Z        PSCENC =       415.80218290
  Ewald energy   TEWEN  =     -7901.62513732
  -Hartree energ DENC   =     -3205.77567904
  -exchange      EXHF   =         0.00000000
  -V(xc)+E(xc)   XCENC  =       459.65221005
  PAW double counting   =      9166.97638771    -9126.13493418
  entropy T*S    EENTRO =        -0.00157589
  eigenvalues    EBANDS =     -1500.79785589
  atomic energy  EATOM  =     11522.16744521
  ---------------------------------------------------
  free energy    TOTEN  =      -169.73695643 eV

  energy without entropy =     -169.73538054  energy(sigma->0) =     -169.73616849


--------------------------------------------------------------------------------------------------------




--------------------------------------- Iteration      1(   3)  ---------------------------------------


    TRIAL :  cpu time   36.6447: real time   37.0591
    CORREC:  cpu time    0.0017: real time    0.0018
    --------------------------------------------
      LOOP:  cpu time   36.6484: real time   37.0637

 eigenvalue-minimisations  : 18396
 total energy-change (2. order) :-0.4862761E+02  (-0.4624408E+02)
 number of electron      98.0000000 magnetization 
 augmentation part       98.0000000 magnetization 

 Free energy of the ion-electron system (eV)
  ---------------------------------------------------
  alpha Z        PSCENC =       415.80218290
  Ewald energy   TEWEN  =     -7901.62513732
  -Hartree energ DENC   =     -3205.77567904
  -exchange      EXHF   =         0.00000000
  -V(xc)+E(xc)   XCENC  =       459.65221005
  PAW double counting   =      9166.97638771    -9126.13493418
  entropy T*S    EENTRO =        -0.00243459
  eigenvalues    EBANDS =     -1549.42460268
  atomic energy  EATOM  =     11522.16744521
  ---------------------------------------------------
  free energy    TOTEN  =      -218.36456192 eV

  energy without entropy =     -218.36212733  energy(sigma->0) =     -218.36334463


--------------------------------------------------------------------------------------------------------




--------------------------------------- Iteration      1(   4)  ---------------------------------------


    TRIAL :  cpu time   35.8233: real time   36.2087
    CORREC:  cpu time    0.0020: real time    0.0020
    --------------------------------------------
      LOOP:  cpu time   35.8277: real time   36.2135

 eigenvalue-minimisations  : 17736
 total energy-change (2. order) :-0.1484816E+01  (-0.1440052E+01)
 number of electron      98.0000000 magnetization 
 augmentation part       98.0000000 magnetization 

 Free energy of the ion-electron system (eV)
  ---------------------------------------------------
  alpha Z        PSCENC =       415.80218290
  Ewald energy   TEWEN  =     -7901.62513732
  -Hartree energ DENC   =     -3205.77567904
  -exchange      EXHF   =         0.00000000
  -V(xc)+E(xc)   XCENC  =       459.65221005
  PAW double counting   =      9166.97638771    -9126.13493418
  entropy T*S    EENTRO =        -0.00262222
  eigenvalues    EBANDS =     -1550.90923117
  atomic energy  EATOM  =     11522.16744521
  ---------------------------------------------------
  free energy    TOTEN  =      -219.84937804 eV

  energy without entropy =     -219.84675582  energy(sigma->0) =     -219.84806693


--------------------------------------------------------------------------------------------------------




--------------------------------------- Iteration      1(   5)  ---------------------------------------


    TRIAL :  cpu time   37.0694: real time   37.4555
    CORREC:  cpu time    0.0021: real time    0.0021
    CHARGE:  cpu time    2.3442: real time    2.3647
    --------------------------------------------
      LOOP:  cpu time   39.4182: real time   39.8252

 eigenvalue-minimisations  : 18312
 total energy-change (2. order) :-0.4788568E-01  (-0.4756358E-01)
 number of electron      98.0000001 magnetization 
 augmentation part       12.0136390 magnetization 

 Free energy of the ion-electron system (eV)
  ---------------------------------------------------
  alpha Z        PSCENC =       415.80218290
  Ewald energy   TEWEN  =     -7901.62513732
  -Hartree energ DENC   =     -3205.77567904
  -exchange      EXHF   =         0.00000000
  -V(xc)+E(xc)   XCENC  =       459.65221005
  PAW double counting   =      9166.97638771    -9126.13493418
  entropy T*S    EENTRO =        -0.00270893
  eigenvalues    EBANDS =     -1550.95703013
  atomic energy  EATOM  =     11522.16744521
  ---------------------------------------------------
  free energy    TOTEN  =      -219.89726372 eV

  energy without entropy =     -219.89455479  energy(sigma->0) =     -219.89590926


--------------------------------------------------------------------------------------------------------




--------------------------------------- Iteration      1(   6)  ---------------------------------------


    POTLOK:  cpu time    0.1888: real time    0.1901
    SETDIJ:  cpu time    0.6077: real time    0.6129
    TRIAL :  cpu time   24.1455: real time   24.4685
    CORREC:  cpu time    9.0361: real time    9.1139
    CHARGE:  cpu time    2.6092: real time    2.6291
    --------------------------------------------
      LOOP:  cpu time   36.6240: real time   37.0518

 eigenvalue-minimisations  :     0
 total energy-change (2. order) : 0.6807933E+02  (-0.1717025E+02)
 number of electron      98.0000001 magnetization 
 augmentation part       14.0292240 magnetization 

 Free energy of the ion-electron system (eV)
  ---------------------------------------------------
  alpha Z        PSCENC =       415.80218290
  Ewald energy   TEWEN  =     -7901.62513732
  -Hartree energ DENC   =     -2771.84582130
  -exchange      EXHF   =         0.00000000
  -V(xc)+E(xc)   XCENC  =       452.34817080
  PAW double counting   =     12180.48676733   -12181.49395063
  entropy T*S    EENTRO =        -0.00193088
  eigenvalues    EBANDS =     -1867.65487953
  atomic energy  EATOM  =     11522.16744521
  ---------------------------------------------------
  free energy    TOTEN  =      -151.81793148 eV

  energy without entropy =     -151.81600060  energy(sigma->0) =     -151.81696604


--------------------------------------------------------------------------------------------------------




--------------------------------------- Iteration      1(   7)  ---------------------------------------


    POTLOK:  cpu time    0.1410: real time    0.1419
    SETDIJ:  cpu time    0.6262: real time    0.6311
    TRIAL :  cpu time   29.2643: real time   29.5367
    CORREC:  cpu time   11.6780: real time   11.7720
    CHARGE:  cpu time    2.3784: real time    2.3961
    --------------------------------------------
      LOOP:  cpu time   44.1050: real time   44.4962

 eigenvalue-minimisations  :     0
 total energy-change (2. order) :-0.1713021E+02  (-0.4007308E+01)
 number of electron      98.0000001 magnetization 
 augmentation part       14.2708792 magnetization 

 Free energy of the ion-electron system (eV)
  ---------------------------------------------------
  alpha Z        PSCENC =       415.80218290
  Ewald energy   TEWEN  =     -7901.62513732
  -Hartree energ DENC   =     -2987.69581599
  -exchange      EXHF   =         0.00000000
  -V(xc)+E(xc)   XCENC  =       462.81762592
  PAW double counting   =     11887.64621287   -11874.33776725
  entropy T*S    EENTRO =        -0.00226376
  eigenvalues    EBANDS =     -1693.72096028
  atomic energy  EATOM  =     11522.16744521
  ---------------------------------------------------
  free energy    TOTEN  =      -168.94814482 eV

  energy without entropy =     -168.94588106  energy(sigma->0) =     -168.94701294


--------------------------------------------------------------------------------------------------------




--------------------------------------- Iteration      1(   8)  ---------------------------------------


    POTLOK:  cpu time    0.1438: real time    0.1450
    SETDIJ:  cpu time    0.6445: real time    0.6490
    TRIAL :  cpu time   28.6711: real time   28.9403
    CORREC:  cpu time   11.0243: real time   11.1138
    CHARGE:  cpu time    2.5922: real time    2.6122
    --------------------------------------------
      LOOP:  cpu time   43.0771: real time   43.4624

 eigenvalue-minimisations  :     0
 total energy-change (2. order) :-0.4010088E+01  (-0.1139195E+01)
 number of electron      98.0000001 magnetization 
 augmentation part       14.2924457 magnetization 

 Free energy of the ion-electron system (eV)
  ---------------------------------------------------
  alpha Z        PSCENC =       415.80218290
  Ewald energy   TEWEN  =     -7901.62513732
  -Hartree energ DENC   =     -3051.00312314
  -exchange      EXHF   =         0.00000000
  -V(xc)+E(xc)   XCENC  =       466.00896875
  PAW double counting   =     11832.67818240   -11813.97096034
  entropy T*S    EENTRO =        -0.00239275
  eigenvalues    EBANDS =     -1643.01352787
  atomic energy  EATOM  =     11522.16744521
  ---------------------------------------------------
  free energy    TOTEN  =      -172.95823316 eV

  energy without entropy =     -172.95584041  energy(sigma->0) =     -172.95703679


--------------------------------------------------------------------------------------------------------




--------------------------------------- Iteration      1(   9)  ---------------------------------------


    POTLOK:  cpu time    0.2272: real time    0.2286
    SETDIJ:  cpu time    0.4763: real time    0.4795
    TRIAL :  cpu time   30.5176: real time   30.7906
    CORREC:  cpu time    8.5882: real time    8.6776
    CHARGE:  cpu time    2.6374: real time    2.6568
    --------------------------------------------
      LOOP:  cpu time   43.1182: real time   43.5085

 eigenvalue-minimisations  :     0
 total energy-change (2. order) :-0.1140296E+01  (-0.4061835E+00)
 number of electron      98.0000001 magnetization 
 augmentation part       14.2261001 magnetization 

 Free energy of the ion-electron system (eV)
  ---------------------------------------------------
  alpha Z        PSCENC =       415.80218290
  Ewald energy   TEWEN  =     -7901.62513732
  -Hartree energ DENC   =     -3063.64902702
  -exchange      EXHF   =         0.00000000
  -V(xc)+E(xc)   XCENC  =       466.76245233
  PAW double counting   =     11888.59943722   -11866.97048942
  entropy T*S    EENTRO =        -0.00217466
  eigenvalues    EBANDS =     -1635.18300064
  atomic energy  EATOM  =     11522.16744521
  ---------------------------------------------------
  free energy    TOTEN  =      -174.09852949 eV

  energy without entropy =     -174.09635483  energy(sigma->0) =     -174.09744216


--------------------------------------------------------------------------------------------------------




--------------------------------------- Iteration      1(  10)  ---------------------------------------


    POTLOK:  cpu time    0.5142: real time    0.5176
    SETDIJ:  cpu time    0.2386: real time    0.2405
    TRIAL :  cpu time   29.9426: real time   30.2190
    CORREC:  cpu time   12.5319: real time   12.6313
    CHARGE:  cpu time    2.6932: real time    2.7125
    --------------------------------------------
      LOOP:  cpu time   46.8444: real time   47.2505

 eigenvalue-minimisations  :     0
 total energy-change (2. order) :-0.4063721E+00  (-0.2103154E+00)
 number of electron      98.0000001 magnetization 
 augmentation part       14.1893504 magnetization 

 Free energy of the ion-electron system (eV)
  ---------------------------------------------------
  alpha Z        PSCENC =       415.80218290
  Ewald energy   TEWEN  =     -7901.62513732
  -Hartree energ DENC   =     -3061.55329324
  -exchange      EXHF   =         0.00000000
  -V(xc)+E(xc)   XCENC  =       466.77299223
  PAW double counting   =     11954.92244628   -11932.09241636
  entropy T*S    EENTRO =        -0.00241357
  eigenvalues    EBANDS =     -1638.89694661
  atomic energy  EATOM  =     11522.16744521
  ---------------------------------------------------
  free energy    TOTEN  =      -174.50490155 eV

  energy without entropy =     -174.50248798  energy(sigma->0) =     -174.50369477


--------------------------------------------------------------------------------------------------------




--------------------------------------- Iteration      1(  11)  ---------------------------------------


    POTLOK:  cpu time    0.1405: real time    0.1414
    SETDIJ:  cpu time    0.6473: real time    0.6520
    TRIAL :  cpu time   31.3344: real time   31.6096
    CORREC:  cpu time   11.0365: real time   11.1190
    CHARGE:  cpu time    3.2502: real time    3.2857
    --------------------------------------------
      LOOP:  cpu time   46.4140: real time   46.8130

 eigenvalue-minimisations  :     0
[...]
     10     -30.3923      2.00000
     11     -30.3825      2.00000
     12     -30.3748      2.00000
     13     -30.3595      2.00000
     14     -30.3594      2.00000
     15     -30.3150      2.00000
     16     -30.2825      2.00000
     17     -30.2574      2.00000
     18     -30.2532      2.00000
     19     -30.2296      2.00000
     20     -30.2001      2.00000
     21     -30.1342      2.00000
     22     -30.1310      2.00000
     23     -30.1116      2.00000
     24     -30.1047      2.00000
     25      -3.1293      2.00000
     26      -3.1000      2.00000
     27      -1.1376      2.00000
     28      -0.8421      2.00000
     29       1.1983      2.00000
     30       1.3935      2.00000
     31       1.8853      2.00000
     32       1.9394      2.00000
     33       2.6266      2.00000
     34       2.7765      2.00000
     35       3.1033      2.00000
     36       3.2762      2.00000
     37       3.4831      2.00000
     38       3.7317      2.00000
     39       3.8098      2.00000
     40       3.8282      2.00000
     41       4.1484      2.00000
     42       4.2922      2.00000
     43       4.5510      2.00000
     44       4.9244      2.00000
     45       4.9542      2.00000
     46       5.1578      2.00000
     47       5.3101      2.00000
     48       5.6303      2.00000
     49       5.7036      2.00000
     50       6.0871      0.00000
     51       6.1977      0.00000
     52       6.4216      0.00000
     53       6.4288      0.00000
     54       6.6501      0.00000
     55       6.8307      0.00000
     56       6.9882      0.00000
     57       7.0433      0.00000
     58       7.4960      0.00000
     59       8.0047      0.00000
     60       8.1667      0.00000

 k-point   110 :      -0.1429    0.1429    0.5000
  band No.  band energies     occupation 
      1     -56.9782      2.00000
      2     -56.9766      2.00000
      3     -56.8768      2.00000
      4     -56.8699      2.00000
      5     -56.8690      2.00000
      6     -56.8635      2.00000
      7     -30.4435      2.00000
      8     -30.4300      2.00000
      9     -30.3987      2.00000
     10     -30.3828      2.00000
     11     -30.3728      2.00000
     12     -30.3671      2.00000
     13     -30.3597      2.00000
     14     -30.3566      2.00000
     15     -30.3105      2.00000
     16     -30.2940      2.00000
     17     -30.2824      2.00000
     18     -30.2638      2.00000
     19     -30.2556      2.00000
     20     -30.1863      2.00000
     21     -30.1381      2.00000
     22     -30.1341      2.00000
     23     -30.1086      2.00000
     24     -30.0975      2.00000
     25      -3.2808      2.00000
     26      -2.7887      2.00000
     27      -1.0696      2.00000
     28      -1.0133      2.00000
     29       1.0233      2.00000
     30       1.5600      2.00000
     31       1.6125      2.00000
     32       2.2113      2.00000
     33       2.6220      2.00000
     34       3.0064      2.00000
     35       3.2091      2.00000
     36       3.2805      2.00000
     37       3.3108      2.00000
     38       3.5172      2.00000
     39       3.7366      2.00000
     40       3.8049      2.00000
     41       3.8832      2.00000
     42       4.0866      2.00000
     43       4.6344      2.00000
     44       5.0160      2.00000
     45       5.0182      2.00000
     46       5.2876      2.00000
     47       5.4387      2.00000
     48       5.4518      2.00000
     49       5.4520      2.00000
     50       5.9752      0.00243
     51       6.2879      0.00000
     52       6.3547      0.00000
     53       6.4906      0.00000
     54       6.4967      0.00000
     55       6.5905      0.00000
     56       7.0821      0.00000
     57       7.4667      0.00000
     58       7.7849      0.00000
     59       8.4974      0.00000
     60       9.0370      0.00000

 k-point   111 :       0.2857    0.2857    0.5000
  band No.  band energies     occupation 
      1     -56.9779      2.00000
      2     -56.9772      2.00000
      3     -56.8811      2.00000
      4     -56.8699      2.00000
      5     -56.8697      2.00000
      6     -56.8582      2.00000
      7     -30.4919      2.00000
      8     -30.4406      2.00000
      9     -30.4322      2.00000
     10     -30.4084      2.00000
     11     -30.3857      2.00000
     12     -30.3806      2.00000
     13     -30.3591      2.00000
     14     -30.3460      2.00000
     15     -30.3016      2.00000
     16     -30.2452      2.00000
     17     -30.2432      2.00000
     18     -30.2316      2.00000
     19     -30.2258      2.00000
     20     -30.2235      2.00000
     21     -30.1222      2.00000
     22     -30.1159      2.00000
     23     -30.1122      2.00000
     24     -30.1122      2.00000
     25      -3.7247      2.00000
     26      -2.5067      2.00000
     27      -1.3842      2.00000
     28      -0.5692      2.00000
     29       1.0551      2.00000
     30       1.2282      2.00000
     31       2.0775      2.00000
     32       2.1090      2.00000
     33       2.5437      2.00000
     34       2.8230      2.00000
     35       2.8252      2.00000
     36       3.0847      2.00000
     37       3.3867      2.00000
     38       3.5838      2.00000
     39       3.7868      2.00000
     40       4.2935      2.00000
     41       4.3753      2.00000
     42       4.4978      2.00000
     43       4.6653      2.00000
     44       4.8579      2.00000
     45       4.9480      2.00000
     46       5.0545      2.00000
     47       5.6450      2.00000
     48       5.8379      2.00000
     49       5.8505      2.00000
     50       5.9857      0.00016
     51       6.1309      0.00000
     52       6.2548      0.00000
     53       6.5296      0.00000
     54       6.8176      0.00000
     55       6.9432      0.00000
     56       7.0239      0.00000
     57       7.1322      0.00000
     58       7.4942      0.00000
     59       8.0821      0.00000
     60       8.6513      0.00000

 k-point   112 :       0.4286    0.2857    0.5000
  band No.  band energies     occupation 
      1     -56.9773      2.00000
      2     -56.9772      2.00000
      3     -56.8831      2.00000
      4     -56.8712      2.00000
      5     -56.8684      2.00000
      6     -56.8568      2.00000
      7     -30.4876      2.00000
      8     -30.4439      2.00000
      9     -30.4182      2.00000
     10     -30.4173      2.00000
     11     -30.3832      2.00000
     12     -30.3749      2.00000
     13     -30.3657      2.00000
     14     -30.3571      2.00000
     15     -30.2956      2.00000
     16     -30.2497      2.00000
     17     -30.2345      2.00000
     18     -30.2288      2.00000
     19     -30.2238      2.00000
     20     -30.2077      2.00000
     21     -30.1291      2.00000
     22     -30.1270      2.00000
     23     -30.1192      2.00000
     24     -30.1154      2.00000
     25      -3.7003      2.00000
     26      -2.5042      2.00000
     27      -1.4358      2.00000
     28      -0.3192      2.00000
     29       0.7523      2.00000
     30       1.1451      2.00000
     31       1.7260      2.00000
     32       2.3465      2.00000
     33       2.7910      2.00000
     34       2.8191      2.00000
     35       2.8363      2.00000
     36       2.9127      2.00000
     37       3.3815      2.00000
     38       3.6545      2.00000
     39       3.8502      2.00000
     40       4.3342      2.00000
     41       4.5721      2.00000
     42       4.6697      2.00000
     43       4.8363      2.00000
     44       4.8798      2.00000
     45       5.0560      2.00000
     46       5.0633      2.00000
     47       5.3035      2.00000
     48       5.8136      2.00000
     49       6.0089      0.00000
     50       6.1510      0.00000
     51       6.2525      0.00000
     52       6.2973      0.00000
     53       6.3419      0.00000
     54       6.6705      0.00000
     55       6.7287      0.00000
     56       7.0179      0.00000
     57       7.0691      0.00000
     58       7.3007      0.00000
     59       7.7305      0.00000
     60       8.0634      0.00000

 k-point   113 :      -0.4286    0.2857    0.5000
  band No.  band energies     occupation 
      1     -56.9773      2.00000
      2     -56.9768      2.00000
      3     -56.8836      2.00000
      4     -56.8711      2.00000
      5     -56.8684      2.00000
      6     -56.8568      2.00000
      7     -30.4746      2.00000
      8     -30.4361      2.00000
      9     -30.4169      2.00000
     10     -30.4056      2.00000
     11     -30.3799      2.00000
     12     -30.3747      2.00000
     13     -30.3696      2.00000
     14     -30.3684      2.00000
     15     -30.2922      2.00000
     16     -30.2649      2.00000
     17     -30.2323      2.00000
     18     -30.2281      2.00000
     19     -30.2184      2.00000
     20     -30.2077      2.00000
     21     -30.1428      2.00000
     22     -30.1310      2.00000
     23     -30.1217      2.00000
     24     -30.1152      2.00000
     25      -3.5665      2.00000
     26      -2.6184      2.00000
     27      -1.4017      2.00000
     28      -0.3315      2.00000
     29       0.8006      2.00000
     30       1.1908      2.00000
     31       1.4013      2.00000
     32       2.5671      2.00000
     33       2.7518      2.00000
     34       2.8269      2.00000
     35       2.8456      2.00000
     36       2.9286      2.00000
     37       3.4075      2.00000
     38       3.7521      2.00000
     39       3.8578      2.00000
     40       4.4004      2.00000
     41       4.5582      2.00000
     42       4.6281      2.00000
     43       4.7910      2.00000
     44       4.9231      2.00000
     45       4.9633      2.00000
     46       5.1051      2.00000
     47       5.1260      2.00000
     48       5.8429      2.00000
     49       6.0710      0.00000
     50       6.1892      0.00000
     51       6.2035      0.00000
     52       6.2296      0.00000
     53       6.3781      0.00000
     54       6.6487      0.00000
     55       6.7351      0.00000
     56       6.8777      0.00000
     57       7.0141      0.00000
     58       7.1172      0.00000
     59       7.5246      0.00000
     60       8.1021      0.00000

 k-point   114 :      -0.2857    0.2857    0.5000
  band No.  band energies     occupation 
      1     -56.9775      2.00000
      2     -56.9766      2.00000
      3     -56.8822      2.00000
      4     -56.8699      2.00000
      5     -56.8695      2.00000
      6     -56.8582      2.00000
      7     -30.4610      2.00000
      8     -30.4245      2.00000
      9     -30.4086      2.00000
     10     -30.3995      2.00000
     11     -30.3859      2.00000
     12     -30.3738      2.00000
     13     -30.3728      2.00000
     14     -30.3686      2.00000
     15     -30.2943      2.00000
     16     -30.2775      2.00000
     17     -30.2495      2.00000
     18     -30.2312      2.00000
     19     -30.2234      2.00000
     20     -30.2028      2.00000
     21     -30.1456      2.00000
     22     -30.1340      2.00000
     23     -30.1145      2.00000
     24     -30.1136      2.00000
     25      -3.3535      2.00000
     26      -2.8389      2.00000
     27      -1.2934      2.00000
     28      -0.5915      2.00000
     29       1.1919      2.00000
     30       1.2119      2.00000
     31       1.3666      2.00000
     32       2.3834      2.00000
     33       2.7216      2.00000
     34       2.7718      2.00000
     35       2.9220      2.00000
     36       3.1003      2.00000
     37       3.4629      2.00000
     38       3.7875      2.00000
     39       3.8280      2.00000
     40       4.3750      2.00000
     41       4.4291      2.00000
     42       4.4530      2.00000
     43       4.5020      2.00000
     44       4.8294      2.00000
     45       5.0288      2.00000
     46       5.0860      2.00000
     47       5.1632      2.00000
     48       5.7153      2.00000
     49       5.8545      2.00000
     50       6.2089      0.00000
     51       6.2162      0.00000
     52       6.2765      0.00000
     53       6.4070      0.00000
     54       6.6470      0.00000
     55       6.7958      0.00000
     56       6.9276      0.00000
     57       6.9916      0.00000
     58       7.1510      0.00000
     59       7.7239      0.00000
     60       8.0917      0.00000

 k-point   115 :       0.4286    0.4286    0.5000
  band No.  band energies     occupation 
      1     -56.9770      2.00000
      2     -56.9768      2.00000
      3     -56.8851      2.00000
      4     -56.8699      2.00000
      5     -56.8699      2.00000
      6     -56.8553      2.00000
      7     -30.4807      2.00000
      8     -30.4295      2.00000
      9     -30.4250      2.00000
     10     -30.4224      2.00000
     11     -30.3765      2.00000
     12     -30.3759      2.00000
     13     -30.3703      2.00000
     14     -30.3685      2.00000
     15     -30.2772      2.00000
     16     -30.2553      2.00000
     17     -30.2305      2.00000
     18     -30.2249      2.00000
     19     -30.2160      2.00000
     20     -30.2008      2.00000
     21     -30.1479      2.00000
     22     -30.1323      2.00000
     23     -30.1296      2.00000
     24     -30.1163      2.00000
     25      -3.7367      2.00000
     26      -2.3026      2.00000
     27      -1.5190      2.00000
     28       0.0158      2.00000
     29       0.5709      2.00000
     30       0.6676      2.00000
     31       1.5041      2.00000
     32       2.4971      2.00000
     33       2.6991      2.00000
     34       2.7339      2.00000
     35       2.9668      2.00000
     36       3.1621      2.00000
     37       3.3200      2.00000
     38       3.7184      2.00000
     39       3.9944      2.00000
     40       4.3226      2.00000
     41       4.4141      2.00000
     42       4.7842      2.00000
     43       4.8606      2.00000
     44       5.0634      2.00000
     45       5.0823      2.00000
     46       5.1981      2.00000
     47       5.4287      2.00000
     48       5.9005      1.97573
     49       5.9987      0.00000
     50       6.1556      0.00000
     51       6.2688      0.00000
     52       6.4197      0.00000
     53       6.4664      0.00000
     54       6.5949      0.00000
     55       6.6585      0.00000
     56       6.8129      0.00000
     57       6.9192      0.00000
     58       7.1646      0.00000
     59       7.2248      0.00000
     60       8.4924      0.00000

 k-point   116 :      -0.4286    0.4286    0.5000
  band No.  band energies     occupation 
      1     -56.9770      2.00000
      2     -56.9766      2.00000
      3     -56.8853      2.00000
      4     -56.8699      2.00000
      5     -56.8699      2.00000
      6     -56.8553      2.00000
      7     -30.4747      2.00000
      8     -30.4295      2.00000
      9     -30.4204      2.00000
     10     -30.4175      2.00000
     11     -30.3749      2.00000
     12     -30.3746      2.00000
     13     -30.3743      2.00000
     14     -30.3729      2.00000
     15     -30.2733      2.00000
     16     -30.2612      2.00000
     17     -30.2311      2.00000
     18     -30.2238      2.00000
     19     -30.2159      2.00000
     20     -30.2008      2.00000
     21     -30.1540      2.00000
     22     -30.1338      2.00000
     23     -30.1310      2.00000
     24     -30.1163      2.00000
     25      -3.6876      2.00000
     26      -2.3440      2.00000
     27      -1.5059      2.00000
     28       0.0136      2.00000
     29       0.5872      2.00000
     30       0.6793      2.00000
     31       1.3849      2.00000
     32       2.5741      2.00000
     33       2.7085      2.00000
     34       2.7428      2.00000
     35       2.9710      2.00000
     36       3.1611      2.00000
     37       3.3282      2.00000
     38       3.7623      2.00000
     39       4.0044      2.00000
     40       4.3169      2.00000
     41       4.4214      2.00000
     42       4.7489      2.00000
     43       4.8323      2.00000
     44       5.0232      2.00000
     45       5.1337      2.00000
     46       5.1486      2.00000
     47       5.4162      2.00000
     48       5.8920      1.99570
     49       6.0970      0.00000
     50       6.1120      0.00000
     51       6.2559      0.00000
     52       6.4298      0.00000
     53       6.4664      0.00000
     54       6.5789      0.00000
     55       6.6717      0.00000
     56       6.6979      0.00000
     57       6.8709      0.00000
     58       7.1606      0.00000
     59       7.1674      0.00000
     60       8.5264      0.00000


--------------------------------------------------------------------------------------------------------


 soft charge-density along one line, spin component           1
         0         1         2         3         4         5         6         7         8         9
 total charge-density along one line
 
 pseudopotential strength for first ion, spin component:           1
  6.145   9.328   0.000  -0.000  -0.000   0.000  -0.000  -0.000
  9.328  14.152   0.000  -0.000  -0.000   0.000  -0.000  -0.000
  0.000   0.000  -2.075  -0.001   0.000  -3.488  -0.003   0.001
 -0.000  -0.000  -0.001  -2.074  -0.000  -0.003  -3.487  -0.002
 -0.000  -0.000   0.000  -0.000  -2.075   0.001  -0.002  -3.489
  0.000   0.000  -3.488  -0.003   0.001  -5.655  -0.007   0.004
 -0.000  -0.000  -0.003  -3.487  -0.002  -0.007  -5.652  -0.005
 -0.000  -0.000   0.001  -0.002  -3.489   0.004  -0.005  -5.658
 total augmentation occupancy for first ion, spin component:           1
  2.958  -0.570  -0.000   0.000  -0.000   0.000   0.000   0.000
 -0.570   0.118   0.000   0.000   0.000   0.000  -0.000   0.000
  0.000  -0.000   1.765   0.424  -0.242  -0.406  -0.105   0.060
  0.000   0.000   0.424   1.577   0.302  -0.105  -0.360  -0.075
  0.000   0.000  -0.242   0.302   1.933   0.060  -0.075  -0.448
  0.000   0.000  -0.406  -0.105   0.060   0.096   0.027  -0.015
  0.000   0.000  -0.105  -0.360  -0.075   0.027   0.084   0.019
 -0.000   0.000   0.060  -0.075  -0.448  -0.015   0.019   0.106


------------------------ aborting loop because EDIFF is reached ----------------------------------------




--------------------------------------------------------------------------------------------------------



  FREE ENERGIE OF THE ION-ELECTRON SYSTEM (eV)
  ---------------------------------------------------
  free  energy   TOTEN  =      -174.91999585 eV

  energy  without entropy=     -174.91762466  energy(sigma->0) =     -174.91881025
 


--------------------------------------------------------------------------------------------------------


    POTLOK:  cpu time    1.2365: real time    1.2461


--------------------------------------------------------------------------------------------------------


 writing wavefunctions
     LOOP+:  cpu time 1840.8188: real time 1858.2933
    4ORBIT:  cpu time    0.0000: real time    0.0000

 total amount of memory used by VASP MPI-rank0   423118. kBytes
=======================================================================

   base      :      30000. kBytes
   nonl-proj :     169818. kBytes
   fftplans  :      17769. kBytes
   grid      :      13358. kBytes
   one-center:         77. kBytes
   wavefun   :     192096. kBytes
 
  
  
 General timing and accounting informations for this job:
 ========================================================
  
                  Total CPU time used (sec):     1847.245
                            User time (sec):     1826.390
                          System time (sec):       20.855
                         Elapsed time (sec):     1865.726
  
                   Maximum memory used (kb):      646804.
                   Average memory used (kb):          N/A
  
                          Minor page faults:      2669284
                          Major page faults:           17
                 Voluntary context switches:        12318
