<?xml version="1.0" encoding="ISO-8859-1"?>
<modeling>
 <generator>
  <i name="program" type="string">vasp </i>
  <i name="version" type="string">6.2.0  </i>
  <i name="subversion" type="string">18Jan21 (build Jan 05 2022 15:41:44) complex                          parallel </i>
  <i name="platform" type="string">LinuxIFC </i>
  <i name="date" type="string">2025 05 07 </i>
  <i name="time" type="string">20:37:06 </i>
 </generator>
 <incar>
  <i type="string" name="SYSTEM">routine with relax: pwdword</i>
  <i type="string" name="PREC">Acc</i>
  <i type="int" name="IALGO">    38</i>
  <i type="string" name="ALGO">A</i>
  <i type="logical" name="ADDGRID"> T  </i>
  <i type="int" name="ICHARG">     2</i>
  <i type="int" name="NELM">   100</i>
  <i type="int" name="NELMIN">     6</i>
  <i name="EDIFF">      0.00000000</i>
  <i type="int" name="NSW">     0</i>
  <i type="int" name="ISIF">    -1</i>
  <i name="SYMPREC">      0.00010000</i>
  <i name="ENCUT">    600.00000000</i>
  <i type="logical" name="LREAL"> F  </i>
  <i type="int" name="ISMEAR">     0</i>
  <i name="SIGMA">      0.02000000</i>
  <i type="logical" name="LASPH"> T  </i>
  <i type="string" name="METAGGA">R2SCAN</i>
  <i type="logical" name="LMIXTAU"> F  </i>
 </incar>
 <primitive_cell>
  <structure name="primitive_cell" >
   <crystal>
    <varray name="basis" >
     <v>       6.97923737       0.00000000      -2.18782930 </v>
     <v>      -3.76532211       5.87640228      -2.18782930 </v>
     <v>       0.00000000       0.00000000       7.31412000 </v>
    </varray>
    <i name="volume">    299.97258773 </i>
    <varray name="rec_basis" >
     <v>       0.14328213       0.09180845       0.00000000 </v>
     <v>       0.00000000       0.17017215       0.00000000 </v>
     <v>       0.04285913       0.07836470       0.13672185 </v>
    </varray>
   </crystal>
   <varray name="positions" >
    <v>       0.13397000       0.63397000       0.76794000 </v>
    <v>       0.63397000       0.86603000       0.50000000 </v>
    <v>       0.36603000       0.13397000       0.50000000 </v>
    <v>       0.86603000       0.36603000       0.23206000 </v>
    <v>       0.62544000       0.12544000       0.75087000 </v>
    <v>       0.37456000       0.87456000       0.24913000 </v>
    <v>       0.87456000       0.62544000       0.50000000 </v>
    <v>       0.12544000       0.37456000       0.50000000 </v>
    <v>       0.00000000       0.00000000       0.00000000 </v>
    <v>       0.50000000       0.50000000       0.00000000 </v>
    <v>       0.05785000       0.25000000       0.80785000 </v>
    <v>       0.75000000       0.94215000       0.19215000 </v>
    <v>       0.44215000       0.25000000       0.19215000 </v>
    <v>       0.55785000       0.75000000       0.80785000 </v>
    <v>       0.25000000       0.44215000       0.19215000 </v>
    <v>       0.94215000       0.75000000       0.19215000 </v>
    <v>       0.75000000       0.55785000       0.80785000 </v>
    <v>       0.25000000       0.05785000       0.80785000 </v>
   </varray>
  </structure>
  <varray name="primitive_index" >
   <v type="int" >        1 </v>
   <v type="int" >        2 </v>
   <v type="int" >        3 </v>
   <v type="int" >        4 </v>
   <v type="int" >        5 </v>
   <v type="int" >        6 </v>
   <v type="int" >        7 </v>
   <v type="int" >        8 </v>
   <v type="int" >        9 </v>
   <v type="int" >       10 </v>
   <v type="int" >       11 </v>
   <v type="int" >       12 </v>
   <v type="int" >       13 </v>
   <v type="int" >       14 </v>
   <v type="int" >       15 </v>
   <v type="int" >       16 </v>
   <v type="int" >       17 </v>
   <v type="int" >       18 </v>
  </varray>
 </primitive_cell>
 <kpoints>
  <generation param="Gamma">
   <v type="int" name="divisions">       6        6        6 </v>
   <v name="usershift">      0.00000000       0.00000000       0.00000000 </v>
   <v name="genvec1">      0.16666667       0.00000000       0.00000000 </v>
   <v name="genvec2">      0.00000000       0.16666667       0.00000000 </v>
   <v name="genvec3">      0.00000000       0.00000000       0.16666667 </v>
   <v name="shift">      0.00000000       0.00000000       0.00000000 </v>
  </generation>
  <varray name="kpointlist" >
   <v>       0.00000000       0.00000000       0.00000000 </v>
   <v>       0.16666667      -0.00000000       0.00000000 </v>
   <v>       0.33333333       0.00000000       0.00000000 </v>
   <v>       0.50000000      -0.00000000       0.00000000 </v>
   <v>       0.16666667       0.16666667       0.00000000 </v>
   <v>       0.33333333       0.16666667       0.00000000 </v>
   <v>       0.50000000       0.16666667       0.00000000 </v>
   <v>      -0.33333333       0.16666667       0.00000000 </v>
   <v>      -0.16666667       0.16666667       0.00000000 </v>
   <v>       0.33333333       0.33333333       0.00000000 </v>
   <v>       0.50000000       0.33333333       0.00000000 </v>
   <v>      -0.33333333       0.33333333       0.00000000 </v>
   <v>       0.50000000       0.50000000       0.00000000 </v>
   <v>       0.16666667       0.16666667       0.16666667 </v>
   <v>       0.33333333       0.16666667       0.16666667 </v>
   <v>      -0.16666667       0.16666667       0.16666667 </v>
   <v>       0.33333333       0.33333333       0.16666667 </v>
   <v>      -0.33333333       0.33333333       0.16666667 </v>
   <v>      -0.16666667       0.33333333       0.16666667 </v>
   <v>       0.50000000       0.50000000       0.16666667 </v>
   <v>      -0.33333333       0.50000000       0.16666667 </v>
   <v>      -0.16666667       0.50000000       0.16666667 </v>
   <v>      -0.33333333      -0.33333333       0.16666667 </v>
   <v>      -0.16666667      -0.33333333       0.16666667 </v>
   <v>      -0.16666667      -0.16666667       0.16666667 </v>
   <v>      -0.33333333       0.33333333       0.33333333 </v>
   <v>       0.50000000       0.50000000       0.33333333 </v>
   <v>      -0.33333333       0.50000000       0.33333333 </v>
   <v>      -0.33333333      -0.33333333       0.33333333 </v>
   <v>       0.50000000       0.50000000       0.50000000 </v>
  </varray>
  <varray name="weights" >
   <v>       0.00462963 </v>
   <v>       0.03703704 </v>
   <v>       0.03703704 </v>
   <v>       0.01851852 </v>
   <v>       0.03703704 </v>
   <v>       0.07407407 </v>
   <v>       0.07407407 </v>
   <v>       0.07407407 </v>
   <v>       0.01851852 </v>
   <v>       0.03703704 </v>
   <v>       0.07407407 </v>
   <v>       0.01851852 </v>
   <v>       0.00925926 </v>
   <v>       0.03703704 </v>
   <v>       0.03703704 </v>
   <v>       0.01851852 </v>
   <v>       0.01851852 </v>
   <v>       0.03703704 </v>
   <v>       0.03703704 </v>
   <v>       0.01851852 </v>
   <v>       0.07407407 </v>
   <v>       0.03703704 </v>
   <v>       0.03703704 </v>
   <v>       0.03703704 </v>
   <v>       0.00925926 </v>
   <v>       0.01851852 </v>
   <v>       0.01851852 </v>
   <v>       0.03703704 </v>
   <v>       0.00925926 </v>
   <v>       0.00462963 </v>
  </varray>
 </kpoints>
 <parameters>
  <separator name="general" >
   <i type="string" name="SYSTEM">routine with relax: pwdword</i>
   <i type="logical" name="LCOMPAT"> F  </i>
  </separator>
  <separator name="electronic" >
   <i type="string" name="PREC">acc</i>
   <i name="ENMAX">    600.00000000</i>
   <i name="ENAUG">    535.51400000</i>
   <i name="EDIFF">      0.00000000</i>
   <i type="int" name="IALGO">    58</i>
   <i type="int" name="IWAVPR">    10</i>
   <i type="int" name="NBANDS">    78</i>
   <i type="int" name="NBANDSLOW">    -1</i>
   <i type="int" name="NBANDSHIGH">    -1</i>
   <i name="NELECT">    128.00000000</i>
   <i type="int" name="TURBO">     0</i>
   <i type="int" name="IRESTART">     0</i>
   <i type="int" name="NREBOOT">     0</i>
   <i type="int" name="NMIN">     0</i>
   <i name="EREF">      0.00000000</i>
   <separator name="electronic smearing" >
    <i type="int" name="ISMEAR">     0</i>
    <i name="SIGMA">      0.02000000</i>
    <i name="KSPACING">      0.50000000</i>
    <i type="logical" name="KGAMMA"> T  </i>
    <i type="logical" name="KBLOWUP"> T  </i>
   </separator>
   <separator name="electronic projectors" >
    <i type="logical" name="LREAL"> F  </i>
    <v name="ROPT">      0.00000000      0.00000000      0.00000000</v>
    <i type="int" name="LMAXPAW">  -100</i>
    <i type="int" name="LMAXMIX">     2</i>
    <i type="logical" name="NLSPLINE"> F  </i>
   </separator>
   <separator name="electronic startup" >
    <i type="int" name="ISTART">     0</i>
    <i type="int" name="ICHARG">     2</i>
    <i type="int" name="INIWAV">     1</i>
   </separator>
   <separator name="electronic spin" >
    <i type="int" name="ISPIN">     1</i>
    <i type="logical" name="LNONCOLLINEAR"> F  </i>
    <v name="MAGMOM">      1.00000000      1.00000000      1.00000000      1.00000000      1.00000000      1.00000000      1.00000000      1.00000000      1.00000000      1.00000000      1.00000000      1.00000000      1.00000000      1.00000000      1.00000000      1.00000000      1.00000000      1.00000000</v>
    <i name="NUPDOWN">     -1.00000000</i>
    <i type="logical" name="LSORBIT"> F  </i>
    <v name="SAXIS">      0.00000000      0.00000000      1.00000000</v>
    <i type="logical" name="LSPIRAL"> F  </i>
    <v name="QSPIRAL">      0.00000000      0.00000000      0.00000000</v>
    <i type="logical" name="LZEROZ"> F  </i>
   </separator>
   <separator name="electronic exchange-correlation" >
    <i type="logical" name="LASPH"> T  </i>
    <i type="logical" name="LMETAGGA"> F  </i>
   </separator>
   <separator name="electronic convergence" >
    <i type="int" name="NELM">   100</i>
    <i type="int" name="NELMDL">    -5</i>
    <i type="int" name="NELMIN">     6</i>
    <i name="ENINI">    600.00000000</i>
    <separator name="electronic convergence detail" >
     <i type="logical" name="LDIAG"> T  </i>
     <i type="logical" name="LSUBROT"> F  </i>
     <i name="WEIMIN">      0.00000000</i>
     <i name="EBREAK">      0.00000000</i>
     <i name="DEPER">      0.30000000</i>
     <i type="int" name="NRMM">     4</i>
     <i name="TIME">      0.40000000</i>
    </separator>
   </separator>
   <separator name="electronic mixer" >
    <i name="AMIX">      0.40000000</i>
    <i name="BMIX">      1.00000000</i>
    <i name="AMIN">      0.10000000</i>
    <i name="AMIX_MAG">      1.60000000</i>
    <i name="BMIX_MAG">      1.00000000</i>
    <separator name="electronic mixer details" >
     <i type="int" name="IMIX">     4</i>
     <i type="logical" name="MIXFIRST"> F  </i>
     <i type="int" name="MAXMIX">   -45</i>
     <i name="WC">    100.00000000</i>
     <i type="int" name="INIMIX">     1</i>
     <i type="int" name="MIXPRE">     1</i>
     <i type="int" name="MREMOVE">     5</i>
    </separator>
   </separator>
   <separator name="electronic dipolcorrection" >
    <i type="logical" name="LDIPOL"> F  </i>
    <i type="logical" name="LMONO"> F  </i>
    <i type="int" name="IDIPOL">     0</i>
    <i name="EPSILON">      1.00000000</i>
    <v name="DIPOL">   -100.00000000   -100.00000000   -100.00000000</v>
    <i name="EFIELD">      0.00000000</i>
   </separator>
  </separator>
  <separator name="grids" >
   <i type="int" name="NGX">    60</i>
   <i type="int" name="NGY">    60</i>
   <i type="int" name="NGZ">    60</i>
   <i type="int" name="NGXF">   120</i>
   <i type="int" name="NGYF">   120</i>
   <i type="int" name="NGZF">   120</i>
   <i type="logical" name="ADDGRID"> T  </i>
  </separator>
  <separator name="ionic" >
   <i type="int" name="NSW">     0</i>
   <i type="int" name="IBRION">    -1</i>
   <i type="int" name="MDALGO">     0</i>
   <i type="int" name="ISIF">    -1</i>
   <i name="PSTRESS">      0.00000000</i>
   <i name="EDIFFG">      0.00000001</i>
   <i type="int" name="NFREE">     0</i>
   <i name="POTIM">      0.50000000</i>
   <i name="SMASS">     -3.00000000</i>
   <i name="SCALEE">      1.00000000</i>
  </separator>
  <separator name="ionic md" >
   <i name="TEBEG">      0.00010000</i>
   <i name="TEEND">      0.00010000</i>
   <i type="int" name="NBLOCK">     1</i>
   <i type="int" name="KBLOCK">     1</i>
   <i type="int" name="NPACO">   256</i>
   <i name="APACO">     16.00000000</i>
  </separator>
  <separator name="symmetry" >
   <i type="int" name="ISYM">     2</i>
   <i name="SYMPREC">      0.00010000</i>
  </separator>
  <separator name="dos" >
   <i type="int" name="LORBIT">     0</i>
   <v name="RWIGS">     -1.00000000     -1.00000000     -1.00000000</v>
   <i type="int" name="NEDOS">   301</i>
   <i name="EMIN">     10.00000000</i>
   <i name="EMAX">    -10.00000000</i>
   <i name="EFERMI">      0.00000000</i>
  </separator>
  <separator name="writing" >
   <i type="int" name="NWRITE">     2</i>
   <i type="logical" name="LWAVE"> T  </i>
   <i type="logical" name="LDOWNSAMPLE"> F  </i>
   <i type="logical" name="LCHARG"> T  </i>
   <i type="logical" name="LPARD"> F  </i>
   <i type="logical" name="LVTOT"> F  </i>
   <i type="logical" name="LVHAR"> F  </i>
   <i type="logical" name="LELF"> F  </i>
   <i type="logical" name="LOPTICS"> F  </i>
   <v name="STM">      0.00000000      0.00000000      0.00000000      0.00000000      0.00000000      0.00000000      0.00000000</v>
  </separator>
  <separator name="performance" >
   <i type="int" name="NPAR">     6</i>
   <i type="int" name="NSIM">     4</i>
   <i type="int" name="NBLK">    -1</i>
   <i type="logical" name="LPLANE"> T  </i>
   <i type="logical" name="LSCALAPACK"> T  </i>
   <i type="logical" name="LSCAAWARE"> F  </i>
   <i type="logical" name="LSCALU"> F  </i>
   <i type="logical" name="LASYNC"> F  </i>
   <i type="logical" name="LORBITALREAL"> F  </i>
  </separator>
  <separator name="miscellaneous" >
   <i type="int" name="IDIOT">     3</i>
   <i type="int" name="PHON_NSTRUCT">    -1</i>
   <i type="logical" name="LMUSIC"> F  </i>
   <v name="POMASS">     10.81100000     95.94000000     28.08500000</v>
   <v name="DARWINR">      0.00000000      0.00000000      0.00000000</v>
   <v name="DARWINV">      1.00000000      1.00000000      1.00000000</v>
   <i type="logical" name="LCORR"> T  </i>
  </separator>
  <i type="logical" name="GGA_COMPAT"> T  </i>
  <i type="logical" name="LBERRY"> F  </i>
  <i type="int" name="ICORELEVEL">     0</i>
  <i type="logical" name="LDAU"> F  </i>
  <i type="int" name="I_CONSTRAINED_M">     0</i>
  <separator name="electronic exchange-correlation" >
   <i type="string" name="GGA">--</i>
   <i type="int" name="VOSKOWN">     0</i>
   <i type="logical" name="LHFCALC"> F  </i>
   <i type="string" name="PRECFOCK"></i>
   <i type="logical" name="LSYMGRAD"> F  </i>
   <i type="logical" name="LHFONE"> F  </i>
   <i type="logical" name="LRHFCALC"> F  </i>
   <i type="logical" name="LTHOMAS"> F  </i>
   <i type="logical" name="LMODELHF"> F  </i>
   <i type="logical" name="LFOCKACE"> F  </i>
   <i name="ENCUT4O">     -1.00000000</i>
   <i type="int" name="EXXOEP">     0</i>
   <i type="int" name="FOURORBIT">     0</i>
   <i name="AEXX">      0.00000000</i>
   <i name="HFALPHA">      0.00000000</i>
   <i name="MCALPHA">      0.00000000</i>
   <i name="ALDAX">      1.00000000</i>
   <i name="AGGAX">      1.00000000</i>
   <i name="ALDAC">      1.00000000</i>
   <i name="AGGAC">      1.00000000</i>
   <i type="int" name="NKREDX">     1</i>
   <i type="int" name="NKREDY">     1</i>
   <i type="int" name="NKREDZ">     1</i>
   <i type="logical" name="SHIFTRED"> F  </i>
   <i type="logical" name="ODDONLY"> F  </i>
   <i type="logical" name="EVENONLY"> F  </i>
   <i type="int" name="LMAXFOCK">     0</i>
   <i type="int" name="NMAXFOCKAE">     0</i>
   <i type="logical" name="LFOCKAEDFT"> F  </i>
   <i name="HFSCREEN">      0.00000000</i>
   <i name="HFSCREENC">      0.00000000</i>
   <i type="int" name="NBANDSGWLOW">     0</i>
  </separator>
  <separator name="vdW DFT" >
   <i type="logical" name="LUSE_VDW"> F  </i>
   <i name="Zab_VDW">     -0.84910000</i>
   <i name="PARAM1">      0.12340000</i>
   <i name="PARAM2">      1.00000000</i>
   <i name="PARAM3">      0.00000000</i>
  </separator>
  <separator name="model GW" >
   <i type="int" name="MODEL_GW">     0</i>
   <i name="MODEL_EPS0">      9.99908626</i>
   <i name="MODEL_ALPHA">      1.00000000</i>
  </separator>
  <separator name="linear response parameters" >
   <i type="logical" name="LEPSILON"> F  </i>
   <i type="logical" name="LRPA"> F  </i>
   <i type="logical" name="LNABLA"> F  </i>
   <i type="logical" name="LVEL"> F  </i>
   <i type="int" name="KINTER">     0</i>
   <i name="CSHIFT">      0.10000000</i>
   <i name="OMEGAMAX">     -1.00000000</i>
   <i name="DEG_THRESHOLD">      0.00200000</i>
   <i name="RTIME">     -0.10000000</i>
   <i name="WPLASMAI">      0.00000000</i>
   <v name="DFIELD">      0.00000000      0.00000000      0.00000000</v>
   <v name="WPLASMA">      0.00000000      0.00000000      0.00000000      0.00000000      0.00000000      0.00000000      0.00000000      0.00000000      0.00000000</v>
  </separator>
  <separator name="orbital magnetization" >
   <i type="logical" name="NUCIND"> F  </i>
   <v name="MAGPOS">      0.00000000      0.00000000      0.00000000</v>
   <i type="logical" name="LNICSALL"> T  </i>
   <i type="logical" name="ORBITALMAG"> F  </i>
   <i type="logical" name="LMAGBLOCH"> F  </i>
   <i type="logical" name="LCHIMAG"> F  </i>
   <i type="logical" name="LGAUGE"> T  </i>
   <i type="int" name="MAGATOM">     0</i>
   <v name="MAGDIPOL">      0.00000000      0.00000000      0.00000000</v>
   <v name="AVECCONST">      0.00000000      0.00000000      0.00000000</v>
  </separator>
  <separator name="response functions" >
   <i type="logical" name="LFINITE_TEMPERATURE"> F  </i>
   <i type="logical" name="LADDER"> F  </i>
   <i type="logical" name="LRPAFORCE"> F  </i>
   <i type="logical" name="LFXC"> F  </i>
   <i type="logical" name="LHARTREE"> T  </i>
   <i type="int" name="IBSE">     0</i>
   <v type="int" name="KPOINT">    -1     0     0     0</v>
   <i type="logical" name="LTCTC"> F  </i>
   <i type="logical" name="LTCTE"> F  </i>
   <i type="logical" name="LTETE"> F  </i>
   <i type="logical" name="LTRIPLET"> F  </i>
   <i type="logical" name="LFXCEPS"> F  </i>
   <i type="logical" name="LFXHEG"> F  </i>
   <i type="int" name="NATURALO">     2</i>
   <i type="logical" name="LHOLEGF"> F  </i>
   <i type="logical" name="L2ORDER"> F  </i>
   <i type="logical" name="LDMP1"> F  </i>
   <i type="logical" name="LMP2LT"> F  </i>
   <i type="logical" name="LSMP2LT"> F  </i>
   <i type="logical" name="LGWLF"> F  </i>
   <i name="ENCUTGW">     -2.00000000</i>
   <i name="ENCUTGWSOFT">     -2.00000000</i>
   <i name="ENCUTLF">     -1.00000000</i>
   <i type="logical" name="LESF_SPLINES"> F  </i>
   <i type="int" name="LMAXMP2">    -1</i>
   <i name="SCISSOR">      0.00000000</i>
   <i type="int" name="NOMEGA">     0</i>
   <i type="int" name="NOMEGAR">     0</i>
   <i type="int" name="NBANDSGW">    -1</i>
   <i type="int" name="NBANDSO">    -1</i>
   <i type="int" name="NBANDSV">    -1</i>
   <i type="int" name="NELM">   100</i>
   <i type="int" name="NELMHF">     1</i>
   <i type="int" name="DIM">     3</i>
   <i type="int" name="IESPILON">     4</i>
   <i type="int" name="ANTIRES">     0</i>
   <i name="OMEGAMAX">    -30.00000000</i>
   <i name="OMEGAMIN">    -30.00000000</i>
   <i name="OMEGATL">   -200.00000000</i>
   <i type="int" name="OMEGAGRID">     0</i>
   <i name="CSHIFT">     -0.10000000</i>
   <i type="logical" name="LSELFENERGY"> F  </i>
   <i type="logical" name="LSPECTRAL"> F  </i>
   <i type="logical" name="LSPECTRALGW"> F  </i>
   <i type="logical" name="LSINGLES"> F  </i>
   <i type="logical" name="LFERMIGW"> F  </i>
   <i type="logical" name="ODDONLYGW"> F  </i>
   <i type="logical" name="EVENONLYGW"> F  </i>
   <i type="int" name="NKREDLFX">     1</i>
   <i type="int" name="NKREDLFY">     1</i>
   <i type="int" name="NKREDLFZ">     1</i>
   <i type="int" name="MAXMEM">  2800</i>
   <i type="int" name="TELESCOPE">     0</i>
   <i type="int" name="NTAUPAR">    -1</i>
   <i type="int" name="NOMEGAPAR">    -1</i>
   <i name="DAMP_NEWTON">      0.80000001</i>
   <i name="LAMBDA">      1.00000000</i>
  </separator>
  <separator name="External order field" >
   <i name="OFIELD_KAPPA">      0.00000000</i>
   <v name="OFIELD_K">      0.00000000      0.00000000      0.00000000</v>
   <i name="OFIELD_Q6_NEAR">      0.00000000</i>
   <i name="OFIELD_Q6_FAR">      0.00000000</i>
   <i name="OFIELD_A">      0.00000000</i>
  </separator>
 </parameters>
 <atominfo>
  <atoms>      18 </atoms>
  <types>       3 </types>
  <array name="atoms" >
   <dimension dim="1">ion</dimension>
   <field type="string">element</field>
   <field type="int">atomtype</field>
   <set>
    <rc><c>B </c><c>   1</c></rc>
    <rc><c>B </c><c>   1</c></rc>
    <rc><c>B </c><c>   1</c></rc>
    <rc><c>B </c><c>   1</c></rc>
    <rc><c>Mo</c><c>   2</c></rc>
    <rc><c>Mo</c><c>   2</c></rc>
    <rc><c>Mo</c><c>   2</c></rc>
    <rc><c>Mo</c><c>   2</c></rc>
    <rc><c>Mo</c><c>   2</c></rc>
    <rc><c>Mo</c><c>   2</c></rc>
    <rc><c>Si</c><c>   3</c></rc>
    <rc><c>Si</c><c>   3</c></rc>
    <rc><c>Si</c><c>   3</c></rc>
    <rc><c>Si</c><c>   3</c></rc>
    <rc><c>Si</c><c>   3</c></rc>
    <rc><c>Si</c><c>   3</c></rc>
    <rc><c>Si</c><c>   3</c></rc>
    <rc><c>Si</c><c>   3</c></rc>
   </set>
  </array>
  <array name="atomtypes" >
   <dimension dim="1">type</dimension>
   <field type="int">atomspertype</field>
   <field type="string">element</field>
   <field>mass</field>
   <field>valence</field>
   <field type="string">pseudopotential</field>
   <set>
    <rc><c>   4</c><c>B </c><c>     10.81100000</c><c>      3.00000000</c><c>  PAW_PBE B 06Sep2000                   </c></rc>
    <rc><c>   6</c><c>Mo</c><c>     95.94000000</c><c>     14.00000000</c><c>  PAW_PBE Mo_sv 02Feb2006               </c></rc>
    <rc><c>   8</c><c>Si</c><c>     28.08500000</c><c>      4.00000000</c><c>  PAW_PBE Si 05Jan2001                  </c></rc>
   </set>
  </array>
 </atominfo>
 <structure name="initialpos" >
  <crystal>
   <varray name="basis" >
    <v>       6.97923737       0.00000000      -2.18782930 </v>
    <v>      -3.76532211       5.87640228      -2.18782930 </v>
    <v>       0.00000000       0.00000000       7.31412000 </v>
   </varray>
   <i name="volume">    299.97258773 </i>
   <varray name="rec_basis" >
    <v>       0.14328213       0.09180845       0.00000000 </v>
    <v>       0.00000000       0.17017215       0.00000000 </v>
    <v>       0.04285913       0.07836470       0.13672185 </v>
   </varray>
  </crystal>
  <varray name="positions" >
   <v>       0.13397000       0.63397000       0.76794000 </v>
   <v>       0.63397000       0.86603000       0.50000000 </v>
   <v>       0.36603000       0.13397000       0.50000000 </v>
   <v>       0.86603000       0.36603000       0.23206000 </v>
   <v>       0.62544000       0.12544000       0.75087000 </v>
   <v>       0.37456000       0.87456000       0.24913000 </v>
   <v>       0.87456000       0.62544000       0.50000000 </v>
   <v>       0.12544000       0.37456000       0.50000000 </v>
   <v>       0.00000000       0.00000000       0.00000000 </v>
   <v>       0.50000000       0.50000000       0.00000000 </v>
   <v>       0.05785000       0.25000000       0.80785000 </v>
   <v>       0.75000000       0.94215000       0.19215000 </v>
   <v>       0.44215000       0.25000000       0.19215000 </v>
   <v>       0.55785000       0.75000000       0.80785000 </v>
   <v>       0.25000000       0.44215000       0.19215000 </v>
   <v>       0.94215000       0.75000000       0.19215000 </v>
   <v>       0.75000000       0.55785000       0.80785000 </v>
   <v>       0.25000000       0.05785000       0.80785000 </v>
  </varray>
 </structure>
 <calculation>
  <scstep>
   <time name="total">   19.36   19.57</time>
   <energy>
    <i name="alphaZ">    404.88070238 </i>
    <i name="ewald">  -8929.28514364 </i>
    <i name="hartreedc">  -3248.61902315 </i>
    <i name="XCdc">    447.18403190 </i>
    <i name="pawpsdc">   9750.04252379 </i>
    <i name="pawaedc">  -9644.57956626 </i>
    <i name="eentropy">     -0.00138550 </i>
    <i name="bandstr">    -50.99346518 </i>
    <i name="atom">  12282.90600403 </i>
    <i name="e_fr_energy">   1011.53467836 </i>
    <i name="e_wo_entrp">   1011.53606387 </i>
    <i name="e_0_energy">   1011.53537112 </i>
   </energy>
  </scstep>
  <scstep>
   <time name="total">   18.87   19.07</time>
   <energy>
    <i name="e_fr_energy">   -223.12582628 </i>
    <i name="e_wo_entrp">   -223.12163205 </i>
    <i name="e_0_energy">   -223.12372916 </i>
   </energy>
  </scstep>
  <scstep>
   <time name="total">   20.94   21.15</time>
   <energy>
    <i name="e_fr_energy">   -287.23633882 </i>
    <i name="e_wo_entrp">   -287.23181150 </i>
    <i name="e_0_energy">   -287.23407516 </i>
   </energy>
  </scstep>
  <scstep>
   <time name="total">   20.39   20.60</time>
   <energy>
    <i name="e_fr_energy">   -289.36134787 </i>
    <i name="e_wo_entrp">   -289.35667460 </i>
    <i name="e_0_energy">   -289.35901124 </i>
   </energy>
  </scstep>
  <scstep>
   <time name="total">   21.84   22.07</time>
   <energy>
    <i name="e_fr_energy">   -289.41386399 </i>
    <i name="e_wo_entrp">   -289.40923706 </i>
    <i name="e_0_energy">   -289.41155052 </i>
   </energy>
  </scstep>
  <scstep>
   <time name="total">   23.83   24.10</time>
   <energy>
    <i name="e_fr_energy">   -212.60188000 </i>
    <i name="e_wo_entrp">   -212.59604163 </i>
    <i name="e_0_energy">   -212.59896082 </i>
   </energy>
  </scstep>
  <scstep>
   <time name="total">   24.38   24.62</time>
   <energy>
    <i name="e_fr_energy">   -235.14834488 </i>
    <i name="e_wo_entrp">   -235.14392699 </i>
    <i name="e_0_energy">   -235.14613593 </i>
   </energy>
  </scstep>
  <scstep>
   <time name="total">   24.89   25.12</time>
   <energy>
    <i name="e_fr_energy">   -239.08989925 </i>
    <i name="e_wo_entrp">   -239.08455378 </i>
    <i name="e_0_energy">   -239.08722652 </i>
   </energy>
  </scstep>
  <scstep>
   <time name="total">   24.26   24.49</time>
   <energy>
    <i name="e_fr_energy">   -240.18240246 </i>
    <i name="e_wo_entrp">   -240.17778898 </i>
    <i name="e_0_energy">   -240.18009572 </i>
   </energy>
  </scstep>
  <scstep>
   <time name="total">   24.43   24.66</time>
   <energy>
    <i name="e_fr_energy">   -240.56271234 </i>
    <i name="e_wo_entrp">   -240.55780541 </i>
    <i name="e_0_energy">   -240.56025888 </i>
   </energy>
  </scstep>
  <scstep>
   <time name="total">   24.70   24.93</time>
   <energy>
    <i name="e_fr_energy">   -240.73915024 </i>
    <i name="e_wo_entrp">   -240.73466275 </i>
    <i name="e_0_energy">   -240.73690650 </i>
   </energy>
  </scstep>
  <scstep>
   <time name="total">   24.36   24.59</time>
   <energy>
    <i name="e_fr_energy">   -240.81006650 </i>
    <i name="e_wo_entrp">   -240.80540710 </i>
    <i name="e_0_energy">   -240.80773680 </i>
   </energy>
  </scstep>
  <scstep>
   <time name="total">   24.54   24.77</time>
   <energy>
    <i name="e_fr_energy">   -240.85146060 </i>
    <i name="e_wo_entrp">   -240.84722917 </i>
    <i name="e_0_energy">   -240.84934488 </i>
   </energy>
  </scstep>
  <scstep>
   <time name="total">   24.23   24.46</time>
   <energy>
    <i name="e_fr_energy">   -240.87236432 </i>
    <i name="e_wo_entrp">   -240.86807682 </i>
    <i name="e_0_energy">   -240.87022057 </i>
   </energy>
  </scstep>
  <scstep>
   <time name="total">   24.56   24.79</time>
   <energy>
    <i name="e_fr_energy">   -240.88494142 </i>
    <i name="e_wo_entrp">   -240.88087866 </i>
    <i name="e_0_energy">   -240.88291004 </i>
   </energy>
  </scstep>
  <scstep>
   <time name="total">   24.83   25.06</time>
   <energy>
    <i name="e_fr_energy">   -240.89105089 </i>
    <i name="e_wo_entrp">   -240.88695641 </i>
    <i name="e_0_energy">   -240.88900365 </i>
   </energy>
  </scstep>
  <scstep>
   <time name="total">   24.30   24.53</time>
   <energy>
    <i name="e_fr_energy">   -240.89416365 </i>
    <i name="e_wo_entrp">   -240.89016754 </i>
    <i name="e_0_energy">   -240.89216560 </i>
   </energy>
  </scstep>
  <scstep>
   <time name="total">   24.14   24.38</time>
   <energy>
    <i name="e_fr_energy">   -240.89569366 </i>
    <i name="e_wo_entrp">   -240.89167890 </i>
    <i name="e_0_energy">   -240.89368628 </i>
   </energy>
  </scstep>
  <scstep>
   <time name="total">   24.43   24.66</time>
   <energy>
    <i name="e_fr_energy">   -240.89645653 </i>
    <i name="e_wo_entrp">   -240.89248003 </i>
    <i name="e_0_energy">   -240.89446828 </i>
   </energy>
  </scstep>
  <scstep>
   <time name="total">   24.42   24.66</time>
   <energy>
    <i name="e_fr_energy">   -240.89687857 </i>
    <i name="e_wo_entrp">   -240.89288206 </i>
    <i name="e_0_energy">   -240.89488032 </i>
   </energy>
  </scstep>
  <scstep>
   <time name="total">   24.55   24.79</time>
   <energy>
    <i name="e_fr_energy">   -240.89712914 </i>
    <i name="e_wo_entrp">   -240.89314668 </i>
    <i name="e_0_energy">   -240.89513791 </i>
   </energy>
  </scstep>
  <scstep>
   <time name="total">   24.64   24.88</time>
   <energy>
    <i name="e_fr_energy">   -240.89724720 </i>
    <i name="e_wo_entrp">   -240.89325029 </i>
    <i name="e_0_energy">   -240.89524875 </i>
   </energy>
  </scstep>
  <scstep>
   <time name="total">   24.38   24.61</time>
   <energy>
    <i name="e_fr_energy">   -240.89731161 </i>
    <i name="e_wo_entrp">   -240.89331990 </i>
    <i name="e_0_energy">   -240.89531576 </i>
   </energy>
  </scstep>
  <scstep>
   <time name="total">   23.99   24.21</time>
   <energy>
    <i name="e_fr_energy">   -240.89734494 </i>
    <i name="e_wo_entrp">   -240.89334366 </i>
    <i name="e_0_energy">   -240.89534430 </i>
   </energy>
  </scstep>
  <scstep>
   <time name="total">   24.29   24.52</time>
   <energy>
    <i name="e_fr_energy">   -240.89736124 </i>
    <i name="e_wo_entrp">   -240.89336139 </i>
    <i name="e_0_energy">   -240.89536132 </i>
   </energy>
  </scstep>
  <scstep>
   <time name="total">   24.64   24.87</time>
   <energy>
    <i name="e_fr_energy">   -240.89737057 </i>
    <i name="e_wo_entrp">   -240.89336568 </i>
    <i name="e_0_energy">   -240.89536813 </i>
   </energy>
  </scstep>
  <scstep>
   <time name="total">   24.53   24.77</time>
   <energy>
    <i name="e_fr_energy">   -240.89737485 </i>
    <i name="e_wo_entrp">   -240.89337149 </i>
    <i name="e_0_energy">   -240.89537317 </i>
   </energy>
  </scstep>
  <scstep>
   <time name="total">   24.14   24.37</time>
   <energy>
    <i name="e_fr_energy">   -240.89737741 </i>
    <i name="e_wo_entrp">   -240.89337170 </i>
    <i name="e_0_energy">   -240.89537456 </i>
   </energy>
  </scstep>
  <scstep>
   <time name="total">   24.49   24.73</time>
   <energy>
    <i name="e_fr_energy">   -240.89737860 </i>
    <i name="e_wo_entrp">   -240.89337402 </i>
    <i name="e_0_energy">   -240.89537631 </i>
   </energy>
  </scstep>
  <scstep>
   <time name="total">   24.52   24.75</time>
   <energy>
    <i name="e_fr_energy">   -240.89737926 </i>
    <i name="e_wo_entrp">   -240.89337375 </i>
    <i name="e_0_energy">   -240.89537651 </i>
   </energy>
  </scstep>
  <scstep>
   <time name="total">   24.05   24.28</time>
   <energy>
    <i name="e_fr_energy">   -240.89737960 </i>
    <i name="e_wo_entrp">   -240.89337452 </i>
    <i name="e_0_energy">   -240.89537706 </i>
   </energy>
  </scstep>
  <scstep>
   <time name="total">   24.13   24.35</time>
   <energy>
    <i name="e_fr_energy">   -240.89737976 </i>
    <i name="e_wo_entrp">   -240.89337457 </i>
    <i name="e_0_energy">   -240.89537717 </i>
   </energy>
  </scstep>
  <scstep>
   <time name="total">   24.52   24.75</time>
   <energy>
    <i name="e_fr_energy">   -240.89737983 </i>
    <i name="e_wo_entrp">   -240.89337499 </i>
    <i name="e_0_energy">   -240.89537741 </i>
   </energy>
  </scstep>
  <scstep>
   <time name="total">   24.23   24.46</time>
   <energy>
    <i name="e_fr_energy">   -240.89737990 </i>
    <i name="e_wo_entrp">   -240.89337482 </i>
    <i name="e_0_energy">   -240.89537736 </i>
   </energy>
  </scstep>
  <scstep>
   <time name="total">   24.49   24.72</time>
   <energy>
    <i name="e_fr_energy">   -240.89737992 </i>
    <i name="e_wo_entrp">   -240.89337530 </i>
    <i name="e_0_energy">   -240.89537761 </i>
   </energy>
  </scstep>
  <scstep>
   <time name="total">   24.52   24.76</time>
   <energy>
    <i name="e_fr_energy">   -240.89737994 </i>
    <i name="e_wo_entrp">   -240.89337527 </i>
    <i name="e_0_energy">   -240.89537760 </i>
   </energy>
  </scstep>
  <scstep>
   <time name="total">   24.50   24.75</time>
   <energy>
    <i name="e_fr_energy">   -240.89737994 </i>
    <i name="e_wo_entrp">   -240.89337519 </i>
    <i name="e_0_energy">   -240.89537757 </i>
   </energy>
  </scstep>
  <scstep>
   <time name="total">   24.36   24.59</time>
   <energy>
    <i name="e_fr_energy">   -240.89737994 </i>
    <i name="e_wo_entrp">   -240.89337516 </i>
    <i name="e_0_energy">   -240.89537755 </i>
   </energy>
  </scstep>
  <scstep>
   <time name="total">   24.62   24.85</time>
   <energy>
    <i name="e_fr_energy">   -240.89737994 </i>
    <i name="e_wo_entrp">   -240.89337523 </i>
    <i name="e_0_energy">   -240.89537758 </i>
   </energy>
  </scstep>
  <scstep>
   <time name="total">   24.78   25.01</time>
   <energy>
    <i name="e_fr_energy">   -240.89737994 </i>
    <i name="e_wo_entrp">   -240.89337518 </i>
    <i name="e_0_energy">   -240.89537756 </i>
   </energy>
  </scstep>
  <scstep>
   <time name="total">   24.61   24.84</time>
   <energy>
    <i name="e_fr_energy">   -240.89737994 </i>
    <i name="e_wo_entrp">   -240.89337518 </i>
    <i name="e_0_energy">   -240.89537756 </i>
   </energy>
  </scstep>
  <scstep>
   <time name="total">   23.85   24.07</time>
   <energy>
    <i name="e_fr_energy">   -240.89737995 </i>
    <i name="e_wo_entrp">   -240.89337517 </i>
    <i name="e_0_energy">   -240.89537756 </i>
   </energy>
  </scstep>
  <scstep>
   <time name="total">   28.22   28.48</time>
   <energy>
    <i name="alphaZ">    404.88070238 </i>
    <i name="ewald">  -8929.28514364 </i>
    <i name="hartreedc">  -3116.83307157 </i>
    <i name="XCdc">    457.45973888 </i>
    <i name="pawpsdc">  15049.68014095 </i>
    <i name="pawaedc"> -14959.80919627 </i>
    <i name="eentropy">     -0.00400477 </i>
    <i name="bandstr">  -1429.89254992 </i>
    <i name="atom">  12282.90600403 </i>
    <i name="e_fr_energy">   -240.89737995 </i>
    <i name="e_wo_entrp">   -240.89337518 </i>
    <i name="e_0_energy">   -240.89537757 </i>
   </energy>
  </scstep>
  <structure>
   <crystal>
    <varray name="basis" >
     <v>       6.97923737       0.00000000      -2.18782930 </v>
     <v>      -3.76532211       5.87640228      -2.18782930 </v>
     <v>       0.00000000       0.00000000       7.31412000 </v>
    </varray>
    <i name="volume">    299.97258773 </i>
    <varray name="rec_basis" >
     <v>       0.14328213       0.09180845       0.00000000 </v>
     <v>       0.00000000       0.17017215       0.00000000 </v>
     <v>       0.04285913       0.07836470       0.13672185 </v>
    </varray>
   </crystal>
   <varray name="positions" >
    <v>       0.13397000       0.63397000       0.76794000 </v>
    <v>       0.63397000       0.86603000       0.50000000 </v>
    <v>       0.36603000       0.13397000       0.50000000 </v>
    <v>       0.86603000       0.36603000       0.23206000 </v>
    <v>       0.62544000       0.12544000       0.75087000 </v>
    <v>       0.37456000       0.87456000       0.24913000 </v>
    <v>       0.87456000       0.62544000       0.50000000 </v>
    <v>       0.12544000       0.37456000       0.50000000 </v>
    <v>       0.00000000       0.00000000       0.00000000 </v>
    <v>       0.50000000       0.50000000       0.00000000 </v>
    <v>       0.05785000       0.25000000       0.80785000 </v>
    <v>       0.75000000       0.94215000       0.19215000 </v>
    <v>       0.44215000       0.25000000       0.19215000 </v>
    <v>       0.55785000       0.75000000       0.80785000 </v>
    <v>       0.25000000       0.44215000       0.19215000 </v>
    <v>       0.94215000       0.75000000       0.19215000 </v>
    <v>       0.75000000       0.55785000       0.80785000 </v>
    <v>       0.25000000       0.05785000       0.80785000 </v>
   </varray>
  </structure>
  <varray name="forces" >
   <v>       0.00000000       0.00000000       0.00000000 </v>
   <v>       0.00000000       0.00000000       0.00000000 </v>
   <v>       0.00000000       0.00000000       0.00000000 </v>
   <v>       0.00000000       0.00000000       0.00000000 </v>
   <v>       0.00000000       0.00000000       0.00000000 </v>
   <v>       0.00000000       0.00000000       0.00000000 </v>
   <v>       0.00000000       0.00000000       0.00000000 </v>
   <v>       0.00000000       0.00000000       0.00000000 </v>
   <v>       0.00000000       0.00000000       0.00000000 </v>
   <v>       0.00000000       0.00000000       0.00000000 </v>
   <v>       0.00000000       0.00000000       0.00000000 </v>
   <v>       0.00000000       0.00000000       0.00000000 </v>
   <v>       0.00000000       0.00000000       0.00000000 </v>
   <v>       0.00000000       0.00000000       0.00000000 </v>
   <v>       0.00000000       0.00000000       0.00000000 </v>
   <v>       0.00000000       0.00000000       0.00000000 </v>
   <v>       0.00000000       0.00000000       0.00000000 </v>
   <v>       0.00000000       0.00000000       0.00000000 </v>
  </varray>
  <varray name="stress" >
   <v>       0.00000000       0.00000000       0.00000000 </v>
   <v>       0.00000000       0.00000000       0.00000000 </v>
   <v>       0.00000000       0.00000000       0.00000000 </v>
  </varray>
  <energy>
   <i name="e_fr_energy">   -240.89737995 </i>
   <i name="e_wo_entrp">   -240.89337518 </i>
   <i name="e_0_energy">   -240.89537757 </i>
  </energy>
  <time name="totalsc"> 1036.13 1046.28</time>
  <eigenvalues>
   <array>
    <dimension dim="1">band</dimension>
    <dimension dim="2">kpoint</dimension>
    <dimension dim="3">spin</dimension>
    <field>eigene</field>
    <field>occ</field>
    <set>
     <set comment="spin 1">
      <set comment="kpoint 1">
       <r>  -55.3421    1.0000 </r>
       <r>  -55.3398    1.0000 </r>
       <r>  -55.3174    1.0000 </r>
       <r>  -55.3164    1.0000 </r>
       <r>  -55.3018    1.0000 </r>
       <r>  -55.3013    1.0000 </r>
       <r>  -28.9355    1.0000 </r>
       <r>  -28.8950    1.0000 </r>
       <r>  -28.8015    1.0000 </r>
       <r>  -28.8007    1.0000 </r>
       <r>  -28.7426    1.0000 </r>
       <r>  -28.7426    1.0000 </r>
       <r>  -28.7228    1.0000 </r>
       <r>  -28.7228    1.0000 </r>
       <r>  -28.7169    1.0000 </r>
       <r>  -28.7104    1.0000 </r>
       <r>  -28.6976    1.0000 </r>
       <r>  -28.6972    1.0000 </r>
       <r>  -28.6105    1.0000 </r>
       <r>  -28.6100    1.0000 </r>
       <r>  -28.5915    1.0000 </r>
       <r>  -28.5910    1.0000 </r>
       <r>  -28.5893    1.0000 </r>
       <r>  -28.5887    1.0000 </r>
       <r>   -5.1093    1.0000 </r>
       <r>   -3.4673    1.0000 </r>
       <r>   -1.5428    1.0000 </r>
       <r>   -1.5423    1.0000 </r>
       <r>   -1.1623    1.0000 </r>
       <r>   -1.1623    1.0000 </r>
       <r>   -0.5697    1.0000 </r>
       <r>    0.0523    1.0000 </r>
       <r>    0.6215    1.0000 </r>
       <r>    0.6233    1.0000 </r>
       <r>    1.5382    1.0000 </r>
       <r>    1.8954    1.0000 </r>
       <r>    2.0343    1.0000 </r>
       <r>    2.1227    1.0000 </r>
       <r>    3.5415    1.0000 </r>
       <r>    3.5416    1.0000 </r>
       <r>    3.6184    1.0000 </r>
       <r>    3.6186    1.0000 </r>
       <r>    3.6799    1.0000 </r>
       <r>    4.1575    1.0000 </r>
       <r>    4.2802    1.0000 </r>
       <r>    4.5732    1.0000 </r>
       <r>    4.8064    1.0000 </r>
       <r>    4.8067    1.0000 </r>
       <r>    4.9701    1.0000 </r>
       <r>    5.0785    1.0000 </r>
       <r>    5.0811    1.0000 </r>
       <r>    5.6417    1.0000 </r>
       <r>    5.6430    1.0000 </r>
       <r>    6.0083    1.0000 </r>
       <r>    6.0569    1.0000 </r>
       <r>    6.0572    1.0000 </r>
       <r>    6.1156    1.0000 </r>
       <r>    6.1587    1.0000 </r>
       <r>    6.5198    1.0000 </r>
       <r>    6.5202    1.0000 </r>
       <r>    6.5481    1.0000 </r>
       <r>    6.5994    1.0000 </r>
       <r>    6.7228    1.0000 </r>
       <r>    7.0652    1.0000 </r>
       <r>    7.2438    1.0000 </r>
       <r>    7.5052    0.0047 </r>
       <r>    8.0636    0.0000 </r>
       <r>    8.3695    0.0000 </r>
       <r>    8.3695    0.0000 </r>
       <r>    8.4146    0.0000 </r>
       <r>    8.6072    0.0000 </r>
       <r>    8.6076    0.0000 </r>
       <r>    9.0775    0.0000 </r>
       <r>    9.6701    0.0000 </r>
       <r>    9.6764    0.0000 </r>
       <r>   10.0167    0.0000 </r>
       <r>   10.0909    0.0000 </r>
       <r>   10.3292    0.0000 </r>
      </set>
      <set comment="kpoint 2">
       <r>  -55.3420    1.0000 </r>
       <r>  -55.3399    1.0000 </r>
       <r>  -55.3174    1.0000 </r>
       <r>  -55.3165    1.0000 </r>
       <r>  -55.3018    1.0000 </r>
       <r>  -55.3013    1.0000 </r>
       <r>  -28.9328    1.0000 </r>
       <r>  -28.8978    1.0000 </r>
       <r>  -28.8025    1.0000 </r>
       <r>  -28.8017    1.0000 </r>
       <r>  -28.7408    1.0000 </r>
       <r>  -28.7400    1.0000 </r>
       <r>  -28.7235    1.0000 </r>
       <r>  -28.7228    1.0000 </r>
       <r>  -28.7165    1.0000 </r>
       <r>  -28.7110    1.0000 </r>
       <r>  -28.6975    1.0000 </r>
       <r>  -28.6971    1.0000 </r>
       <r>  -28.6118    1.0000 </r>
       <r>  -28.6111    1.0000 </r>
       <r>  -28.5962    1.0000 </r>
       <r>  -28.5954    1.0000 </r>
       <r>  -28.5844    1.0000 </r>
       <r>  -28.5836    1.0000 </r>
       <r>   -5.0111    1.0000 </r>
       <r>   -3.5880    1.0000 </r>
       <r>   -1.5577    1.0000 </r>
       <r>   -1.5571    1.0000 </r>
       <r>   -1.3907    1.0000 </r>
       <r>   -1.2438    1.0000 </r>
       <r>   -0.2423    1.0000 </r>
       <r>   -0.0409    1.0000 </r>
       <r>    0.6258    1.0000 </r>
       <r>    0.6450    1.0000 </r>
       <r>    1.5675    1.0000 </r>
       <r>    1.9866    1.0000 </r>
       <r>    2.0653    1.0000 </r>
       <r>    2.4874    1.0000 </r>
       <r>    3.2994    1.0000 </r>
       <r>    3.4400    1.0000 </r>
       <r>    3.5738    1.0000 </r>
       <r>    3.6367    1.0000 </r>
       <r>    3.8790    1.0000 </r>
       <r>    4.1260    1.0000 </r>
       <r>    4.2701    1.0000 </r>
       <r>    4.3287    1.0000 </r>
       <r>    4.4350    1.0000 </r>
       <r>    4.7281    1.0000 </r>
       <r>    4.7644    1.0000 </r>
       <r>    5.2549    1.0000 </r>
       <r>    5.5428    1.0000 </r>
       <r>    5.6408    1.0000 </r>
       <r>    5.7224    1.0000 </r>
       <r>    5.8661    1.0000 </r>
       <r>    5.8864    1.0000 </r>
       <r>    6.1336    1.0000 </r>
       <r>    6.1415    1.0000 </r>
       <r>    6.2672    1.0000 </r>
       <r>    6.5070    1.0000 </r>
       <r>    6.6136    1.0000 </r>
       <r>    6.7116    1.0000 </r>
       <r>    6.8751    1.0000 </r>
       <r>    6.9699    1.0000 </r>
       <r>    7.1258    1.0000 </r>
       <r>    7.2396    1.0000 </r>
       <r>    7.6618    0.0000 </r>
       <r>    7.9193    0.0000 </r>
       <r>    7.9925    0.0000 </r>
       <r>    8.1584    0.0000 </r>
       <r>    8.5217    0.0000 </r>
       <r>    8.6079    0.0000 </r>
       <r>    8.9107    0.0000 </r>
       <r>    9.0326    0.0000 </r>
       <r>    9.3497    0.0000 </r>
       <r>    9.5247    0.0000 </r>
       <r>    9.7159    0.0000 </r>
       <r>    9.9781    0.0000 </r>
       <r>   10.0127    0.0000 </r>
      </set>
      <set comment="kpoint 3">
       <r>  -55.3415    1.0000 </r>
       <r>  -55.3403    1.0000 </r>
       <r>  -55.3174    1.0000 </r>
       <r>  -55.3168    1.0000 </r>
       <r>  -55.3017    1.0000 </r>
       <r>  -55.3012    1.0000 </r>
       <r>  -28.9254    1.0000 </r>
       <r>  -28.9052    1.0000 </r>
       <r>  -28.8044    1.0000 </r>
       <r>  -28.8036    1.0000 </r>
       <r>  -28.7367    1.0000 </r>
       <r>  -28.7348    1.0000 </r>
       <r>  -28.7251    1.0000 </r>
       <r>  -28.7232    1.0000 </r>
       <r>  -28.7155    1.0000 </r>
       <r>  -28.7123    1.0000 </r>
       <r>  -28.6973    1.0000 </r>
       <r>  -28.6968    1.0000 </r>
       <r>  -28.6147    1.0000 </r>
       <r>  -28.6139    1.0000 </r>
       <r>  -28.5994    1.0000 </r>
       <r>  -28.5985    1.0000 </r>
       <r>  -28.5801    1.0000 </r>
       <r>  -28.5794    1.0000 </r>
       <r>   -4.7341    1.0000 </r>
       <r>   -3.9114    1.0000 </r>
       <r>   -1.6289    1.0000 </r>
       <r>   -1.6274    1.0000 </r>
       <r>   -1.5658    1.0000 </r>
       <r>   -1.4013    1.0000 </r>
       <r>   -0.0700    1.0000 </r>
       <r>    0.2335    1.0000 </r>
       <r>    0.4783    1.0000 </r>
       <r>    0.6512    1.0000 </r>
       <r>    1.9047    1.0000 </r>
       <r>    2.0576    1.0000 </r>
       <r>    2.4185    1.0000 </r>
       <r>    2.9877    1.0000 </r>
       <r>    2.9946    1.0000 </r>
       <r>    3.2421    1.0000 </r>
       <r>    3.3767    1.0000 </r>
       <r>    3.4675    1.0000 </r>
       <r>    3.5732    1.0000 </r>
       <r>    4.0966    1.0000 </r>
       <r>    4.3265    1.0000 </r>
       <r>    4.3509    1.0000 </r>
       <r>    4.4253    1.0000 </r>
       <r>    4.5426    1.0000 </r>
       <r>    4.7904    1.0000 </r>
       <r>    5.2846    1.0000 </r>
       <r>    5.3551    1.0000 </r>
       <r>    5.4821    1.0000 </r>
       <r>    5.6283    1.0000 </r>
       <r>    6.0349    1.0000 </r>
       <r>    6.1468    1.0000 </r>
       <r>    6.1650    1.0000 </r>
       <r>    6.3612    1.0000 </r>
       <r>    6.4606    1.0000 </r>
       <r>    6.7382    1.0000 </r>
       <r>    6.8626    1.0000 </r>
       <r>    6.9669    1.0000 </r>
       <r>    6.9876    1.0000 </r>
       <r>    7.1262    1.0000 </r>
       <r>    7.2715    1.0000 </r>
       <r>    7.3492    1.0000 </r>
       <r>    7.5157    0.0004 </r>
       <r>    7.7105    0.0000 </r>
       <r>    8.0182    0.0000 </r>
       <r>    8.2895    0.0000 </r>
       <r>    8.3958    0.0000 </r>
       <r>    8.6451    0.0000 </r>
       <r>    8.7817    0.0000 </r>
       <r>    8.8529    0.0000 </r>
       <r>    8.8708    0.0000 </r>
       <r>    9.2617    0.0000 </r>
       <r>    9.3745    0.0000 </r>
       <r>    9.4552    0.0000 </r>
       <r>    9.9353    0.0000 </r>
      </set>
      <set comment="kpoint 4">
       <r>  -55.3409    1.0000 </r>
       <r>  -55.3409    1.0000 </r>
       <r>  -55.3174    1.0000 </r>
       <r>  -55.3169    1.0000 </r>
       <r>  -55.3016    1.0000 </r>
       <r>  -55.3011    1.0000 </r>
       <r>  -28.9153    1.0000 </r>
       <r>  -28.9153    1.0000 </r>
       <r>  -28.8052    1.0000 </r>
       <r>  -28.8045    1.0000 </r>
       <r>  -28.7332    1.0000 </r>
       <r>  -28.7332    1.0000 </r>
       <r>  -28.7250    1.0000 </r>
       <r>  -28.7250    1.0000 </r>
       <r>  -28.7142    1.0000 </r>
       <r>  -28.7138    1.0000 </r>
       <r>  -28.6972    1.0000 </r>
       <r>  -28.6967    1.0000 </r>
       <r>  -28.6162    1.0000 </r>
       <r>  -28.6156    1.0000 </r>
       <r>  -28.6001    1.0000 </r>
       <r>  -28.5996    1.0000 </r>
       <r>  -28.5785    1.0000 </r>
       <r>  -28.5780    1.0000 </r>
       <r>   -4.3348    1.0000 </r>
       <r>   -4.3347    1.0000 </r>
       <r>   -1.6939    1.0000 </r>
       <r>   -1.6933    1.0000 </r>
       <r>   -1.5224    1.0000 </r>
       <r>   -1.5220    1.0000 </r>
       <r>    0.1529    1.0000 </r>
       <r>    0.1535    1.0000 </r>
       <r>    0.5567    1.0000 </r>
       <r>    0.5574    1.0000 </r>
       <r>    2.2035    1.0000 </r>
       <r>    2.2036    1.0000 </r>
       <r>    2.8236    1.0000 </r>
       <r>    2.8241    1.0000 </r>
       <r>    2.9003    1.0000 </r>
       <r>    2.9005    1.0000 </r>
       <r>    3.3017    1.0000 </r>
       <r>    3.3024    1.0000 </r>
       <r>    3.7721    1.0000 </r>
       <r>    3.7722    1.0000 </r>
       <r>    4.3921    1.0000 </r>
       <r>    4.3929    1.0000 </r>
       <r>    4.5593    1.0000 </r>
       <r>    4.5593    1.0000 </r>
       <r>    4.9837    1.0000 </r>
       <r>    4.9844    1.0000 </r>
       <r>    5.2688    1.0000 </r>
       <r>    5.2693    1.0000 </r>
       <r>    5.9463    1.0000 </r>
       <r>    5.9466    1.0000 </r>
       <r>    6.2510    1.0000 </r>
       <r>    6.2512    1.0000 </r>
       <r>    6.4626    1.0000 </r>
       <r>    6.4628    1.0000 </r>
       <r>    6.8448    1.0000 </r>
       <r>    6.8452    1.0000 </r>
       <r>    6.9819    1.0000 </r>
       <r>    6.9822    1.0000 </r>
       <r>    7.3022    1.0000 </r>
       <r>    7.3022    1.0000 </r>
       <r>    7.6807    0.0000 </r>
       <r>    7.6807    0.0000 </r>
       <r>    7.9557    0.0000 </r>
       <r>    7.9558    0.0000 </r>
       <r>    8.1691    0.0000 </r>
       <r>    8.1696    0.0000 </r>
       <r>    8.4242    0.0000 </r>
       <r>    8.4247    0.0000 </r>
       <r>    8.6332    0.0000 </r>
       <r>    8.6334    0.0000 </r>
       <r>    9.4205    0.0000 </r>
       <r>    9.4390    0.0000 </r>
       <r>    9.6231    0.0000 </r>
       <r>    9.7060    0.0000 </r>
      </set>
      <set comment="kpoint 5">
       <r>  -55.3417    1.0000 </r>
       <r>  -55.3402    1.0000 </r>
       <r>  -55.3175    1.0000 </r>
       <r>  -55.3166    1.0000 </r>
       <r>  -55.3017    1.0000 </r>
       <r>  -55.3012    1.0000 </r>
       <r>  -28.9253    1.0000 </r>
       <r>  -28.9053    1.0000 </r>
       <r>  -28.8034    1.0000 </r>
       <r>  -28.8026    1.0000 </r>
       <r>  -28.7412    1.0000 </r>
       <r>  -28.7349    1.0000 </r>
       <r>  -28.7271    1.0000 </r>
       <r>  -28.7201    1.0000 </r>
       <r>  -28.7155    1.0000 </r>
       <r>  -28.7122    1.0000 </r>
       <r>  -28.6973    1.0000 </r>
       <r>  -28.6970    1.0000 </r>
       <r>  -28.6124    1.0000 </r>
       <r>  -28.6120    1.0000 </r>
       <r>  -28.6022    1.0000 </r>
       <r>  -28.5960    1.0000 </r>
       <r>  -28.5826    1.0000 </r>
       <r>  -28.5794    1.0000 </r>
       <r>   -4.7879    1.0000 </r>
       <r>   -3.8621    1.0000 </r>
       <r>   -1.7494    1.0000 </r>
       <r>   -1.5979    1.0000 </r>
       <r>   -1.5289    1.0000 </r>
       <r>   -1.0947    1.0000 </r>
       <r>   -0.2490    1.0000 </r>
       <r>   -0.0410    1.0000 </r>
       <r>    0.6191    1.0000 </r>
       <r>    0.8209    1.0000 </r>
       <r>    1.7313    1.0000 </r>
       <r>    1.9442    1.0000 </r>
       <r>    2.5439    1.0000 </r>
       <r>    2.8149    1.0000 </r>
       <r>    3.0384    1.0000 </r>
       <r>    3.1725    1.0000 </r>
       <r>    3.4048    1.0000 </r>
       <r>    3.5119    1.0000 </r>
       <r>    3.9643    1.0000 </r>
       <r>    4.0269    1.0000 </r>
       <r>    4.2343    1.0000 </r>
       <r>    4.2730    1.0000 </r>
       <r>    4.4123    1.0000 </r>
       <r>    4.5640    1.0000 </r>
       <r>    4.7034    1.0000 </r>
       <r>    5.2132    1.0000 </r>
       <r>    5.4267    1.0000 </r>
       <r>    5.6966    1.0000 </r>
       <r>    5.7780    1.0000 </r>
       <r>    5.8815    1.0000 </r>
       <r>    6.0081    1.0000 </r>
       <r>    6.3146    1.0000 </r>
       <r>    6.3811    1.0000 </r>
       <r>    6.4385    1.0000 </r>
       <r>    6.6740    1.0000 </r>
       <r>    6.9159    1.0000 </r>
       <r>    6.9299    1.0000 </r>
       <r>    6.9680    1.0000 </r>
       <r>    6.9909    1.0000 </r>
       <r>    7.1881    1.0000 </r>
       <r>    7.4030    1.0000 </r>
       <r>    7.6029    0.0000 </r>
       <r>    7.6349    0.0000 </r>
       <r>    7.9109    0.0000 </r>
       <r>    8.2451    0.0000 </r>
       <r>    8.5384    0.0000 </r>
       <r>    8.7341    0.0000 </r>
       <r>    8.7727    0.0000 </r>
       <r>    8.7990    0.0000 </r>
       <r>    8.9353    0.0000 </r>
       <r>    9.1410    0.0000 </r>
       <r>    9.3087    0.0000 </r>
       <r>    9.4850    0.0000 </r>
       <r>   10.1826    0.0000 </r>
      </set>
      <set comment="kpoint 6">
       <r>  -55.3411    1.0000 </r>
       <r>  -55.3406    1.0000 </r>
       <r>  -55.3175    1.0000 </r>
       <r>  -55.3168    1.0000 </r>
       <r>  -55.3016    1.0000 </r>
       <r>  -55.3011    1.0000 </r>
       <r>  -28.9155    1.0000 </r>
       <r>  -28.9152    1.0000 </r>
       <r>  -28.8052    1.0000 </r>
       <r>  -28.8044    1.0000 </r>
       <r>  -28.7387    1.0000 </r>
       <r>  -28.7316    1.0000 </r>
       <r>  -28.7266    1.0000 </r>
       <r>  -28.7189    1.0000 </r>
       <r>  -28.7142    1.0000 </r>
       <r>  -28.7138    1.0000 </r>
       <r>  -28.6972    1.0000 </r>
       <r>  -28.6967    1.0000 </r>
       <r>  -28.6147    1.0000 </r>
       <r>  -28.6142    1.0000 </r>
       <r>  -28.6053    1.0000 </r>
       <r>  -28.6009    1.0000 </r>
       <r>  -28.5777    1.0000 </r>
       <r>  -28.5759    1.0000 </r>
       <r>   -4.4211    1.0000 </r>
       <r>   -4.2349    1.0000 </r>
       <r>   -1.9643    1.0000 </r>
       <r>   -1.7381    1.0000 </r>
       <r>   -1.4460    1.0000 </r>
       <r>   -1.1469    1.0000 </r>
       <r>   -0.2073    1.0000 </r>
       <r>    0.2033    1.0000 </r>
       <r>    0.5268    1.0000 </r>
       <r>    0.8789    1.0000 </r>
       <r>    1.9785    1.0000 </r>
       <r>    2.0379    1.0000 </r>
       <r>    2.6861    1.0000 </r>
       <r>    2.7982    1.0000 </r>
       <r>    2.8427    1.0000 </r>
       <r>    3.2957    1.0000 </r>
       <r>    3.3692    1.0000 </r>
       <r>    3.5255    1.0000 </r>
       <r>    3.6729    1.0000 </r>
       <r>    4.0786    1.0000 </r>
       <r>    4.2679    1.0000 </r>
       <r>    4.3228    1.0000 </r>
       <r>    4.4191    1.0000 </r>
       <r>    4.5411    1.0000 </r>
       <r>    4.7838    1.0000 </r>
       <r>    4.9703    1.0000 </r>
       <r>    5.2087    1.0000 </r>
       <r>    5.5534    1.0000 </r>
       <r>    5.8960    1.0000 </r>
       <r>    5.9606    1.0000 </r>
       <r>    6.0715    1.0000 </r>
       <r>    6.3238    1.0000 </r>
       <r>    6.4615    1.0000 </r>
       <r>    6.5514    1.0000 </r>
       <r>    6.7134    1.0000 </r>
       <r>    6.9037    1.0000 </r>
       <r>    7.0053    1.0000 </r>
       <r>    7.0853    1.0000 </r>
       <r>    7.2267    1.0000 </r>
       <r>    7.4684    0.4986 </r>
       <r>    7.5950    0.0000 </r>
       <r>    7.6389    0.0000 </r>
       <r>    7.7900    0.0000 </r>
       <r>    8.0514    0.0000 </r>
       <r>    8.1761    0.0000 </r>
       <r>    8.2167    0.0000 </r>
       <r>    8.4058    0.0000 </r>
       <r>    8.4888    0.0000 </r>
       <r>    8.5711    0.0000 </r>
       <r>    8.7353    0.0000 </r>
       <r>    9.0761    0.0000 </r>
       <r>    9.3873    0.0000 </r>
       <r>    9.6771    0.0000 </r>
       <r>    9.8952    0.0000 </r>
      </set>
      <set comment="kpoint 7">
       <r>  -55.3411    1.0000 </r>
       <r>  -55.3405    1.0000 </r>
       <r>  -55.3175    1.0000 </r>
       <r>  -55.3170    1.0000 </r>
       <r>  -55.3016    1.0000 </r>
       <r>  -55.3011    1.0000 </r>
       <r>  -28.9256    1.0000 </r>
       <r>  -28.9051    1.0000 </r>
       <r>  -28.8061    1.0000 </r>
       <r>  -28.8052    1.0000 </r>
       <r>  -28.7363    1.0000 </r>
       <r>  -28.7342    1.0000 </r>
       <r>  -28.7216    1.0000 </r>
       <r>  -28.7199    1.0000 </r>
       <r>  -28.7156    1.0000 </r>
       <r>  -28.7125    1.0000 </r>
       <r>  -28.6972    1.0000 </r>
       <r>  -28.6966    1.0000 </r>
       <r>  -28.6162    1.0000 </r>
       <r>  -28.6157    1.0000 </r>
       <r>  -28.6046    1.0000 </r>
       <r>  -28.6040    1.0000 </r>
       <r>  -28.5755    1.0000 </r>
       <r>  -28.5747    1.0000 </r>
       <r>   -4.6119    1.0000 </r>
       <r>   -3.9991    1.0000 </r>
       <r>   -2.0666    1.0000 </r>
       <r>   -1.7164    1.0000 </r>
       <r>   -1.3137    1.0000 </r>
       <r>   -1.2611    1.0000 </r>
       <r>   -0.0075    1.0000 </r>
       <r>    0.1185    1.0000 </r>
       <r>    0.4635    1.0000 </r>
       <r>    0.8435    1.0000 </r>
       <r>    1.8930    1.0000 </r>
       <r>    2.0577    1.0000 </r>
       <r>    2.4560    1.0000 </r>
       <r>    2.8267    1.0000 </r>
       <r>    3.2276    1.0000 </r>
       <r>    3.2636    1.0000 </r>
       <r>    3.4028    1.0000 </r>
       <r>    3.4574    1.0000 </r>
       <r>    3.7651    1.0000 </r>
       <r>    3.9681    1.0000 </r>
       <r>    4.2887    1.0000 </r>
       <r>    4.3669    1.0000 </r>
       <r>    4.4214    1.0000 </r>
       <r>    4.6179    1.0000 </r>
       <r>    4.7674    1.0000 </r>
       <r>    5.0463    1.0000 </r>
       <r>    5.2613    1.0000 </r>
       <r>    5.5081    1.0000 </r>
       <r>    5.6477    1.0000 </r>
       <r>    5.9595    1.0000 </r>
       <r>    6.0548    1.0000 </r>
       <r>    6.2297    1.0000 </r>
       <r>    6.3403    1.0000 </r>
       <r>    6.4948    1.0000 </r>
       <r>    6.5799    1.0000 </r>
       <r>    6.9107    1.0000 </r>
       <r>    6.9823    1.0000 </r>
       <r>    7.1142    1.0000 </r>
       <r>    7.1864    1.0000 </r>
       <r>    7.4745    0.3318 </r>
       <r>    7.5575    0.0000 </r>
       <r>    7.6255    0.0000 </r>
       <r>    7.7939    0.0000 </r>
       <r>    7.9664    0.0000 </r>
       <r>    8.1377    0.0000 </r>
       <r>    8.3023    0.0000 </r>
       <r>    8.6224    0.0000 </r>
       <r>    8.7264    0.0000 </r>
       <r>    8.8387    0.0000 </r>
       <r>    8.8458    0.0000 </r>
       <r>    9.2979    0.0000 </r>
       <r>    9.3354    0.0000 </r>
       <r>    9.5167    0.0000 </r>
       <r>    9.7827    0.0000 </r>
      </set>
      <set comment="kpoint 8">
       <r>  -55.3416    1.0000 </r>
       <r>  -55.3401    1.0000 </r>
       <r>  -55.3175    1.0000 </r>
       <r>  -55.3169    1.0000 </r>
       <r>  -55.3016    1.0000 </r>
       <r>  -55.3011    1.0000 </r>
       <r>  -28.9329    1.0000 </r>
       <r>  -28.8976    1.0000 </r>
       <r>  -28.8054    1.0000 </r>
       <r>  -28.8043    1.0000 </r>
       <r>  -28.7396    1.0000 </r>
       <r>  -28.7312    1.0000 </r>
       <r>  -28.7269    1.0000 </r>
       <r>  -28.7181    1.0000 </r>
       <r>  -28.7166    1.0000 </r>
       <r>  -28.7112    1.0000 </r>
       <r>  -28.6974    1.0000 </r>
       <r>  -28.6967    1.0000 </r>
       <r>  -28.6149    1.0000 </r>
       <r>  -28.6139    1.0000 </r>
       <r>  -28.6048    1.0000 </r>
       <r>  -28.6015    1.0000 </r>
       <r>  -28.5782    1.0000 </r>
       <r>  -28.5753    1.0000 </r>
       <r>   -4.9060    1.0000 </r>
       <r>   -3.6532    1.0000 </r>
       <r>   -1.9736    1.0000 </r>
       <r>   -1.6088    1.0000 </r>
       <r>   -1.3531    1.0000 </r>
       <r>   -1.1494    1.0000 </r>
       <r>   -0.0525    1.0000 </r>
       <r>    0.1155    1.0000 </r>
       <r>    0.3141    1.0000 </r>
       <r>    0.8677    1.0000 </r>
       <r>    1.5903    1.0000 </r>
       <r>    1.8283    1.0000 </r>
       <r>    2.4104    1.0000 </r>
       <r>    2.8142    1.0000 </r>
       <r>    3.0205    1.0000 </r>
       <r>    3.2891    1.0000 </r>
       <r>    3.6652    1.0000 </r>
       <r>    3.8127    1.0000 </r>
       <r>    3.8873    1.0000 </r>
       <r>    4.1223    1.0000 </r>
       <r>    4.1869    1.0000 </r>
       <r>    4.3145    1.0000 </r>
       <r>    4.4255    1.0000 </r>
       <r>    4.7006    1.0000 </r>
       <r>    4.8077    1.0000 </r>
       <r>    5.2089    1.0000 </r>
       <r>    5.2506    1.0000 </r>
       <r>    5.4099    1.0000 </r>
       <r>    5.7017    1.0000 </r>
       <r>    5.7922    1.0000 </r>
       <r>    5.8641    1.0000 </r>
       <r>    6.0454    1.0000 </r>
       <r>    6.1563    1.0000 </r>
       <r>    6.3872    1.0000 </r>
       <r>    6.6270    1.0000 </r>
       <r>    6.6774    1.0000 </r>
       <r>    6.7940    1.0000 </r>
       <r>    7.0966    1.0000 </r>
       <r>    7.1714    1.0000 </r>
       <r>    7.3118    1.0000 </r>
       <r>    7.4218    0.9995 </r>
       <r>    7.6495    0.0000 </r>
       <r>    7.8546    0.0000 </r>
       <r>    8.0723    0.0000 </r>
       <r>    8.2832    0.0000 </r>
       <r>    8.3549    0.0000 </r>
       <r>    8.5738    0.0000 </r>
       <r>    8.8462    0.0000 </r>
       <r>    9.0066    0.0000 </r>
       <r>    9.1143    0.0000 </r>
       <r>    9.2455    0.0000 </r>
       <r>    9.4993    0.0000 </r>
       <r>    9.9132    0.0000 </r>
       <r>   10.2714    0.0000 </r>
      </set>
      <set comment="kpoint 9">
       <r>  -55.3420    1.0000 </r>
       <r>  -55.3399    1.0000 </r>
       <r>  -55.3174    1.0000 </r>
       <r>  -55.3166    1.0000 </r>
       <r>  -55.3017    1.0000 </r>
       <r>  -55.3012    1.0000 </r>
       <r>  -28.9355    1.0000 </r>
       <r>  -28.8950    1.0000 </r>
       <r>  -28.8036    1.0000 </r>
       <r>  -28.8025    1.0000 </r>
       <r>  -28.7417    1.0000 </r>
       <r>  -28.7354    1.0000 </r>
       <r>  -28.7265    1.0000 </r>
       <r>  -28.7196    1.0000 </r>
       <r>  -28.7170    1.0000 </r>
       <r>  -28.7106    1.0000 </r>
       <r>  -28.6975    1.0000 </r>
       <r>  -28.6970    1.0000 </r>
       <r>  -28.6128    1.0000 </r>
       <r>  -28.6114    1.0000 </r>
       <r>  -28.6017    1.0000 </r>
       <r>  -28.5965    1.0000 </r>
       <r>  -28.5832    1.0000 </r>
       <r>  -28.5789    1.0000 </r>
       <r>   -5.0506    1.0000 </r>
       <r>   -3.5029    1.0000 </r>
       <r>   -1.6963    1.0000 </r>
       <r>   -1.5550    1.0000 </r>
       <r>   -1.4393    1.0000 </r>
       <r>   -1.0859    1.0000 </r>
       <r>   -0.2091    1.0000 </r>
       <r>    0.0444    1.0000 </r>
       <r>    0.4213    1.0000 </r>
       <r>    0.7888    1.0000 </r>
       <r>    1.6201    1.0000 </r>
       <r>    1.6236    1.0000 </r>
       <r>    2.2412    1.0000 </r>
       <r>    2.3929    1.0000 </r>
       <r>    3.2069    1.0000 </r>
       <r>    3.4643    1.0000 </r>
       <r>    3.6765    1.0000 </r>
       <r>    3.9391    1.0000 </r>
       <r>    3.9758    1.0000 </r>
       <r>    4.0572    1.0000 </r>
       <r>    4.3457    1.0000 </r>
       <r>    4.3775    1.0000 </r>
       <r>    4.3972    1.0000 </r>
       <r>    4.8713    1.0000 </r>
       <r>    5.0027    1.0000 </r>
       <r>    5.0326    1.0000 </r>
       <r>    5.0928    1.0000 </r>
       <r>    5.4696    1.0000 </r>
       <r>    5.7787    1.0000 </r>
       <r>    5.8192    1.0000 </r>
       <r>    5.8258    1.0000 </r>
       <r>    5.9943    1.0000 </r>
       <r>    6.0962    1.0000 </r>
       <r>    6.2397    1.0000 </r>
       <r>    6.4505    1.0000 </r>
       <r>    6.5675    1.0000 </r>
       <r>    6.9184    1.0000 </r>
       <r>    6.9709    1.0000 </r>
       <r>    6.9743    1.0000 </r>
       <r>    7.1519    1.0000 </r>
       <r>    7.2418    1.0000 </r>
       <r>    7.4932    0.0399 </r>
       <r>    8.1444    0.0000 </r>
       <r>    8.2907    0.0000 </r>
       <r>    8.3440    0.0000 </r>
       <r>    8.3498    0.0000 </r>
       <r>    8.4637    0.0000 </r>
       <r>    8.5577    0.0000 </r>
       <r>    9.1106    0.0000 </r>
       <r>    9.4174    0.0000 </r>
       <r>    9.4981    0.0000 </r>
       <r>    9.9689    0.0000 </r>
       <r>   10.1458    0.0000 </r>
       <r>   10.2828    0.0000 </r>
      </set>
      <set comment="kpoint 10">
       <r>  -55.3410    1.0000 </r>
       <r>  -55.3407    1.0000 </r>
       <r>  -55.3176    1.0000 </r>
       <r>  -55.3170    1.0000 </r>
       <r>  -55.3016    1.0000 </r>
       <r>  -55.3011    1.0000 </r>
       <r>  -28.9256    1.0000 </r>
       <r>  -28.9050    1.0000 </r>
       <r>  -28.8069    1.0000 </r>
       <r>  -28.8058    1.0000 </r>
       <r>  -28.7388    1.0000 </r>
       <r>  -28.7345    1.0000 </r>
       <r>  -28.7194    1.0000 </r>
       <r>  -28.7158    1.0000 </r>
       <r>  -28.7144    1.0000 </r>
       <r>  -28.7125    1.0000 </r>
       <r>  -28.6972    1.0000 </r>
       <r>  -28.6966    1.0000 </r>
       <r>  -28.6152    1.0000 </r>
       <r>  -28.6151    1.0000 </r>
       <r>  -28.6115    1.0000 </r>
       <r>  -28.6074    1.0000 </r>
       <r>  -28.5731    1.0000 </r>
       <r>  -28.5718    1.0000 </r>
       <r>   -4.5408    1.0000 </r>
       <r>   -4.0387    1.0000 </r>
       <r>   -2.2811    1.0000 </r>
       <r>   -1.7646    1.0000 </r>
       <r>   -1.1975    1.0000 </r>
       <r>   -1.0598    1.0000 </r>
       <r>   -0.2313    1.0000 </r>
       <r>    0.1070    1.0000 </r>
       <r>    0.4773    1.0000 </r>
       <r>    1.1517    1.0000 </r>
       <r>    1.7601    1.0000 </r>
       <r>    1.8935    1.0000 </r>
       <r>    2.3107    1.0000 </r>
       <r>    2.9204    1.0000 </r>
       <r>    3.2218    1.0000 </r>
       <r>    3.5216    1.0000 </r>
       <r>    3.5445    1.0000 </r>
       <r>    3.6413    1.0000 </r>
       <r>    3.9002    1.0000 </r>
       <r>    3.9595    1.0000 </r>
       <r>    4.1086    1.0000 </r>
       <r>    4.2117    1.0000 </r>
       <r>    4.3706    1.0000 </r>
       <r>    4.5486    1.0000 </r>
       <r>    4.7130    1.0000 </r>
       <r>    5.0328    1.0000 </r>
       <r>    5.2922    1.0000 </r>
       <r>    5.4659    1.0000 </r>
       <r>    5.7043    1.0000 </r>
       <r>    5.8192    1.0000 </r>
       <r>    6.1022    1.0000 </r>
       <r>    6.2092    1.0000 </r>
       <r>    6.2366    1.0000 </r>
       <r>    6.6001    1.0000 </r>
       <r>    6.6256    1.0000 </r>
       <r>    6.7725    1.0000 </r>
       <r>    6.9634    1.0000 </r>
       <r>    7.2711    1.0000 </r>
       <r>    7.3254    1.0000 </r>
       <r>    7.4108    1.0000 </r>
       <r>    7.6995    0.0000 </r>
       <r>    7.7127    0.0000 </r>
       <r>    7.8750    0.0000 </r>
       <r>    7.9172    0.0000 </r>
       <r>    8.1191    0.0000 </r>
       <r>    8.2645    0.0000 </r>
       <r>    8.5059    0.0000 </r>
       <r>    8.7383    0.0000 </r>
       <r>    8.7458    0.0000 </r>
       <r>    8.9285    0.0000 </r>
       <r>    9.0800    0.0000 </r>
       <r>    9.3365    0.0000 </r>
       <r>    9.3853    0.0000 </r>
       <r>    9.7773    0.0000 </r>
      </set>
      <set comment="kpoint 11">
       <r>  -55.3413    1.0000 </r>
       <r>  -55.3403    1.0000 </r>
       <r>  -55.3177    1.0000 </r>
       <r>  -55.3171    1.0000 </r>
       <r>  -55.3015    1.0000 </r>
       <r>  -55.3010    1.0000 </r>
       <r>  -28.9330    1.0000 </r>
       <r>  -28.8975    1.0000 </r>
       <r>  -28.8078    1.0000 </r>
       <r>  -28.8065    1.0000 </r>
       <r>  -28.7392    1.0000 </r>
       <r>  -28.7352    1.0000 </r>
       <r>  -28.7169    1.0000 </r>
       <r>  -28.7158    1.0000 </r>
       <r>  -28.7126    1.0000 </r>
       <r>  -28.7114    1.0000 </r>
       <r>  -28.6973    1.0000 </r>
       <r>  -28.6964    1.0000 </r>
       <r>  -28.6164    1.0000 </r>
       <r>  -28.6159    1.0000 </r>
       <r>  -28.6118    1.0000 </r>
       <r>  -28.6112    1.0000 </r>
       <r>  -28.5713    1.0000 </r>
       <r>  -28.5702    1.0000 </r>
       <r>   -4.7815    1.0000 </r>
       <r>   -3.7114    1.0000 </r>
       <r>   -2.4084    1.0000 </r>
       <r>   -1.6566    1.0000 </r>
       <r>   -1.1316    1.0000 </r>
       <r>   -0.9421    1.0000 </r>
       <r>   -0.1472    1.0000 </r>
       <r>   -0.0196    1.0000 </r>
       <r>    0.2436    1.0000 </r>
       <r>    1.1467    1.0000 </r>
       <r>    1.5443    1.0000 </r>
       <r>    1.9098    1.0000 </r>
       <r>    2.5466    1.0000 </r>
       <r>    2.6837    1.0000 </r>
       <r>    3.3653    1.0000 </r>
       <r>    3.3720    1.0000 </r>
       <r>    3.6508    1.0000 </r>
       <r>    3.7842    1.0000 </r>
       <r>    3.8488    1.0000 </r>
       <r>    4.1017    1.0000 </r>
       <r>    4.1549    1.0000 </r>
       <r>    4.2544    1.0000 </r>
       <r>    4.4543    1.0000 </r>
       <r>    4.5669    1.0000 </r>
       <r>    4.7543    1.0000 </r>
       <r>    5.1525    1.0000 </r>
       <r>    5.2051    1.0000 </r>
       <r>    5.4915    1.0000 </r>
       <r>    5.6613    1.0000 </r>
       <r>    5.7036    1.0000 </r>
       <r>    5.8215    1.0000 </r>
       <r>    6.1127    1.0000 </r>
       <r>    6.1183    1.0000 </r>
       <r>    6.2245    1.0000 </r>
       <r>    6.5398    1.0000 </r>
       <r>    6.6871    1.0000 </r>
       <r>    6.8697    1.0000 </r>
       <r>    7.2930    1.0000 </r>
       <r>    7.3956    1.0000 </r>
       <r>    7.4522    0.8733 </r>
       <r>    7.5662    0.0000 </r>
       <r>    7.8390    0.0000 </r>
       <r>    7.9473    0.0000 </r>
       <r>    8.0821    0.0000 </r>
       <r>    8.2043    0.0000 </r>
       <r>    8.3755    0.0000 </r>
       <r>    8.6213    0.0000 </r>
       <r>    8.7800    0.0000 </r>
       <r>    8.9217    0.0000 </r>
       <r>    8.9869    0.0000 </r>
       <r>    9.1515    0.0000 </r>
       <r>    9.2443    0.0000 </r>
       <r>    9.5147    0.0000 </r>
       <r>    9.7272    0.0000 </r>
      </set>
      <set comment="kpoint 12">
       <r>  -55.3416    1.0000 </r>
       <r>  -55.3401    1.0000 </r>
       <r>  -55.3176    1.0000 </r>
       <r>  -55.3170    1.0000 </r>
       <r>  -55.3015    1.0000 </r>
       <r>  -55.3011    1.0000 </r>
       <r>  -28.9357    1.0000 </r>
       <r>  -28.8948    1.0000 </r>
       <r>  -28.8071    1.0000 </r>
       <r>  -28.8057    1.0000 </r>
       <r>  -28.7402    1.0000 </r>
       <r>  -28.7331    1.0000 </r>
       <r>  -28.7206    1.0000 </r>
       <r>  -28.7172    1.0000 </r>
       <r>  -28.7132    1.0000 </r>
       <r>  -28.7109    1.0000 </r>
       <r>  -28.6974    1.0000 </r>
       <r>  -28.6965    1.0000 </r>
       <r>  -28.6155    1.0000 </r>
       <r>  -28.6146    1.0000 </r>
       <r>  -28.6108    1.0000 </r>
       <r>  -28.6081    1.0000 </r>
       <r>  -28.5736    1.0000 </r>
       <r>  -28.5713    1.0000 </r>
       <r>   -4.9160    1.0000 </r>
       <r>   -3.5673    1.0000 </r>
       <r>   -2.2934    1.0000 </r>
       <r>   -1.5786    1.0000 </r>
       <r>   -1.2262    1.0000 </r>
       <r>   -0.8770    1.0000 </r>
       <r>   -0.0781    1.0000 </r>
       <r>    0.0185    1.0000 </r>
       <r>    0.0560    1.0000 </r>
       <r>    1.1517    1.0000 </r>
       <r>    1.3573    1.0000 </r>
       <r>    1.8251    1.0000 </r>
       <r>    2.7424    1.0000 </r>
       <r>    2.7902    1.0000 </r>
       <r>    3.0266    1.0000 </r>
       <r>    3.0962    1.0000 </r>
       <r>    3.6892    1.0000 </r>
       <r>    3.8709    1.0000 </r>
       <r>    4.0082    1.0000 </r>
       <r>    4.1397    1.0000 </r>
       <r>    4.1863    1.0000 </r>
       <r>    4.3148    1.0000 </r>
       <r>    4.5027    1.0000 </r>
       <r>    4.7738    1.0000 </r>
       <r>    5.0696    1.0000 </r>
       <r>    5.0711    1.0000 </r>
       <r>    5.1953    1.0000 </r>
       <r>    5.3125    1.0000 </r>
       <r>    5.4801    1.0000 </r>
       <r>    5.5222    1.0000 </r>
       <r>    5.8567    1.0000 </r>
       <r>    5.9949    1.0000 </r>
       <r>    6.0429    1.0000 </r>
       <r>    6.4327    1.0000 </r>
       <r>    6.5186    1.0000 </r>
       <r>    6.5741    1.0000 </r>
       <r>    6.7246    1.0000 </r>
       <r>    7.2099    1.0000 </r>
       <r>    7.4037    1.0000 </r>
       <r>    7.4523    0.8728 </r>
       <r>    7.5291    0.0000 </r>
       <r>    7.7504    0.0000 </r>
       <r>    8.1049    0.0000 </r>
       <r>    8.2159    0.0000 </r>
       <r>    8.2552    0.0000 </r>
       <r>    8.3376    0.0000 </r>
       <r>    8.4147    0.0000 </r>
       <r>    8.4636    0.0000 </r>
       <r>    8.9982    0.0000 </r>
       <r>    9.1130    0.0000 </r>
       <r>    9.2481    0.0000 </r>
       <r>    9.6689    0.0000 </r>
       <r>    9.9001    0.0000 </r>
       <r>   10.0906    0.0000 </r>
      </set>
      <set comment="kpoint 13">
       <r>  -55.3414    1.0000 </r>
       <r>  -55.3402    1.0000 </r>
       <r>  -55.3177    1.0000 </r>
       <r>  -55.3172    1.0000 </r>
       <r>  -55.3015    1.0000 </r>
       <r>  -55.3010    1.0000 </r>
       <r>  -28.9358    1.0000 </r>
       <r>  -28.8948    1.0000 </r>
       <r>  -28.8086    1.0000 </r>
       <r>  -28.8071    1.0000 </r>
       <r>  -28.7401    1.0000 </r>
       <r>  -28.7355    1.0000 </r>
       <r>  -28.7173    1.0000 </r>
       <r>  -28.7130    1.0000 </r>
       <r>  -28.7111    1.0000 </r>
       <r>  -28.7094    1.0000 </r>
       <r>  -28.6973    1.0000 </r>
       <r>  -28.6963    1.0000 </r>
       <r>  -28.6168    1.0000 </r>
       <r>  -28.6164    1.0000 </r>
       <r>  -28.6148    1.0000 </r>
       <r>  -28.6141    1.0000 </r>
       <r>  -28.5697    1.0000 </r>
       <r>  -28.5684    1.0000 </r>
       <r>   -4.8368    1.0000 </r>
       <r>   -3.5969    1.0000 </r>
       <r>   -2.5374    1.0000 </r>
       <r>   -1.5901    1.0000 </r>
       <r>   -1.1136    1.0000 </r>
       <r>   -0.6922    1.0000 </r>
       <r>   -0.1859    1.0000 </r>
       <r>   -0.1114    1.0000 </r>
       <r>    0.0470    1.0000 </r>
       <r>    0.9697    1.0000 </r>
       <r>    1.8017    1.0000 </r>
       <r>    1.9516    1.0000 </r>
       <r>    2.3835    1.0000 </r>
       <r>    2.8917    1.0000 </r>
       <r>    3.1255    1.0000 </r>
       <r>    3.4723    1.0000 </r>
       <r>    3.5185    1.0000 </r>
       <r>    3.8162    1.0000 </r>
       <r>    4.0476    1.0000 </r>
       <r>    4.0986    1.0000 </r>
       <r>    4.1810    1.0000 </r>
       <r>    4.3138    1.0000 </r>
       <r>    4.3555    1.0000 </r>
       <r>    4.6151    1.0000 </r>
       <r>    5.0590    1.0000 </r>
       <r>    5.1845    1.0000 </r>
       <r>    5.2029    1.0000 </r>
       <r>    5.2903    1.0000 </r>
       <r>    5.6525    1.0000 </r>
       <r>    5.7227    1.0000 </r>
       <r>    5.7469    1.0000 </r>
       <r>    5.8733    1.0000 </r>
       <r>    5.8952    1.0000 </r>
       <r>    6.1494    1.0000 </r>
       <r>    6.4391    1.0000 </r>
       <r>    6.7297    1.0000 </r>
       <r>    6.9412    1.0000 </r>
       <r>    7.3314    1.0000 </r>
       <r>    7.4635    0.6358 </r>
       <r>    7.4904    0.0597 </r>
       <r>    7.5804    0.0000 </r>
       <r>    8.0067    0.0000 </r>
       <r>    8.0106    0.0000 </r>
       <r>    8.1023    0.0000 </r>
       <r>    8.3744    0.0000 </r>
       <r>    8.3833    0.0000 </r>
       <r>    8.4455    0.0000 </r>
       <r>    8.8218    0.0000 </r>
       <r>    8.8776    0.0000 </r>
       <r>    8.9397    0.0000 </r>
       <r>    9.0507    0.0000 </r>
       <r>    9.1903    0.0000 </r>
       <r>    9.5949    0.0000 </r>
       <r>    9.9346    0.0000 </r>
      </set>
      <set comment="kpoint 14">
       <r>  -55.3413    1.0000 </r>
       <r>  -55.3404    1.0000 </r>
       <r>  -55.3176    1.0000 </r>
       <r>  -55.3170    1.0000 </r>
       <r>  -55.3016    1.0000 </r>
       <r>  -55.3011    1.0000 </r>
       <r>  -28.9255    1.0000 </r>
       <r>  -28.9051    1.0000 </r>
       <r>  -28.8065    1.0000 </r>
       <r>  -28.8063    1.0000 </r>
       <r>  -28.7394    1.0000 </r>
       <r>  -28.7339    1.0000 </r>
       <r>  -28.7201    1.0000 </r>
       <r>  -28.7159    1.0000 </r>
       <r>  -28.7138    1.0000 </r>
       <r>  -28.7123    1.0000 </r>
       <r>  -28.6970    1.0000 </r>
       <r>  -28.6968    1.0000 </r>
       <r>  -28.6151    1.0000 </r>
       <r>  -28.6151    1.0000 </r>
       <r>  -28.6114    1.0000 </r>
       <r>  -28.6075    1.0000 </r>
       <r>  -28.5730    1.0000 </r>
       <r>  -28.5719    1.0000 </r>
       <r>   -4.6606    1.0000 </r>
       <r>   -3.9461    1.0000 </r>
       <r>   -2.1397    1.0000 </r>
       <r>   -1.8692    1.0000 </r>
       <r>   -1.2075    1.0000 </r>
       <r>   -0.9274    1.0000 </r>
       <r>   -0.0218    1.0000 </r>
       <r>    0.1996    1.0000 </r>
       <r>    0.3332    1.0000 </r>
       <r>    0.8942    1.0000 </r>
       <r>    1.5636    1.0000 </r>
       <r>    1.8317    1.0000 </r>
       <r>    2.4501    1.0000 </r>
       <r>    2.7761    1.0000 </r>
       <r>    3.2162    1.0000 </r>
       <r>    3.4222    1.0000 </r>
       <r>    3.4425    1.0000 </r>
       <r>    3.8178    1.0000 </r>
       <r>    3.9431    1.0000 </r>
       <r>    4.0086    1.0000 </r>
       <r>    4.2140    1.0000 </r>
       <r>    4.2312    1.0000 </r>
       <r>    4.4368    1.0000 </r>
       <r>    4.4797    1.0000 </r>
       <r>    4.6936    1.0000 </r>
       <r>    4.9837    1.0000 </r>
       <r>    5.4541    1.0000 </r>
       <r>    5.5347    1.0000 </r>
       <r>    5.6554    1.0000 </r>
       <r>    5.8951    1.0000 </r>
       <r>    5.9664    1.0000 </r>
       <r>    6.1799    1.0000 </r>
       <r>    6.3345    1.0000 </r>
       <r>    6.4306    1.0000 </r>
       <r>    6.6467    1.0000 </r>
       <r>    6.7312    1.0000 </r>
       <r>    6.9343    1.0000 </r>
       <r>    7.2026    1.0000 </r>
       <r>    7.2108    1.0000 </r>
       <r>    7.4727    0.3798 </r>
       <r>    7.5166    0.0003 </r>
       <r>    7.5945    0.0000 </r>
       <r>    7.7040    0.0000 </r>
       <r>    8.2475    0.0000 </r>
       <r>    8.2541    0.0000 </r>
       <r>    8.5629    0.0000 </r>
       <r>    8.6067    0.0000 </r>
       <r>    8.6883    0.0000 </r>
       <r>    8.7727    0.0000 </r>
       <r>    8.8025    0.0000 </r>
       <r>    9.1029    0.0000 </r>
       <r>    9.2996    0.0000 </r>
       <r>    9.4528    0.0000 </r>
       <r>    9.9985    0.0000 </r>
      </set>
      <set comment="kpoint 15">
       <r>  -55.3408    1.0000 </r>
       <r>  -55.3408    1.0000 </r>
       <r>  -55.3176    1.0000 </r>
       <r>  -55.3171    1.0000 </r>
       <r>  -55.3015    1.0000 </r>
       <r>  -55.3010    1.0000 </r>
       <r>  -28.9153    1.0000 </r>
       <r>  -28.9153    1.0000 </r>
       <r>  -28.8075    1.0000 </r>
       <r>  -28.8068    1.0000 </r>
       <r>  -28.7372    1.0000 </r>
       <r>  -28.7371    1.0000 </r>
       <r>  -28.7151    1.0000 </r>
       <r>  -28.7149    1.0000 </r>
       <r>  -28.7135    1.0000 </r>
       <r>  -28.7132    1.0000 </r>
       <r>  -28.6971    1.0000 </r>
       <r>  -28.6967    1.0000 </r>
       <r>  -28.6164    1.0000 </r>
       <r>  -28.6159    1.0000 </r>
       <r>  -28.6117    1.0000 </r>
       <r>  -28.6112    1.0000 </r>
       <r>  -28.5710    1.0000 </r>
       <r>  -28.5705    1.0000 </r>
       <r>   -4.3134    1.0000 </r>
       <r>   -4.3133    1.0000 </r>
       <r>   -2.0949    1.0000 </r>
       <r>   -2.0940    1.0000 </r>
       <r>   -1.0228    1.0000 </r>
       <r>   -1.0223    1.0000 </r>
       <r>    0.1009    1.0000 </r>
       <r>    0.1026    1.0000 </r>
       <r>    0.6931    1.0000 </r>
       <r>    0.6946    1.0000 </r>
       <r>    1.6280    1.0000 </r>
       <r>    1.6281    1.0000 </r>
       <r>    2.6095    1.0000 </r>
       <r>    2.6097    1.0000 </r>
       <r>    3.4017    1.0000 </r>
       <r>    3.4023    1.0000 </r>
       <r>    3.6642    1.0000 </r>
       <r>    3.6653    1.0000 </r>
       <r>    3.9883    1.0000 </r>
       <r>    3.9887    1.0000 </r>
[...]
       <r>    9.9928    0.0000 </r>
      </set>
      <set comment="kpoint 30">
       <r>  -55.3410    1.0000 </r>
       <r>  -55.3410    1.0000 </r>
       <r>  -55.3176    1.0000 </r>
       <r>  -55.3162    1.0000 </r>
       <r>  -55.3018    1.0000 </r>
       <r>  -55.3013    1.0000 </r>
       <r>  -28.9361    1.0000 </r>
       <r>  -28.8945    1.0000 </r>
       <r>  -28.8017    1.0000 </r>
       <r>  -28.7999    1.0000 </r>
       <r>  -28.7412    1.0000 </r>
       <r>  -28.7411    1.0000 </r>
       <r>  -28.7242    1.0000 </r>
       <r>  -28.7242    1.0000 </r>
       <r>  -28.7171    1.0000 </r>
       <r>  -28.7112    1.0000 </r>
       <r>  -28.6970    1.0000 </r>
       <r>  -28.6966    1.0000 </r>
       <r>  -28.6109    1.0000 </r>
       <r>  -28.6103    1.0000 </r>
       <r>  -28.5913    1.0000 </r>
       <r>  -28.5909    1.0000 </r>
       <r>  -28.5907    1.0000 </r>
       <r>  -28.5876    1.0000 </r>
       <r>   -4.6259    1.0000 </r>
       <r>   -3.7103    1.0000 </r>
       <r>   -1.9968    1.0000 </r>
       <r>   -1.9958    1.0000 </r>
       <r>   -1.1948    1.0000 </r>
       <r>   -1.1885    1.0000 </r>
       <r>   -1.1882    1.0000 </r>
       <r>   -0.7932    1.0000 </r>
       <r>    1.6270    1.0000 </r>
       <r>    1.6289    1.0000 </r>
       <r>    2.6258    1.0000 </r>
       <r>    2.6591    1.0000 </r>
       <r>    2.7351    1.0000 </r>
       <r>    2.9738    1.0000 </r>
       <r>    3.1472    1.0000 </r>
       <r>    3.2954    1.0000 </r>
       <r>    3.4846    1.0000 </r>
       <r>    3.4851    1.0000 </r>
       <r>    3.5175    1.0000 </r>
       <r>    3.5903    1.0000 </r>
       <r>    3.5910    1.0000 </r>
       <r>    3.9473    1.0000 </r>
       <r>    4.4240    1.0000 </r>
       <r>    4.5945    1.0000 </r>
       <r>    4.6276    1.0000 </r>
       <r>    4.6281    1.0000 </r>
       <r>    5.4485    1.0000 </r>
       <r>    6.0078    1.0000 </r>
       <r>    6.1017    1.0000 </r>
       <r>    6.1021    1.0000 </r>
       <r>    6.1308    1.0000 </r>
       <r>    6.1796    1.0000 </r>
       <r>    6.1798    1.0000 </r>
       <r>    6.2921    1.0000 </r>
       <r>    6.6517    1.0000 </r>
       <r>    6.6529    1.0000 </r>
       <r>    6.8129    1.0000 </r>
       <r>    7.0274    1.0000 </r>
       <r>    7.1353    1.0000 </r>
       <r>    7.3448    1.0000 </r>
       <r>    7.6218    0.0000 </r>
       <r>    7.7047    0.0000 </r>
       <r>    7.7048    0.0000 </r>
       <r>    8.0947    0.0000 </r>
       <r>    8.2215    0.0000 </r>
       <r>    8.2215    0.0000 </r>
       <r>    8.6115    0.0000 </r>
       <r>    8.6116    0.0000 </r>
       <r>    8.6564    0.0000 </r>
       <r>    8.8024    0.0000 </r>
       <r>    8.9744    0.0000 </r>
       <r>    8.9951    0.0000 </r>
       <r>    9.3858    0.0000 </r>
       <r>    9.9300    0.0000 </r>
      </set>
     </set>
    </set>
   </array>
  </eigenvalues>
  <separator name="orbital magnetization" >
   <v name="MAGDIPOLOUT">      0.00000000      0.00000000      0.00000000</v>
  </separator>
  <dos>
   <i name="efermi">      7.46838861 </i>
   <total>
    <array>
     <dimension dim="1">gridpoints</dimension>
     <dimension dim="2">spin</dimension>
     <field>energy</field>
     <field>total</field>
     <field>integrated</field>
     <set>
      <set comment="spin 1">
       <r>   -58.6257     0.0000     0.0000 </r>
       <r>   -58.3849     0.0000     0.0000 </r>
       <r>   -58.1441     0.0000     0.0000 </r>
       <r>   -57.9033     0.0000     0.0000 </r>
       <r>   -57.6625     0.0000     0.0000 </r>
       <r>   -57.4217     0.0000     0.0000 </r>
       <r>   -57.1809     0.0000     0.0000 </r>
       <r>   -56.9401     0.0000     0.0000 </r>
       <r>   -56.6993     0.0000     0.0000 </r>
       <r>   -56.4586     0.0000     0.0000 </r>
       <r>   -56.2178     0.0000     0.0000 </r>
       <r>   -55.9770     0.0000     0.0000 </r>
       <r>   -55.7362     0.0000     0.0000 </r>
       <r>   -55.4954     0.0000     0.0000 </r>
       <r>   -55.2546    49.8271    11.9981 </r>
       <r>   -55.0138     0.0000    12.0000 </r>
       <r>   -54.7730     0.0000    12.0000 </r>
       <r>   -54.5322     0.0000    12.0000 </r>
       <r>   -54.2914     0.0000    12.0000 </r>
       <r>   -54.0506     0.0000    12.0000 </r>
       <r>   -53.8098     0.0000    12.0000 </r>
       <r>   -53.5690     0.0000    12.0000 </r>
       <r>   -53.3282     0.0000    12.0000 </r>
       <r>   -53.0874     0.0000    12.0000 </r>
       <r>   -52.8466     0.0000    12.0000 </r>
       <r>   -52.6058     0.0000    12.0000 </r>
       <r>   -52.3650     0.0000    12.0000 </r>
       <r>   -52.1242     0.0000    12.0000 </r>
       <r>   -51.8835     0.0000    12.0000 </r>
       <r>   -51.6427     0.0000    12.0000 </r>
       <r>   -51.4019     0.0000    12.0000 </r>
       <r>   -51.1611     0.0000    12.0000 </r>
       <r>   -50.9203     0.0000    12.0000 </r>
       <r>   -50.6795     0.0000    12.0000 </r>
       <r>   -50.4387     0.0000    12.0000 </r>
       <r>   -50.1979     0.0000    12.0000 </r>
       <r>   -49.9571     0.0000    12.0000 </r>
       <r>   -49.7163     0.0000    12.0000 </r>
       <r>   -49.4755     0.0000    12.0000 </r>
       <r>   -49.2347     0.0000    12.0000 </r>
       <r>   -48.9939     0.0000    12.0000 </r>
       <r>   -48.7531     0.0000    12.0000 </r>
       <r>   -48.5123     0.0000    12.0000 </r>
       <r>   -48.2715     0.0000    12.0000 </r>
       <r>   -48.0307     0.0000    12.0000 </r>
       <r>   -47.7899     0.0000    12.0000 </r>
       <r>   -47.5491     0.0000    12.0000 </r>
       <r>   -47.3084     0.0000    12.0000 </r>
       <r>   -47.0676     0.0000    12.0000 </r>
       <r>   -46.8268     0.0000    12.0000 </r>
       <r>   -46.5860     0.0000    12.0000 </r>
       <r>   -46.3452     0.0000    12.0000 </r>
       <r>   -46.1044     0.0000    12.0000 </r>
       <r>   -45.8636     0.0000    12.0000 </r>
       <r>   -45.6228     0.0000    12.0000 </r>
       <r>   -45.3820     0.0000    12.0000 </r>
       <r>   -45.1412     0.0000    12.0000 </r>
       <r>   -44.9004     0.0000    12.0000 </r>
       <r>   -44.6596     0.0000    12.0000 </r>
       <r>   -44.4188     0.0000    12.0000 </r>
       <r>   -44.1780     0.0000    12.0000 </r>
       <r>   -43.9372     0.0000    12.0000 </r>
       <r>   -43.6964     0.0000    12.0000 </r>
       <r>   -43.4556     0.0000    12.0000 </r>
       <r>   -43.2148     0.0000    12.0000 </r>
       <r>   -42.9740     0.0000    12.0000 </r>
       <r>   -42.7333     0.0000    12.0000 </r>
       <r>   -42.4925     0.0000    12.0000 </r>
       <r>   -42.2517     0.0000    12.0000 </r>
       <r>   -42.0109     0.0000    12.0000 </r>
       <r>   -41.7701     0.0000    12.0000 </r>
       <r>   -41.5293     0.0000    12.0000 </r>
       <r>   -41.2885     0.0000    12.0000 </r>
       <r>   -41.0477     0.0000    12.0000 </r>
       <r>   -40.8069     0.0000    12.0000 </r>
       <r>   -40.5661     0.0000    12.0000 </r>
       <r>   -40.3253     0.0000    12.0000 </r>
       <r>   -40.0845     0.0000    12.0000 </r>
       <r>   -39.8437     0.0000    12.0000 </r>
       <r>   -39.6029     0.0000    12.0000 </r>
       <r>   -39.3621     0.0000    12.0000 </r>
       <r>   -39.1213     0.0000    12.0000 </r>
       <r>   -38.8805     0.0000    12.0000 </r>
       <r>   -38.6397     0.0000    12.0000 </r>
       <r>   -38.3989     0.0000    12.0000 </r>
       <r>   -38.1582     0.0000    12.0000 </r>
       <r>   -37.9174     0.0000    12.0000 </r>
       <r>   -37.6766     0.0000    12.0000 </r>
       <r>   -37.4358     0.0000    12.0000 </r>
       <r>   -37.1950     0.0000    12.0000 </r>
       <r>   -36.9542     0.0000    12.0000 </r>
       <r>   -36.7134     0.0000    12.0000 </r>
       <r>   -36.4726     0.0000    12.0000 </r>
       <r>   -36.2318     0.0000    12.0000 </r>
       <r>   -35.9910     0.0000    12.0000 </r>
       <r>   -35.7502     0.0000    12.0000 </r>
       <r>   -35.5094     0.0000    12.0000 </r>
       <r>   -35.2686     0.0000    12.0000 </r>
       <r>   -35.0278     0.0000    12.0000 </r>
       <r>   -34.7870     0.0000    12.0000 </r>
       <r>   -34.5462     0.0000    12.0000 </r>
       <r>   -34.3054     0.0000    12.0000 </r>
       <r>   -34.0646     0.0000    12.0000 </r>
       <r>   -33.8238     0.0000    12.0000 </r>
       <r>   -33.5831     0.0000    12.0000 </r>
       <r>   -33.3423     0.0000    12.0000 </r>
       <r>   -33.1015     0.0000    12.0000 </r>
       <r>   -32.8607     0.0000    12.0000 </r>
       <r>   -32.6199     0.0000    12.0000 </r>
       <r>   -32.3791     0.0000    12.0000 </r>
       <r>   -32.1383     0.0000    12.0000 </r>
       <r>   -31.8975     0.0000    12.0000 </r>
       <r>   -31.6567     0.0000    12.0000 </r>
       <r>   -31.4159     0.0000    12.0000 </r>
       <r>   -31.1751     0.0000    12.0000 </r>
       <r>   -30.9343     0.0000    12.0000 </r>
       <r>   -30.6935     0.0000    12.0000 </r>
       <r>   -30.4527     0.0000    12.0000 </r>
       <r>   -30.2119     0.0000    12.0000 </r>
       <r>   -29.9711     0.0000    12.0000 </r>
       <r>   -29.7303     0.0000    12.0000 </r>
       <r>   -29.4895     0.0000    12.0000 </r>
       <r>   -29.2487     0.0000    12.0000 </r>
       <r>   -29.0080     0.0000    12.0000 </r>
       <r>   -28.7672    29.3023    20.0558 </r>
       <r>   -28.5264    49.8301    47.9988 </r>
       <r>   -28.2856     0.0000    48.0000 </r>
       <r>   -28.0448     0.0000    48.0000 </r>
       <r>   -27.8040     0.0000    48.0000 </r>
       <r>   -27.5632     0.0000    48.0000 </r>
       <r>   -27.3224     0.0000    48.0000 </r>
       <r>   -27.0816     0.0000    48.0000 </r>
       <r>   -26.8408     0.0000    48.0000 </r>
       <r>   -26.6000     0.0000    48.0000 </r>
       <r>   -26.3592     0.0000    48.0000 </r>
       <r>   -26.1184     0.0000    48.0000 </r>
       <r>   -25.8776     0.0000    48.0000 </r>
       <r>   -25.6368     0.0000    48.0000 </r>
       <r>   -25.3960     0.0000    48.0000 </r>
       <r>   -25.1552     0.0000    48.0000 </r>
       <r>   -24.9144     0.0000    48.0000 </r>
       <r>   -24.6736     0.0000    48.0000 </r>
       <r>   -24.4329     0.0000    48.0000 </r>
       <r>   -24.1921     0.0000    48.0000 </r>
       <r>   -23.9513     0.0000    48.0000 </r>
       <r>   -23.7105     0.0000    48.0000 </r>
       <r>   -23.4697     0.0000    48.0000 </r>
       <r>   -23.2289     0.0000    48.0000 </r>
       <r>   -22.9881     0.0000    48.0000 </r>
       <r>   -22.7473     0.0000    48.0000 </r>
       <r>   -22.5065     0.0000    48.0000 </r>
       <r>   -22.2657     0.0000    48.0000 </r>
       <r>   -22.0249     0.0000    48.0000 </r>
       <r>   -21.7841     0.0000    48.0000 </r>
       <r>   -21.5433     0.0000    48.0000 </r>
       <r>   -21.3025     0.0000    48.0000 </r>
       <r>   -21.0617     0.0000    48.0000 </r>
       <r>   -20.8209     0.0000    48.0000 </r>
       <r>   -20.5801     0.0000    48.0000 </r>
       <r>   -20.3393     0.0000    48.0000 </r>
       <r>   -20.0985     0.0000    48.0000 </r>
       <r>   -19.8578     0.0000    48.0000 </r>
       <r>   -19.6170     0.0000    48.0000 </r>
       <r>   -19.3762     0.0000    48.0000 </r>
       <r>   -19.1354     0.0000    48.0000 </r>
       <r>   -18.8946     0.0000    48.0000 </r>
       <r>   -18.6538     0.0000    48.0000 </r>
       <r>   -18.4130     0.0000    48.0000 </r>
       <r>   -18.1722     0.0000    48.0000 </r>
       <r>   -17.9314     0.0000    48.0000 </r>
       <r>   -17.6906     0.0000    48.0000 </r>
       <r>   -17.4498     0.0000    48.0000 </r>
       <r>   -17.2090     0.0000    48.0000 </r>
       <r>   -16.9682     0.0000    48.0000 </r>
       <r>   -16.7274     0.0000    48.0000 </r>
       <r>   -16.4866     0.0000    48.0000 </r>
       <r>   -16.2458     0.0000    48.0000 </r>
       <r>   -16.0050     0.0000    48.0000 </r>
       <r>   -15.7642     0.0000    48.0000 </r>
       <r>   -15.5234     0.0000    48.0000 </r>
       <r>   -15.2827     0.0000    48.0000 </r>
       <r>   -15.0419     0.0000    48.0000 </r>
       <r>   -14.8011     0.0000    48.0000 </r>
       <r>   -14.5603     0.0000    48.0000 </r>
       <r>   -14.3195     0.0000    48.0000 </r>
       <r>   -14.0787     0.0000    48.0000 </r>
       <r>   -13.8379     0.0000    48.0000 </r>
       <r>   -13.5971     0.0000    48.0000 </r>
       <r>   -13.3563     0.0000    48.0000 </r>
       <r>   -13.1155     0.0000    48.0000 </r>
       <r>   -12.8747     0.0000    48.0000 </r>
       <r>   -12.6339     0.0000    48.0000 </r>
       <r>   -12.3931     0.0000    48.0000 </r>
       <r>   -12.1523     0.0000    48.0000 </r>
       <r>   -11.9115     0.0000    48.0000 </r>
       <r>   -11.6707     0.0000    48.0000 </r>
       <r>   -11.4299     0.0000    48.0000 </r>
       <r>   -11.1891     0.0000    48.0000 </r>
       <r>   -10.9483     0.0000    48.0000 </r>
       <r>   -10.7076     0.0000    48.0000 </r>
       <r>   -10.4668     0.0000    48.0000 </r>
       <r>   -10.2260     0.0000    48.0000 </r>
       <r>    -9.9852     0.0000    48.0000 </r>
       <r>    -9.7444     0.0000    48.0000 </r>
       <r>    -9.5036     0.0000    48.0000 </r>
       <r>    -9.2628     0.0000    48.0000 </r>
       <r>    -9.0220     0.0000    48.0000 </r>
       <r>    -8.7812     0.0000    48.0000 </r>
       <r>    -8.5404     0.0000    48.0000 </r>
       <r>    -8.2996     0.0000    48.0000 </r>
       <r>    -8.0588     0.0000    48.0000 </r>
       <r>    -7.8180     0.0000    48.0000 </r>
       <r>    -7.5772     0.0000    48.0000 </r>
       <r>    -7.3364     0.0000    48.0000 </r>
       <r>    -7.0956     0.0000    48.0000 </r>
       <r>    -6.8548     0.0000    48.0000 </r>
       <r>    -6.6140     0.0000    48.0000 </r>
       <r>    -6.3732     0.0000    48.0000 </r>
       <r>    -6.1325     0.0000    48.0000 </r>
       <r>    -5.8917     0.0000    48.0000 </r>
       <r>    -5.6509     0.0000    48.0000 </r>
       <r>    -5.4101     0.0000    48.0000 </r>
       <r>    -5.1693     0.0000    48.0000 </r>
       <r>    -4.9285     0.6785    48.1726 </r>
       <r>    -4.6877     2.5013    49.0190 </r>
       <r>    -4.4469     1.5014    49.6763 </r>
       <r>    -4.2061     1.5271    50.2566 </r>
       <r>    -3.9653     1.3916    50.7610 </r>
       <r>    -3.7245     1.5228    51.2741 </r>
       <r>    -3.4837     1.2987    51.9886 </r>
       <r>    -3.2429     0.0000    52.0000 </r>
       <r>    -3.0021     0.0000    52.0000 </r>
       <r>    -2.7613     0.0000    52.0000 </r>
       <r>    -2.5205     0.0679    52.0163 </r>
       <r>    -2.2797     1.0659    52.3122 </r>
       <r>    -2.0389     1.9942    53.0913 </r>
       <r>    -1.7981     1.8973    53.9384 </r>
       <r>    -1.5574     5.0217    55.6907 </r>
       <r>    -1.3166     5.0959    57.4122 </r>
       <r>    -1.0758     5.9361    59.4294 </r>
       <r>    -0.8350     1.6171    60.0838 </r>
       <r>    -0.5942     0.8539    60.3352 </r>
       <r>    -0.3534     1.8722    60.9416 </r>
       <r>    -0.1126     3.9086    62.0060 </r>
       <r>     0.1282     4.2781    63.6135 </r>
       <r>     0.3690     1.9269    64.4455 </r>
       <r>     0.6098     2.7291    65.1572 </r>
       <r>     0.8506     2.3059    66.0367 </r>
       <r>     1.0914     1.3003    67.0168 </r>
       <r>     1.3322     1.6896    67.7587 </r>
       <r>     1.5730     1.8300    68.3851 </r>
       <r>     1.8138     1.2970    69.1179 </r>
       <r>     2.0546     4.3274    70.7179 </r>
       <r>     2.2954     2.6218    71.8350 </r>
       <r>     2.5362     5.1722    73.3565 </r>
       <r>     2.7770     2.5345    74.5177 </r>
       <r>     3.0177     3.1299    76.4666 </r>
       <r>     3.2585     5.6537    78.3614 </r>
       <r>     3.4993     8.7788    81.5028 </r>
       <r>     3.7401     6.1422    83.7290 </r>
       <r>     3.9809     6.7933    86.5987 </r>
       <r>     4.2217     9.4023    89.5696 </r>
       <r>     4.4625    12.7857    93.9769 </r>
       <r>     4.7033     6.4113    96.2845 </r>
       <r>     4.9441     3.6738    98.2365 </r>
       <r>     5.1849     4.3419    99.9251 </r>
       <r>     5.4257     3.5924   102.0965 </r>
       <r>     5.6665     6.1679   104.4482 </r>
       <r>     5.9073     9.2099   107.4584 </r>
       <r>     6.1481     9.0744   110.7221 </r>
       <r>     6.3889     8.7048   114.1609 </r>
       <r>     6.6297    10.0733   117.5738 </r>
       <r>     6.8705     5.6124   120.0181 </r>
       <r>     7.1113     8.3029   123.1474 </r>
       <r>     7.3521     8.3456   126.1855 </r>
       <r>     7.5928    11.7879   130.1255 </r>
       <r>     7.8336     6.5627   132.9784 </r>
       <r>     8.0744     8.4598   135.6019 </r>
       <r>     8.3152     8.9957   138.8606 </r>
       <r>     8.5560     6.6921   141.3614 </r>
       <r>     8.7968     8.3262   144.7457 </r>
       <r>     9.0376     7.1037   147.8772 </r>
       <r>     9.2784     5.6458   150.3502 </r>
       <r>     9.5192     6.2905   152.5610 </r>
       <r>     9.7600     3.5401   153.8154 </r>
       <r>    10.0008     4.6029   155.2380 </r>
       <r>    10.2416     0.8171   155.8079 </r>
       <r>    10.4824     0.0385   156.0000 </r>
       <r>    10.7232     0.0000   156.0000 </r>
       <r>    10.9640     0.0000   156.0000 </r>
       <r>    11.2048     0.0000   156.0000 </r>
       <r>    11.4456     0.0000   156.0000 </r>
       <r>    11.6864     0.0000   156.0000 </r>
       <r>    11.9272     0.0000   156.0000 </r>
       <r>    12.1679     0.0000   156.0000 </r>
       <r>    12.4087     0.0000   156.0000 </r>
       <r>    12.6495     0.0000   156.0000 </r>
       <r>    12.8903     0.0000   156.0000 </r>
       <r>    13.1311     0.0000   156.0000 </r>
       <r>    13.3719     0.0000   156.0000 </r>
       <r>    13.6127     0.0000   156.0000 </r>
      </set>
     </set>
    </array>
   </total>
  </dos>
 </calculation>
 <structure name="finalpos" >
  <crystal>
   <varray name="basis" >
    <v>       6.97923737       0.00000000      -2.18782930 </v>
    <v>      -3.76532211       5.87640228      -2.18782930 </v>
    <v>       0.00000000       0.00000000       7.31412000 </v>
   </varray>
   <i name="volume">    299.97258773 </i>
   <varray name="rec_basis" >
    <v>       0.14328213       0.09180845       0.00000000 </v>
    <v>       0.00000000       0.17017215       0.00000000 </v>
    <v>       0.04285913       0.07836470       0.13672185 </v>
   </varray>
  </crystal>
  <varray name="positions" >
   <v>       0.13397000       0.63397000       0.76794000 </v>
   <v>       0.63397000       0.86603000       0.50000000 </v>
   <v>       0.36603000       0.13397000       0.50000000 </v>
   <v>       0.86603000       0.36603000       0.23206000 </v>
   <v>       0.62544000       0.12544000       0.75087000 </v>
   <v>       0.37456000       0.87456000       0.24913000 </v>
   <v>       0.87456000       0.62544000       0.50000000 </v>
   <v>       0.12544000       0.37456000       0.50000000 </v>
   <v>       0.00000000       0.00000000       0.00000000 </v>
   <v>       0.50000000       0.50000000       0.00000000 </v>
   <v>       0.05785000       0.25000000       0.80785000 </v>
   <v>       0.75000000       0.94215000       0.19215000 </v>
   <v>       0.44215000       0.25000000       0.19215000 </v>
   <v>       0.55785000       0.75000000       0.80785000 </v>
   <v>       0.25000000       0.44215000       0.19215000 </v>
   <v>       0.94215000       0.75000000       0.19215000 </v>
   <v>       0.75000000       0.55785000       0.80785000 </v>
   <v>       0.25000000       0.05785000       0.80785000 </v>
  </varray>
 </structure>
</modeling>
