<?xml version="1.0" encoding="ISO-8859-1"?>
<modeling>
 <generator>
  <i name="program" type="string">vasp </i>
  <i name="version" type="string">6.2.0  </i>
  <i name="subversion" type="string">18Jan21 (build Jan 05 2022 15:41:44) complex                          parallel </i>
  <i name="platform" type="string">LinuxIFC </i>
  <i name="date" type="string">2025 05 07 </i>
  <i name="time" type="string">14:20:51 </i>
 </generator>
 <incar>
  <i type="string" name="SYSTEM">routine with relax: pwdword</i>
  <i type="string" name="PREC">Acc</i>
  <i type="int" name="IALGO">    38</i>
  <i type="string" name="ALGO">A</i>
  <i type="logical" name="ADDGRID"> T  </i>
  <i type="int" name="ICHARG">     2</i>
  <i type="int" name="NELM">   100</i>
  <i type="int" name="NELMIN">     6</i>
  <i name="EDIFF">      0.00000000</i>
  <i type="int" name="NSW">     0</i>
  <i type="int" name="ISIF">    -1</i>
  <i name="ENCUT">    600.00000000</i>
  <i type="logical" name="LREAL"> F  </i>
  <i type="int" name="ISMEAR">     0</i>
  <i name="SIGMA">      0.02000000</i>
  <i type="logical" name="LASPH"> T  </i>
  <i type="string" name="METAGGA">R2SCAN</i>
  <i type="logical" name="LMIXTAU"> F  </i>
 </incar>
 <primitive_cell>
  <structure name="primitive_cell" >
   <crystal>
    <varray name="basis" >
     <v>       6.14430414       0.00000000      -2.85456795 </v>
     <v>      -2.50156275       5.61201008      -2.85456795 </v>
     <v>       0.00000000       0.00000000       6.77503000 </v>
    </varray>
    <i name="volume">    233.61588485 </i>
    <varray name="rec_basis" >
     <v>       0.16275236       0.07254713       0.00000000 </v>
     <v>       0.00000000       0.17818927       0.00000000 </v>
     <v>       0.06857352       0.10564442       0.14760082 </v>
    </varray>
   </crystal>
   <varray name="positions" >
    <v>       0.30462000       0.46560000       0.77022000 </v>
    <v>       0.69538000       0.53440000       0.22978000 </v>
    <v>       0.46560000       0.69538000       0.16099000 </v>
    <v>       0.53440000       0.30462000       0.83901000 </v>
    <v>       0.19538000       0.96560000       0.16099000 </v>
    <v>       0.80462000       0.03440000       0.83901000 </v>
    <v>       0.03440000       0.19538000       0.22978000 </v>
    <v>       0.96560000       0.80462000       0.77022000 </v>
    <v>       0.24455000       0.74455000       0.98911000 </v>
    <v>       0.50000000       0.00000000       0.50000000 </v>
    <v>       0.75545000       0.25545000       0.01089000 </v>
    <v>       0.74455000       0.75545000       0.50000000 </v>
    <v>       0.00000000       0.50000000       0.50000000 </v>
    <v>       0.25545000       0.24455000       0.50000000 </v>
    <v>       0.25000000       0.25000000       0.00000000 </v>
    <v>       0.75000000       0.75000000       0.00000000 </v>
   </varray>
  </structure>
  <varray name="primitive_index" >
   <v type="int" >        1 </v>
   <v type="int" >        2 </v>
   <v type="int" >        3 </v>
   <v type="int" >        4 </v>
   <v type="int" >        5 </v>
   <v type="int" >        6 </v>
   <v type="int" >        7 </v>
   <v type="int" >        8 </v>
   <v type="int" >        9 </v>
   <v type="int" >       10 </v>
   <v type="int" >       11 </v>
   <v type="int" >       12 </v>
   <v type="int" >       13 </v>
   <v type="int" >       14 </v>
   <v type="int" >       15 </v>
   <v type="int" >       16 </v>
  </varray>
 </primitive_cell>
 <kpoints>
  <generation param="Gamma">
   <v type="int" name="divisions">       6        6        7 </v>
   <v name="usershift">      0.00000000       0.00000000       0.00000000 </v>
   <v name="genvec1">      0.16666667       0.00000000       0.00000000 </v>
   <v name="genvec2">      0.00000000       0.16666667       0.00000000 </v>
   <v name="genvec3">      0.00000000      -0.00000000       0.14285714 </v>
   <v name="shift">      0.00000000       0.00000000       0.00000000 </v>
  </generation>
  <varray name="kpointlist" >
   <v>       0.00000000       0.00000000       0.00000000 </v>
   <v>       0.16666667      -0.00000000       0.00000000 </v>
   <v>       0.33333333      -0.00000000       0.00000000 </v>
   <v>       0.50000000      -0.00000000       0.00000000 </v>
   <v>       0.16666667       0.16666667       0.00000000 </v>
   <v>       0.33333333       0.16666667       0.00000000 </v>
   <v>       0.50000000       0.16666667       0.00000000 </v>
   <v>      -0.33333333       0.16666667       0.00000000 </v>
   <v>      -0.16666667       0.16666667       0.00000000 </v>
   <v>       0.33333333       0.33333333       0.00000000 </v>
   <v>       0.50000000       0.33333333       0.00000000 </v>
   <v>      -0.33333333       0.33333333       0.00000000 </v>
   <v>       0.50000000       0.50000000       0.00000000 </v>
   <v>      -0.00000000      -0.00000000       0.14285714 </v>
   <v>       0.16666667      -0.00000000       0.14285714 </v>
   <v>       0.33333333      -0.00000000       0.14285714 </v>
   <v>       0.50000000      -0.00000000       0.14285714 </v>
   <v>      -0.33333333       0.00000000       0.14285714 </v>
   <v>      -0.16666667       0.00000000       0.14285714 </v>
   <v>       0.16666667       0.16666667       0.14285714 </v>
   <v>       0.33333333       0.16666667       0.14285714 </v>
   <v>       0.50000000       0.16666667       0.14285714 </v>
   <v>      -0.33333333       0.16666667       0.14285714 </v>
   <v>      -0.16666667       0.16666667       0.14285714 </v>
   <v>       0.33333333       0.33333333       0.14285714 </v>
   <v>       0.50000000       0.33333333       0.14285714 </v>
   <v>      -0.33333333       0.33333333       0.14285714 </v>
   <v>      -0.16666667       0.33333333       0.14285714 </v>
   <v>       0.50000000       0.50000000       0.14285714 </v>
   <v>      -0.33333333       0.50000000       0.14285714 </v>
   <v>      -0.16666667       0.50000000       0.14285714 </v>
   <v>      -0.33333333      -0.33333333       0.14285714 </v>
   <v>      -0.16666667      -0.33333333       0.14285714 </v>
   <v>      -0.16666667      -0.16666667       0.14285714 </v>
   <v>       0.00000000      -0.00000000       0.28571429 </v>
   <v>       0.16666667      -0.00000000       0.28571429 </v>
   <v>       0.33333333      -0.00000000       0.28571429 </v>
   <v>       0.50000000      -0.00000000       0.28571429 </v>
   <v>      -0.33333333      -0.00000000       0.28571429 </v>
   <v>      -0.16666667      -0.00000000       0.28571429 </v>
   <v>       0.16666667       0.16666667       0.28571429 </v>
   <v>       0.33333333       0.16666667       0.28571429 </v>
   <v>       0.50000000       0.16666667       0.28571429 </v>
   <v>      -0.33333333       0.16666667       0.28571429 </v>
   <v>      -0.16666667       0.16666667       0.28571429 </v>
   <v>       0.33333333       0.33333333       0.28571429 </v>
   <v>       0.50000000       0.33333333       0.28571429 </v>
   <v>      -0.33333333       0.33333333       0.28571429 </v>
   <v>      -0.16666667       0.33333333       0.28571429 </v>
   <v>       0.50000000       0.50000000       0.28571429 </v>
   <v>      -0.33333333       0.50000000       0.28571429 </v>
   <v>      -0.16666667       0.50000000       0.28571429 </v>
   <v>      -0.33333333      -0.33333333       0.28571429 </v>
   <v>      -0.16666667      -0.33333333       0.28571429 </v>
   <v>      -0.16666667      -0.16666667       0.28571429 </v>
   <v>       0.00000000       0.00000000       0.42857143 </v>
   <v>       0.16666667      -0.00000000       0.42857143 </v>
   <v>       0.33333333      -0.00000000       0.42857143 </v>
   <v>       0.50000000      -0.00000000       0.42857143 </v>
   <v>      -0.33333333       0.00000000       0.42857143 </v>
   <v>      -0.16666667       0.00000000       0.42857143 </v>
   <v>       0.16666667       0.16666667       0.42857143 </v>
   <v>       0.33333333       0.16666667       0.42857143 </v>
   <v>       0.50000000       0.16666667       0.42857143 </v>
   <v>      -0.33333333       0.16666667       0.42857143 </v>
   <v>      -0.16666667       0.16666667       0.42857143 </v>
   <v>       0.33333333       0.33333333       0.42857143 </v>
   <v>       0.50000000       0.33333333       0.42857143 </v>
   <v>      -0.33333333       0.33333333       0.42857143 </v>
   <v>      -0.16666667       0.33333333       0.42857143 </v>
   <v>       0.50000000       0.50000000       0.42857143 </v>
   <v>      -0.33333333       0.50000000       0.42857143 </v>
   <v>      -0.16666667       0.50000000       0.42857143 </v>
   <v>      -0.33333333      -0.33333333       0.42857143 </v>
   <v>      -0.16666667      -0.33333333       0.42857143 </v>
   <v>      -0.16666667      -0.16666667       0.42857143 </v>
  </varray>
  <varray name="weights" >
   <v>       0.00396825 </v>
   <v>       0.01587302 </v>
   <v>       0.01587302 </v>
   <v>       0.00793651 </v>
   <v>       0.00793651 </v>
   <v>       0.01587302 </v>
   <v>       0.01587302 </v>
   <v>       0.01587302 </v>
   <v>       0.00793651 </v>
   <v>       0.00793651 </v>
   <v>       0.01587302 </v>
   <v>       0.00793651 </v>
   <v>       0.00396825 </v>
   <v>       0.00793651 </v>
   <v>       0.01587302 </v>
   <v>       0.01587302 </v>
   <v>       0.01587302 </v>
   <v>       0.01587302 </v>
   <v>       0.01587302 </v>
   <v>       0.00793651 </v>
   <v>       0.01587302 </v>
   <v>       0.01587302 </v>
   <v>       0.01587302 </v>
   <v>       0.01587302 </v>
   <v>       0.00793651 </v>
   <v>       0.01587302 </v>
   <v>       0.01587302 </v>
   <v>       0.01587302 </v>
   <v>       0.00793651 </v>
   <v>       0.01587302 </v>
   <v>       0.01587302 </v>
   <v>       0.00793651 </v>
   <v>       0.01587302 </v>
   <v>       0.00793651 </v>
   <v>       0.00793651 </v>
   <v>       0.01587302 </v>
   <v>       0.01587302 </v>
   <v>       0.01587302 </v>
   <v>       0.01587302 </v>
   <v>       0.01587302 </v>
   <v>       0.00793651 </v>
   <v>       0.01587302 </v>
   <v>       0.01587302 </v>
   <v>       0.01587302 </v>
   <v>       0.01587302 </v>
   <v>       0.00793651 </v>
   <v>       0.01587302 </v>
   <v>       0.01587302 </v>
   <v>       0.01587302 </v>
   <v>       0.00793651 </v>
   <v>       0.01587302 </v>
   <v>       0.01587302 </v>
   <v>       0.00793651 </v>
   <v>       0.01587302 </v>
   <v>       0.00793651 </v>
   <v>       0.00793651 </v>
   <v>       0.01587302 </v>
   <v>       0.01587302 </v>
   <v>       0.01587302 </v>
   <v>       0.01587302 </v>
   <v>       0.01587302 </v>
   <v>       0.00793651 </v>
   <v>       0.01587302 </v>
   <v>       0.01587302 </v>
   <v>       0.01587302 </v>
   <v>       0.01587302 </v>
   <v>       0.00793651 </v>
   <v>       0.01587302 </v>
   <v>       0.01587302 </v>
   <v>       0.01587302 </v>
   <v>       0.00793651 </v>
   <v>       0.01587302 </v>
   <v>       0.01587302 </v>
   <v>       0.00793651 </v>
   <v>       0.01587302 </v>
   <v>       0.00793651 </v>
  </varray>
 </kpoints>
 <parameters>
  <separator name="general" >
   <i type="string" name="SYSTEM">routine with relax: pwdword</i>
   <i type="logical" name="LCOMPAT"> F  </i>
  </separator>
  <separator name="electronic" >
   <i type="string" name="PREC">acc</i>
   <i name="ENMAX">    600.00000000</i>
   <i name="ENAUG">    535.51400000</i>
   <i name="EDIFF">      0.00000000</i>
   <i type="int" name="IALGO">    58</i>
   <i type="int" name="IWAVPR">    10</i>
   <i type="int" name="NBANDS">    72</i>
   <i type="int" name="NBANDSLOW">    -1</i>
   <i type="int" name="NBANDSHIGH">    -1</i>
   <i name="NELECT">    116.00000000</i>
   <i type="int" name="TURBO">     0</i>
   <i type="int" name="IRESTART">     0</i>
   <i type="int" name="NREBOOT">     0</i>
   <i type="int" name="NMIN">     0</i>
   <i name="EREF">      0.00000000</i>
   <separator name="electronic smearing" >
    <i type="int" name="ISMEAR">     0</i>
    <i name="SIGMA">      0.02000000</i>
    <i name="KSPACING">      0.50000000</i>
    <i type="logical" name="KGAMMA"> T  </i>
    <i type="logical" name="KBLOWUP"> F  </i>
   </separator>
   <separator name="electronic projectors" >
    <i type="logical" name="LREAL"> F  </i>
    <v name="ROPT">      0.00000000      0.00000000      0.00000000</v>
    <i type="int" name="LMAXPAW">  -100</i>
    <i type="int" name="LMAXMIX">     2</i>
    <i type="logical" name="NLSPLINE"> F  </i>
   </separator>
   <separator name="electronic startup" >
    <i type="int" name="ISTART">     0</i>
    <i type="int" name="ICHARG">     2</i>
    <i type="int" name="INIWAV">     1</i>
   </separator>
   <separator name="electronic spin" >
    <i type="int" name="ISPIN">     1</i>
    <i type="logical" name="LNONCOLLINEAR"> F  </i>
    <v name="MAGMOM">      1.00000000      1.00000000      1.00000000      1.00000000      1.00000000      1.00000000      1.00000000      1.00000000      1.00000000      1.00000000      1.00000000      1.00000000      1.00000000      1.00000000      1.00000000      1.00000000</v>
    <i name="NUPDOWN">     -1.00000000</i>
    <i type="logical" name="LSORBIT"> F  </i>
    <v name="SAXIS">      0.00000000      0.00000000      1.00000000</v>
    <i type="logical" name="LSPIRAL"> F  </i>
    <v name="QSPIRAL">      0.00000000      0.00000000      0.00000000</v>
    <i type="logical" name="LZEROZ"> F  </i>
   </separator>
   <separator name="electronic exchange-correlation" >
    <i type="logical" name="LASPH"> T  </i>
    <i type="logical" name="LMETAGGA"> F  </i>
   </separator>
   <separator name="electronic convergence" >
    <i type="int" name="NELM">   100</i>
    <i type="int" name="NELMDL">    -5</i>
    <i type="int" name="NELMIN">     6</i>
    <i name="ENINI">    600.00000000</i>
    <separator name="electronic convergence detail" >
     <i type="logical" name="LDIAG"> T  </i>
     <i type="logical" name="LSUBROT"> F  </i>
     <i name="WEIMIN">      0.00000000</i>
     <i name="EBREAK">      0.00000000</i>
     <i name="DEPER">      0.30000000</i>
     <i type="int" name="NRMM">     4</i>
     <i name="TIME">      0.40000000</i>
    </separator>
   </separator>
   <separator name="electronic mixer" >
    <i name="AMIX">      0.40000000</i>
    <i name="BMIX">      1.00000000</i>
    <i name="AMIN">      0.10000000</i>
    <i name="AMIX_MAG">      1.60000000</i>
    <i name="BMIX_MAG">      1.00000000</i>
    <separator name="electronic mixer details" >
     <i type="int" name="IMIX">     4</i>
     <i type="logical" name="MIXFIRST"> F  </i>
     <i type="int" name="MAXMIX">   -45</i>
     <i name="WC">    100.00000000</i>
     <i type="int" name="INIMIX">     1</i>
     <i type="int" name="MIXPRE">     1</i>
     <i type="int" name="MREMOVE">     5</i>
    </separator>
   </separator>
   <separator name="electronic dipolcorrection" >
    <i type="logical" name="LDIPOL"> F  </i>
    <i type="logical" name="LMONO"> F  </i>
    <i type="int" name="IDIPOL">     0</i>
    <i name="EPSILON">      1.00000000</i>
    <v name="DIPOL">   -100.00000000   -100.00000000   -100.00000000</v>
    <i name="EFIELD">      0.00000000</i>
   </separator>
  </separator>
  <separator name="grids" >
   <i type="int" name="NGX">    54</i>
   <i type="int" name="NGY">    54</i>
   <i type="int" name="NGZ">    54</i>
   <i type="int" name="NGXF">   108</i>
   <i type="int" name="NGYF">   108</i>
   <i type="int" name="NGZF">   108</i>
   <i type="logical" name="ADDGRID"> T  </i>
  </separator>
  <separator name="ionic" >
   <i type="int" name="NSW">     0</i>
   <i type="int" name="IBRION">    -1</i>
   <i type="int" name="MDALGO">     0</i>
   <i type="int" name="ISIF">    -1</i>
   <i name="PSTRESS">      0.00000000</i>
   <i name="EDIFFG">      0.00000001</i>
   <i type="int" name="NFREE">     0</i>
   <i name="POTIM">      0.50000000</i>
   <i name="SMASS">     -3.00000000</i>
   <i name="SCALEE">      1.00000000</i>
  </separator>
  <separator name="ionic md" >
   <i name="TEBEG">      0.00010000</i>
   <i name="TEEND">      0.00010000</i>
   <i type="int" name="NBLOCK">     1</i>
   <i type="int" name="KBLOCK">     1</i>
   <i type="int" name="NPACO">   256</i>
   <i name="APACO">     16.00000000</i>
  </separator>
  <separator name="symmetry" >
   <i type="int" name="ISYM">     2</i>
   <i name="SYMPREC">      0.00001000</i>
  </separator>
  <separator name="dos" >
   <i type="int" name="LORBIT">     0</i>
   <v name="RWIGS">     -1.00000000     -1.00000000     -1.00000000</v>
   <i type="int" name="NEDOS">   301</i>
   <i name="EMIN">     10.00000000</i>
   <i name="EMAX">    -10.00000000</i>
   <i name="EFERMI">      0.00000000</i>
  </separator>
  <separator name="writing" >
   <i type="int" name="NWRITE">     2</i>
   <i type="logical" name="LWAVE"> T  </i>
   <i type="logical" name="LDOWNSAMPLE"> F  </i>
   <i type="logical" name="LCHARG"> T  </i>
   <i type="logical" name="LPARD"> F  </i>
   <i type="logical" name="LVTOT"> F  </i>
   <i type="logical" name="LVHAR"> F  </i>
   <i type="logical" name="LELF"> F  </i>
   <i type="logical" name="LOPTICS"> F  </i>
   <v name="STM">      0.00000000      0.00000000      0.00000000      0.00000000      0.00000000      0.00000000      0.00000000</v>
  </separator>
  <separator name="performance" >
   <i type="int" name="NPAR">     6</i>
   <i type="int" name="NSIM">     4</i>
   <i type="int" name="NBLK">    -1</i>
   <i type="logical" name="LPLANE"> T  </i>
   <i type="logical" name="LSCALAPACK"> T  </i>
   <i type="logical" name="LSCAAWARE"> F  </i>
   <i type="logical" name="LSCALU"> F  </i>
   <i type="logical" name="LASYNC"> F  </i>
   <i type="logical" name="LORBITALREAL"> F  </i>
  </separator>
  <separator name="miscellaneous" >
   <i type="int" name="IDIOT">     3</i>
   <i type="int" name="PHON_NSTRUCT">    -1</i>
   <i type="logical" name="LMUSIC"> F  </i>
   <v name="POMASS">     10.81100000     95.94000000     28.08500000</v>
   <v name="DARWINR">      0.00000000      0.00000000      0.00000000</v>
   <v name="DARWINV">      1.00000000      1.00000000      1.00000000</v>
   <i type="logical" name="LCORR"> T  </i>
  </separator>
  <i type="logical" name="GGA_COMPAT"> T  </i>
  <i type="logical" name="LBERRY"> F  </i>
  <i type="int" name="ICORELEVEL">     0</i>
  <i type="logical" name="LDAU"> F  </i>
  <i type="int" name="I_CONSTRAINED_M">     0</i>
  <separator name="electronic exchange-correlation" >
   <i type="string" name="GGA">--</i>
   <i type="int" name="VOSKOWN">     0</i>
   <i type="logical" name="LHFCALC"> F  </i>
   <i type="string" name="PRECFOCK"></i>
   <i type="logical" name="LSYMGRAD"> F  </i>
   <i type="logical" name="LHFONE"> F  </i>
   <i type="logical" name="LRHFCALC"> F  </i>
   <i type="logical" name="LTHOMAS"> F  </i>
   <i type="logical" name="LMODELHF"> F  </i>
   <i type="logical" name="LFOCKACE"> F  </i>
   <i name="ENCUT4O">     -1.00000000</i>
   <i type="int" name="EXXOEP">     0</i>
   <i type="int" name="FOURORBIT">     0</i>
   <i name="AEXX">      0.00000000</i>
   <i name="HFALPHA">      0.00000000</i>
   <i name="MCALPHA">      0.00000000</i>
   <i name="ALDAX">      1.00000000</i>
   <i name="AGGAX">      1.00000000</i>
   <i name="ALDAC">      1.00000000</i>
   <i name="AGGAC">      1.00000000</i>
   <i type="int" name="NKREDX">     1</i>
   <i type="int" name="NKREDY">     1</i>
   <i type="int" name="NKREDZ">     1</i>
   <i type="logical" name="SHIFTRED"> F  </i>
   <i type="logical" name="ODDONLY"> F  </i>
   <i type="logical" name="EVENONLY"> F  </i>
   <i type="int" name="LMAXFOCK">     0</i>
   <i type="int" name="NMAXFOCKAE">     0</i>
   <i type="logical" name="LFOCKAEDFT"> F  </i>
   <i name="HFSCREEN">      0.00000000</i>
   <i name="HFSCREENC">      0.00000000</i>
   <i type="int" name="NBANDSGWLOW">     0</i>
  </separator>
  <separator name="vdW DFT" >
   <i type="logical" name="LUSE_VDW"> F  </i>
   <i name="Zab_VDW">     -0.84910000</i>
   <i name="PARAM1">      0.12340000</i>
   <i name="PARAM2">      1.00000000</i>
   <i name="PARAM3">      0.00000000</i>
  </separator>
  <separator name="model GW" >
   <i type="int" name="MODEL_GW">     0</i>
   <i name="MODEL_EPS0">      8.76059568</i>
   <i name="MODEL_ALPHA">      1.00000000</i>
  </separator>
  <separator name="linear response parameters" >
   <i type="logical" name="LEPSILON"> F  </i>
   <i type="logical" name="LRPA"> F  </i>
   <i type="logical" name="LNABLA"> F  </i>
   <i type="logical" name="LVEL"> F  </i>
   <i type="int" name="KINTER">     0</i>
   <i name="CSHIFT">      0.10000000</i>
   <i name="OMEGAMAX">     -1.00000000</i>
   <i name="DEG_THRESHOLD">      0.00200000</i>
   <i name="RTIME">     -0.10000000</i>
   <i name="WPLASMAI">      0.00000000</i>
   <v name="DFIELD">      0.00000000      0.00000000      0.00000000</v>
   <v name="WPLASMA">      0.00000000      0.00000000      0.00000000      0.00000000      0.00000000      0.00000000      0.00000000      0.00000000      0.00000000</v>
  </separator>
  <separator name="orbital magnetization" >
   <i type="logical" name="NUCIND"> F  </i>
   <v name="MAGPOS">      0.00000000      0.00000000      0.00000000</v>
   <i type="logical" name="LNICSALL"> T  </i>
   <i type="logical" name="ORBITALMAG"> F  </i>
   <i type="logical" name="LMAGBLOCH"> F  </i>
   <i type="logical" name="LCHIMAG"> F  </i>
   <i type="logical" name="LGAUGE"> T  </i>
   <i type="int" name="MAGATOM">     0</i>
   <v name="MAGDIPOL">      0.00000000      0.00000000      0.00000000</v>
   <v name="AVECCONST">      0.00000000      0.00000000      0.00000000</v>
  </separator>
  <separator name="response functions" >
   <i type="logical" name="LFINITE_TEMPERATURE"> F  </i>
   <i type="logical" name="LADDER"> F  </i>
   <i type="logical" name="LRPAFORCE"> F  </i>
   <i type="logical" name="LFXC"> F  </i>
   <i type="logical" name="LHARTREE"> T  </i>
   <i type="int" name="IBSE">     0</i>
   <v type="int" name="KPOINT">    -1     0     0     0</v>
   <i type="logical" name="LTCTC"> F  </i>
   <i type="logical" name="LTCTE"> F  </i>
   <i type="logical" name="LTETE"> F  </i>
   <i type="logical" name="LTRIPLET"> F  </i>
   <i type="logical" name="LFXCEPS"> F  </i>
   <i type="logical" name="LFXHEG"> F  </i>
   <i type="int" name="NATURALO">     2</i>
   <i type="logical" name="LHOLEGF"> F  </i>
   <i type="logical" name="L2ORDER"> F  </i>
   <i type="logical" name="LDMP1"> F  </i>
   <i type="logical" name="LMP2LT"> F  </i>
   <i type="logical" name="LSMP2LT"> F  </i>
   <i type="logical" name="LGWLF"> F  </i>
   <i name="ENCUTGW">     -2.00000000</i>
   <i name="ENCUTGWSOFT">     -2.00000000</i>
   <i name="ENCUTLF">     -1.00000000</i>
   <i type="logical" name="LESF_SPLINES"> F  </i>
   <i type="int" name="LMAXMP2">    -1</i>
   <i name="SCISSOR">      0.00000000</i>
   <i type="int" name="NOMEGA">     0</i>
   <i type="int" name="NOMEGAR">     0</i>
   <i type="int" name="NBANDSGW">    -1</i>
   <i type="int" name="NBANDSO">    -1</i>
   <i type="int" name="NBANDSV">    -1</i>
   <i type="int" name="NELM">   100</i>
   <i type="int" name="NELMHF">     1</i>
   <i type="int" name="DIM">     3</i>
   <i type="int" name="IESPILON">     4</i>
   <i type="int" name="ANTIRES">     0</i>
   <i name="OMEGAMAX">    -30.00000000</i>
   <i name="OMEGAMIN">    -30.00000000</i>
   <i name="OMEGATL">   -200.00000000</i>
   <i type="int" name="OMEGAGRID">     0</i>
   <i name="CSHIFT">     -0.10000000</i>
   <i type="logical" name="LSELFENERGY"> F  </i>
   <i type="logical" name="LSPECTRAL"> F  </i>
   <i type="logical" name="LSPECTRALGW"> F  </i>
   <i type="logical" name="LSINGLES"> F  </i>
   <i type="logical" name="LFERMIGW"> F  </i>
   <i type="logical" name="ODDONLYGW"> F  </i>
   <i type="logical" name="EVENONLYGW"> F  </i>
   <i type="int" name="NKREDLFX">     1</i>
   <i type="int" name="NKREDLFY">     1</i>
   <i type="int" name="NKREDLFZ">     1</i>
   <i type="int" name="MAXMEM">  2800</i>
   <i type="int" name="TELESCOPE">     0</i>
   <i type="int" name="NTAUPAR">    -1</i>
   <i type="int" name="NOMEGAPAR">    -1</i>
   <i name="DAMP_NEWTON">      0.80000001</i>
   <i name="LAMBDA">      1.00000000</i>
  </separator>
  <separator name="External order field" >
   <i name="OFIELD_KAPPA">      0.00000000</i>
   <v name="OFIELD_K">      0.00000000      0.00000000      0.00000000</v>
   <i name="OFIELD_Q6_NEAR">      0.00000000</i>
   <i name="OFIELD_Q6_FAR">      0.00000000</i>
   <i name="OFIELD_A">      0.00000000</i>
  </separator>
 </parameters>
 <atominfo>
  <atoms>      16 </atoms>
  <types>       3 </types>
  <array name="atoms" >
   <dimension dim="1">ion</dimension>
   <field type="string">element</field>
   <field type="int">atomtype</field>
   <set>
    <rc><c>B </c><c>   1</c></rc>
    <rc><c>B </c><c>   1</c></rc>
    <rc><c>B </c><c>   1</c></rc>
    <rc><c>B </c><c>   1</c></rc>
    <rc><c>B </c><c>   1</c></rc>
    <rc><c>B </c><c>   1</c></rc>
    <rc><c>B </c><c>   1</c></rc>
    <rc><c>B </c><c>   1</c></rc>
    <rc><c>Mo</c><c>   2</c></rc>
    <rc><c>Mo</c><c>   2</c></rc>
    <rc><c>Mo</c><c>   2</c></rc>
    <rc><c>Mo</c><c>   2</c></rc>
    <rc><c>Mo</c><c>   2</c></rc>
    <rc><c>Mo</c><c>   2</c></rc>
    <rc><c>Si</c><c>   3</c></rc>
    <rc><c>Si</c><c>   3</c></rc>
   </set>
  </array>
  <array name="atomtypes" >
   <dimension dim="1">type</dimension>
   <field type="int">atomspertype</field>
   <field type="string">element</field>
   <field>mass</field>
   <field>valence</field>
   <field type="string">pseudopotential</field>
   <set>
    <rc><c>   8</c><c>B </c><c>     10.81100000</c><c>      3.00000000</c><c>  PAW_PBE B 06Sep2000                   </c></rc>
    <rc><c>   6</c><c>Mo</c><c>     95.94000000</c><c>     14.00000000</c><c>  PAW_PBE Mo_sv 02Feb2006               </c></rc>
    <rc><c>   2</c><c>Si</c><c>     28.08500000</c><c>      4.00000000</c><c>  PAW_PBE Si 05Jan2001                  </c></rc>
   </set>
  </array>
 </atominfo>
 <structure name="initialpos" >
  <crystal>
   <varray name="basis" >
    <v>       6.14430414       0.00000000      -2.85456795 </v>
    <v>      -2.50156275       5.61201008      -2.85456795 </v>
    <v>       0.00000000       0.00000000       6.77503000 </v>
   </varray>
   <i name="volume">    233.61588485 </i>
   <varray name="rec_basis" >
    <v>       0.16275236       0.07254713       0.00000000 </v>
    <v>       0.00000000       0.17818927       0.00000000 </v>
    <v>       0.06857352       0.10564442       0.14760082 </v>
   </varray>
  </crystal>
  <varray name="positions" >
   <v>       0.30462000       0.46560000       0.77022000 </v>
   <v>       0.69538000       0.53440000       0.22978000 </v>
   <v>       0.46560000       0.69538000       0.16099000 </v>
   <v>       0.53440000       0.30462000       0.83901000 </v>
   <v>       0.19538000       0.96560000       0.16099000 </v>
   <v>       0.80462000       0.03440000       0.83901000 </v>
   <v>       0.03440000       0.19538000       0.22978000 </v>
   <v>       0.96560000       0.80462000       0.77022000 </v>
   <v>       0.24455000       0.74455000       0.98911000 </v>
   <v>       0.50000000       0.00000000       0.50000000 </v>
   <v>       0.75545000       0.25545000       0.01089000 </v>
   <v>       0.74455000       0.75545000       0.50000000 </v>
   <v>       0.00000000       0.50000000       0.50000000 </v>
   <v>       0.25545000       0.24455000       0.50000000 </v>
   <v>       0.25000000       0.25000000       0.00000000 </v>
   <v>       0.75000000       0.75000000       0.00000000 </v>
  </varray>
 </structure>
 <calculation>
  <scstep>
   <time name="total">   24.66   24.93</time>
   <energy>
    <i name="alphaZ">    491.61813810 </i>
    <i name="ewald">  -7595.41514026 </i>
    <i name="hartreedc">  -3986.42506215 </i>
    <i name="XCdc">    521.02015083 </i>
    <i name="pawpsdc">   9417.46121024 </i>
    <i name="pawaedc">  -9379.23717351 </i>
    <i name="eentropy">     -0.00143467 </i>
    <i name="bandstr">   -255.41612223 </i>
    <i name="atom">  11949.18504973 </i>
    <i name="e_fr_energy">   1162.78961608 </i>
    <i name="e_wo_entrp">   1162.79105075 </i>
    <i name="e_0_energy">   1162.79033342 </i>
   </energy>
  </scstep>
  <scstep>
   <time name="total">   25.32   25.58</time>
   <energy>
    <i name="e_fr_energy">   -187.23160577 </i>
    <i name="e_wo_entrp">   -187.23036049 </i>
    <i name="e_0_energy">   -187.23098313 </i>
   </energy>
  </scstep>
  <scstep>
   <time name="total">   29.24   29.53</time>
   <energy>
    <i name="e_fr_energy">   -249.36400455 </i>
    <i name="e_wo_entrp">   -249.36051265 </i>
    <i name="e_0_energy">   -249.36225860 </i>
   </energy>
  </scstep>
  <scstep>
   <time name="total">   28.27   28.57</time>
   <energy>
    <i name="e_fr_energy">   -250.86832781 </i>
    <i name="e_wo_entrp">   -250.86428941 </i>
    <i name="e_0_energy">   -250.86630861 </i>
   </energy>
  </scstep>
  <scstep>
   <time name="total">   31.05   31.37</time>
   <energy>
    <i name="e_fr_energy">   -250.90313821 </i>
    <i name="e_wo_entrp">   -250.89909175 </i>
    <i name="e_0_energy">   -250.90111498 </i>
   </energy>
  </scstep>
  <scstep>
   <time name="total">   32.23   32.56</time>
   <energy>
    <i name="e_fr_energy">   -139.08317223 </i>
    <i name="e_wo_entrp">   -139.08117636 </i>
    <i name="e_0_energy">   -139.08217430 </i>
   </energy>
  </scstep>
  <scstep>
   <time name="total">   34.74   35.04</time>
   <energy>
    <i name="e_fr_energy">   -180.47039734 </i>
    <i name="e_wo_entrp">   -180.46812716 </i>
    <i name="e_0_energy">   -180.46926225 </i>
   </energy>
  </scstep>
  <scstep>
   <time name="total">   35.73   36.02</time>
   <energy>
    <i name="e_fr_energy">   -188.26981761 </i>
    <i name="e_wo_entrp">   -188.26755680 </i>
    <i name="e_0_energy">   -188.26868721 </i>
   </energy>
  </scstep>
  <scstep>
   <time name="total">   33.74   34.03</time>
   <energy>
    <i name="e_fr_energy">   -189.97648668 </i>
    <i name="e_wo_entrp">   -189.97400579 </i>
    <i name="e_0_energy">   -189.97524623 </i>
   </energy>
  </scstep>
  <scstep>
   <time name="total">   33.44   33.73</time>
   <energy>
    <i name="e_fr_energy">   -190.79527252 </i>
    <i name="e_wo_entrp">   -190.79350508 </i>
    <i name="e_0_energy">   -190.79438880 </i>
   </energy>
  </scstep>
  <scstep>
   <time name="total">   35.01   35.30</time>
   <energy>
    <i name="e_fr_energy">   -191.09611924 </i>
    <i name="e_wo_entrp">   -191.09454740 </i>
    <i name="e_0_energy">   -191.09533332 </i>
   </energy>
  </scstep>
  <scstep>
   <time name="total">   36.79   37.09</time>
   <energy>
    <i name="e_fr_energy">   -191.19643497 </i>
    <i name="e_wo_entrp">   -191.19482387 </i>
    <i name="e_0_energy">   -191.19562942 </i>
   </energy>
  </scstep>
  <scstep>
   <time name="total">   34.79   35.08</time>
   <energy>
    <i name="e_fr_energy">   -191.23618599 </i>
    <i name="e_wo_entrp">   -191.23445223 </i>
    <i name="e_0_energy">   -191.23531911 </i>
   </energy>
  </scstep>
  <scstep>
   <time name="total">   33.26   33.57</time>
   <energy>
    <i name="e_fr_energy">   -191.25177622 </i>
    <i name="e_wo_entrp">   -191.25004068 </i>
    <i name="e_0_energy">   -191.25090845 </i>
   </energy>
  </scstep>
  <scstep>
   <time name="total">   33.57   33.86</time>
   <energy>
    <i name="e_fr_energy">   -191.26066199 </i>
    <i name="e_wo_entrp">   -191.25895919 </i>
    <i name="e_0_energy">   -191.25981059 </i>
   </energy>
  </scstep>
  <scstep>
   <time name="total">   33.94   34.23</time>
   <energy>
    <i name="e_fr_energy">   -191.26473802 </i>
    <i name="e_wo_entrp">   -191.26307152 </i>
    <i name="e_0_energy">   -191.26390477 </i>
   </energy>
  </scstep>
  <scstep>
   <time name="total">   34.82   35.12</time>
   <energy>
    <i name="e_fr_energy">   -191.26651045 </i>
    <i name="e_wo_entrp">   -191.26487779 </i>
    <i name="e_0_energy">   -191.26569412 </i>
   </energy>
  </scstep>
  <scstep>
   <time name="total">   35.41   35.72</time>
   <energy>
    <i name="e_fr_energy">   -191.26734132 </i>
    <i name="e_wo_entrp">   -191.26574500 </i>
    <i name="e_0_energy">   -191.26654316 </i>
   </energy>
  </scstep>
  <scstep>
   <time name="total">   35.44   35.74</time>
   <energy>
    <i name="e_fr_energy">   -191.26773020 </i>
    <i name="e_wo_entrp">   -191.26615362 </i>
    <i name="e_0_energy">   -191.26694191 </i>
   </energy>
  </scstep>
  <scstep>
   <time name="total">   34.39   34.70</time>
   <energy>
    <i name="e_fr_energy">   -191.26791900 </i>
    <i name="e_wo_entrp">   -191.26635984 </i>
    <i name="e_0_energy">   -191.26713942 </i>
   </energy>
  </scstep>
  <scstep>
   <time name="total">   33.27   33.55</time>
   <energy>
    <i name="e_fr_energy">   -191.26801919 </i>
    <i name="e_wo_entrp">   -191.26646382 </i>
    <i name="e_0_energy">   -191.26724151 </i>
   </energy>
  </scstep>
  <scstep>
   <time name="total">   35.02   35.32</time>
   <energy>
    <i name="e_fr_energy">   -191.26806206 </i>
    <i name="e_wo_entrp">   -191.26650767 </i>
    <i name="e_0_energy">   -191.26728486 </i>
   </energy>
  </scstep>
  <scstep>
   <time name="total">   35.32   35.62</time>
   <energy>
    <i name="e_fr_energy">   -191.26808595 </i>
    <i name="e_wo_entrp">   -191.26652994 </i>
    <i name="e_0_energy">   -191.26730794 </i>
   </energy>
  </scstep>
  <scstep>
   <time name="total">   33.42   33.70</time>
   <energy>
    <i name="e_fr_energy">   -191.26809810 </i>
    <i name="e_wo_entrp">   -191.26654119 </i>
    <i name="e_0_energy">   -191.26731965 </i>
   </energy>
  </scstep>
  <scstep>
   <time name="total">   34.13   34.42</time>
   <energy>
    <i name="e_fr_energy">   -191.26810291 </i>
    <i name="e_wo_entrp">   -191.26654405 </i>
    <i name="e_0_energy">   -191.26732348 </i>
   </energy>
  </scstep>
  <scstep>
   <time name="total">   35.95   36.25</time>
   <energy>
    <i name="e_fr_energy">   -191.26810591 </i>
    <i name="e_wo_entrp">   -191.26654607 </i>
    <i name="e_0_energy">   -191.26732599 </i>
   </energy>
  </scstep>
  <scstep>
   <time name="total">   35.45   35.74</time>
   <energy>
    <i name="e_fr_energy">   -191.26810720 </i>
    <i name="e_wo_entrp">   -191.26654631 </i>
    <i name="e_0_energy">   -191.26732675 </i>
   </energy>
  </scstep>
  <scstep>
   <time name="total">   34.07   34.37</time>
   <energy>
    <i name="e_fr_energy">   -191.26810790 </i>
    <i name="e_wo_entrp">   -191.26654674 </i>
    <i name="e_0_energy">   -191.26732732 </i>
   </energy>
  </scstep>
  <scstep>
   <time name="total">   35.62   35.92</time>
   <energy>
    <i name="e_fr_energy">   -191.26810825 </i>
    <i name="e_wo_entrp">   -191.26654691 </i>
    <i name="e_0_energy">   -191.26732758 </i>
   </energy>
  </scstep>
  <scstep>
   <time name="total">   34.98   35.27</time>
   <energy>
    <i name="e_fr_energy">   -191.26810843 </i>
    <i name="e_wo_entrp">   -191.26654707 </i>
    <i name="e_0_energy">   -191.26732775 </i>
   </energy>
  </scstep>
  <scstep>
   <time name="total">   36.25   36.55</time>
   <energy>
    <i name="e_fr_energy">   -191.26810853 </i>
    <i name="e_wo_entrp">   -191.26654712 </i>
    <i name="e_0_energy">   -191.26732783 </i>
   </energy>
  </scstep>
  <scstep>
   <time name="total">   36.23   36.53</time>
   <energy>
    <i name="e_fr_energy">   -191.26810857 </i>
    <i name="e_wo_entrp">   -191.26654716 </i>
    <i name="e_0_energy">   -191.26732787 </i>
   </energy>
  </scstep>
  <scstep>
   <time name="total">   35.30   35.60</time>
   <energy>
    <i name="e_fr_energy">   -191.26810858 </i>
    <i name="e_wo_entrp">   -191.26654719 </i>
    <i name="e_0_energy">   -191.26732789 </i>
   </energy>
  </scstep>
  <scstep>
   <time name="total">   35.31   35.61</time>
   <energy>
    <i name="e_fr_energy">   -191.26810859 </i>
    <i name="e_wo_entrp">   -191.26654720 </i>
    <i name="e_0_energy">   -191.26732790 </i>
   </energy>
  </scstep>
  <scstep>
   <time name="total">   37.67   37.96</time>
   <energy>
    <i name="e_fr_energy">   -191.26810859 </i>
    <i name="e_wo_entrp">   -191.26654722 </i>
    <i name="e_0_energy">   -191.26732790 </i>
   </energy>
  </scstep>
  <scstep>
   <time name="total">   36.96   37.26</time>
   <energy>
    <i name="e_fr_energy">   -191.26810859 </i>
    <i name="e_wo_entrp">   -191.26654723 </i>
    <i name="e_0_energy">   -191.26732791 </i>
   </energy>
  </scstep>
  <scstep>
   <time name="total">   35.82   36.12</time>
   <energy>
    <i name="e_fr_energy">   -191.26810859 </i>
    <i name="e_wo_entrp">   -191.26654724 </i>
    <i name="e_0_energy">   -191.26732792 </i>
   </energy>
  </scstep>
  <scstep>
   <time name="total">   34.82   35.12</time>
   <energy>
    <i name="e_fr_energy">   -191.26810859 </i>
    <i name="e_wo_entrp">   -191.26654725 </i>
    <i name="e_0_energy">   -191.26732792 </i>
   </energy>
  </scstep>
  <scstep>
   <time name="total">   36.21   36.51</time>
   <energy>
    <i name="e_fr_energy">   -191.26810859 </i>
    <i name="e_wo_entrp">   -191.26654727 </i>
    <i name="e_0_energy">   -191.26732793 </i>
   </energy>
  </scstep>
  <scstep>
   <time name="total">   34.93   35.22</time>
   <energy>
    <i name="e_fr_energy">   -191.26810859 </i>
    <i name="e_wo_entrp">   -191.26654727 </i>
    <i name="e_0_energy">   -191.26732793 </i>
   </energy>
  </scstep>
  <scstep>
   <time name="total">   40.33   40.67</time>
   <energy>
    <i name="alphaZ">    491.61813810 </i>
    <i name="ewald">  -7595.41514026 </i>
    <i name="hartreedc">  -4023.20297419 </i>
    <i name="XCdc">    538.03059039 </i>
    <i name="pawpsdc">  16024.30753473 </i>
    <i name="pawaedc"> -16002.88446602 </i>
    <i name="eentropy">     -0.00156132 </i>
    <i name="bandstr">  -1572.90527975 </i>
    <i name="atom">  11949.18504973 </i>
    <i name="e_fr_energy">   -191.26810859 </i>
    <i name="e_wo_entrp">   -191.26654728 </i>
    <i name="e_0_energy">   -191.26732793 </i>
   </energy>
  </scstep>
  <structure>
   <crystal>
    <varray name="basis" >
     <v>       6.14430414       0.00000000      -2.85456795 </v>
     <v>      -2.50156275       5.61201008      -2.85456795 </v>
     <v>       0.00000000       0.00000000       6.77503000 </v>
    </varray>
    <i name="volume">    233.61588485 </i>
    <varray name="rec_basis" >
     <v>       0.16275236       0.07254713       0.00000000 </v>
     <v>       0.00000000       0.17818927       0.00000000 </v>
     <v>       0.06857352       0.10564442       0.14760082 </v>
    </varray>
   </crystal>
   <varray name="positions" >
    <v>       0.30462000       0.46560000       0.77022000 </v>
    <v>       0.69538000       0.53440000       0.22978000 </v>
    <v>       0.46560000       0.69538000       0.16099000 </v>
    <v>       0.53440000       0.30462000       0.83901000 </v>
    <v>       0.19538000       0.96560000       0.16099000 </v>
    <v>       0.80462000       0.03440000       0.83901000 </v>
    <v>       0.03440000       0.19538000       0.22978000 </v>
    <v>       0.96560000       0.80462000       0.77022000 </v>
    <v>       0.24455000       0.74455000       0.98911000 </v>
    <v>       0.50000000       0.00000000       0.50000000 </v>
    <v>       0.75545000       0.25545000       0.01089000 </v>
    <v>       0.74455000       0.75545000       0.50000000 </v>
    <v>       0.00000000       0.50000000       0.50000000 </v>
    <v>       0.25545000       0.24455000       0.50000000 </v>
    <v>       0.25000000       0.25000000       0.00000000 </v>
    <v>       0.75000000       0.75000000       0.00000000 </v>
   </varray>
  </structure>
  <varray name="forces" >
   <v>       0.00000000       0.00000000       0.00000000 </v>
   <v>       0.00000000       0.00000000       0.00000000 </v>
   <v>       0.00000000       0.00000000       0.00000000 </v>
   <v>       0.00000000       0.00000000       0.00000000 </v>
   <v>       0.00000000       0.00000000       0.00000000 </v>
   <v>       0.00000000       0.00000000       0.00000000 </v>
   <v>       0.00000000       0.00000000       0.00000000 </v>
   <v>       0.00000000       0.00000000       0.00000000 </v>
   <v>       0.00000000       0.00000000       0.00000000 </v>
   <v>       0.00000000       0.00000000       0.00000000 </v>
   <v>       0.00000000       0.00000000       0.00000000 </v>
   <v>       0.00000000       0.00000000       0.00000000 </v>
   <v>       0.00000000       0.00000000       0.00000000 </v>
   <v>       0.00000000       0.00000000       0.00000000 </v>
   <v>       0.00000000       0.00000000       0.00000000 </v>
   <v>       0.00000000       0.00000000       0.00000000 </v>
  </varray>
  <varray name="stress" >
   <v>       0.00000000       0.00000000       0.00000000 </v>
   <v>       0.00000000       0.00000000       0.00000000 </v>
   <v>       0.00000000       0.00000000       0.00000000 </v>
  </varray>
  <energy>
   <i name="e_fr_energy">   -191.26810859 </i>
   <i name="e_wo_entrp">   -191.26654728 </i>
   <i name="e_0_energy">   -191.26732793 </i>
  </energy>
  <time name="totalsc"> 1407.81 1420.05</time>
  <eigenvalues>
   <array>
    <dimension dim="1">band</dimension>
    <dimension dim="2">kpoint</dimension>
    <dimension dim="3">spin</dimension>
    <field>eigene</field>
    <field>occ</field>
    <set>
     <set comment="spin 1">
      <set comment="kpoint 1">
       <r>  -55.9856    1.0000 </r>
       <r>  -55.9223    1.0000 </r>
       <r>  -55.5131    1.0000 </r>
       <r>  -55.5087    1.0000 </r>
       <r>  -55.5085    1.0000 </r>
       <r>  -55.4405    1.0000 </r>
       <r>  -30.3047    1.0000 </r>
       <r>  -30.3039    1.0000 </r>
       <r>  -29.9986    1.0000 </r>
       <r>  -29.9925    1.0000 </r>
       <r>  -29.9691    1.0000 </r>
       <r>  -29.9641    1.0000 </r>
       <r>  -29.4366    1.0000 </r>
       <r>  -29.4324    1.0000 </r>
       <r>  -29.4311    1.0000 </r>
       <r>  -29.4223    1.0000 </r>
       <r>  -29.4086    1.0000 </r>
       <r>  -29.3732    1.0000 </r>
       <r>  -28.6901    1.0000 </r>
       <r>  -28.6891    1.0000 </r>
       <r>  -28.6724    1.0000 </r>
       <r>  -28.6639    1.0000 </r>
       <r>  -28.4435    1.0000 </r>
       <r>  -28.4430    1.0000 </r>
       <r>   -5.8622    1.0000 </r>
       <r>   -3.2668    1.0000 </r>
       <r>   -2.3444    1.0000 </r>
       <r>   -2.0716    1.0000 </r>
       <r>   -1.8187    1.0000 </r>
       <r>   -1.8180    1.0000 </r>
       <r>   -0.5350    1.0000 </r>
       <r>    0.6182    1.0000 </r>
       <r>    0.6229    1.0000 </r>
       <r>    0.6233    1.0000 </r>
       <r>    1.3986    1.0000 </r>
       <r>    1.5685    1.0000 </r>
       <r>    1.5694    1.0000 </r>
       <r>    1.6012    1.0000 </r>
       <r>    2.1694    1.0000 </r>
       <r>    2.2244    1.0000 </r>
       <r>    2.2244    1.0000 </r>
       <r>    2.2832    1.0000 </r>
       <r>    2.8395    1.0000 </r>
       <r>    2.8756    1.0000 </r>
       <r>    2.8763    1.0000 </r>
       <r>    2.9802    1.0000 </r>
       <r>    3.2225    1.0000 </r>
       <r>    4.8285    1.0000 </r>
       <r>    4.8296    1.0000 </r>
       <r>    5.0883    1.0000 </r>
       <r>    5.2327    1.0000 </r>
       <r>    5.2354    1.0000 </r>
       <r>    5.3242    1.0000 </r>
       <r>    5.4659    1.0000 </r>
       <r>    5.8667    1.0000 </r>
       <r>    6.4468    1.0000 </r>
       <r>    6.6634    1.0000 </r>
       <r>    7.0069    0.0000 </r>
       <r>    7.0089    0.0000 </r>
       <r>    7.0304    0.0000 </r>
       <r>    7.0310    0.0000 </r>
       <r>    7.4325    0.0000 </r>
       <r>    7.4330    0.0000 </r>
       <r>    7.4490    0.0000 </r>
       <r>    7.7208    0.0000 </r>
       <r>    8.1340    0.0000 </r>
       <r>    9.0729    0.0000 </r>
       <r>    9.0869    0.0000 </r>
       <r>    9.0874    0.0000 </r>
       <r>    9.3205    0.0000 </r>
       <r>    9.3577    0.0000 </r>
       <r>   10.5695    0.0000 </r>
      </set>
      <set comment="kpoint 2">
       <r>  -55.9820    1.0000 </r>
       <r>  -55.9270    1.0000 </r>
       <r>  -55.5122    1.0000 </r>
       <r>  -55.5097    1.0000 </r>
       <r>  -55.5032    1.0000 </r>
       <r>  -55.4445    1.0000 </r>
       <r>  -30.2781    1.0000 </r>
       <r>  -30.2767    1.0000 </r>
       <r>  -30.0009    1.0000 </r>
       <r>  -29.9950    1.0000 </r>
       <r>  -29.9689    1.0000 </r>
       <r>  -29.9639    1.0000 </r>
       <r>  -29.6480    1.0000 </r>
       <r>  -29.6277    1.0000 </r>
       <r>  -29.4353    1.0000 </r>
       <r>  -29.4100    1.0000 </r>
       <r>  -29.1984    1.0000 </r>
       <r>  -29.1730    1.0000 </r>
       <r>  -28.6888    1.0000 </r>
       <r>  -28.6876    1.0000 </r>
       <r>  -28.6735    1.0000 </r>
       <r>  -28.6655    1.0000 </r>
       <r>  -28.4749    1.0000 </r>
       <r>  -28.4731    1.0000 </r>
       <r>   -5.7548    1.0000 </r>
       <r>   -3.6592    1.0000 </r>
       <r>   -2.1336    1.0000 </r>
       <r>   -2.0015    1.0000 </r>
       <r>   -1.7427    1.0000 </r>
       <r>   -1.6492    1.0000 </r>
       <r>   -0.5396    1.0000 </r>
       <r>    0.0759    1.0000 </r>
       <r>    0.5541    1.0000 </r>
       <r>    0.6291    1.0000 </r>
       <r>    0.8163    1.0000 </r>
       <r>    1.4893    1.0000 </r>
       <r>    1.6382    1.0000 </r>
       <r>    1.9387    1.0000 </r>
       <r>    2.1047    1.0000 </r>
       <r>    2.2869    1.0000 </r>
       <r>    2.4204    1.0000 </r>
       <r>    2.7719    1.0000 </r>
       <r>    2.8423    1.0000 </r>
       <r>    2.8727    1.0000 </r>
       <r>    3.0258    1.0000 </r>
       <r>    3.0936    1.0000 </r>
       <r>    3.2896    1.0000 </r>
       <r>    4.3907    1.0000 </r>
       <r>    4.9779    1.0000 </r>
       <r>    5.0055    1.0000 </r>
       <r>    5.2544    1.0000 </r>
       <r>    5.2677    1.0000 </r>
       <r>    5.4908    1.0000 </r>
       <r>    5.5612    1.0000 </r>
       <r>    6.0795    1.0000 </r>
       <r>    6.4271    1.0000 </r>
       <r>    6.4590    1.0000 </r>
       <r>    6.6593    1.0000 </r>
       <r>    6.9689    0.0000 </r>
       <r>    7.0570    0.0000 </r>
       <r>    7.1596    0.0000 </r>
       <r>    7.2849    0.0000 </r>
       <r>    7.4703    0.0000 </r>
       <r>    7.7351    0.0000 </r>
       <r>    7.7847    0.0000 </r>
       <r>    7.9649    0.0000 </r>
       <r>    8.8647    0.0000 </r>
       <r>    9.0508    0.0000 </r>
       <r>    9.1442    0.0000 </r>
       <r>    9.2924    0.0000 </r>
       <r>    9.4013    0.0000 </r>
       <r>   10.4100    0.0000 </r>
      </set>
      <set comment="kpoint 3">
       <r>  -55.9719    1.0000 </r>
       <r>  -55.9393    1.0000 </r>
       <r>  -55.5116    1.0000 </r>
       <r>  -55.5100    1.0000 </r>
       <r>  -55.4898    1.0000 </r>
       <r>  -55.4560    1.0000 </r>
       <r>  -30.2025    1.0000 </r>
       <r>  -30.1984    1.0000 </r>
       <r>  -30.0156    1.0000 </r>
       <r>  -30.0100    1.0000 </r>
       <r>  -29.9675    1.0000 </r>
       <r>  -29.9626    1.0000 </r>
       <r>  -29.8331    1.0000 </r>
       <r>  -29.8181    1.0000 </r>
       <r>  -29.4320    1.0000 </r>
       <r>  -29.4135    1.0000 </r>
       <r>  -28.9875    1.0000 </r>
       <r>  -28.9682    1.0000 </r>
       <r>  -28.6857    1.0000 </r>
       <r>  -28.6835    1.0000 </r>
       <r>  -28.6760    1.0000 </r>
       <r>  -28.6699    1.0000 </r>
       <r>  -28.5605    1.0000 </r>
       <r>  -28.5550    1.0000 </r>
       <r>   -5.4414    1.0000 </r>
       <r>   -4.3230    1.0000 </r>
       <r>   -1.8281    1.0000 </r>
       <r>   -1.8214    1.0000 </r>
       <r>   -1.5106    1.0000 </r>
       <r>   -1.3693    1.0000 </r>
       <r>   -0.5974    1.0000 </r>
       <r>   -0.5773    1.0000 </r>
       <r>   -0.0378    1.0000 </r>
       <r>    0.1690    1.0000 </r>
       <r>    0.9763    1.0000 </r>
       <r>    1.5283    1.0000 </r>
       <r>    1.7180    1.0000 </r>
       <r>    1.8691    1.0000 </r>
       <r>    2.2477    1.0000 </r>
       <r>    2.3093    1.0000 </r>
       <r>    2.5899    1.0000 </r>
       <r>    2.6352    1.0000 </r>
       <r>    2.7417    1.0000 </r>
       <r>    3.2810    1.0000 </r>
       <r>    3.5486    1.0000 </r>
       <r>    3.6769    1.0000 </r>
       <r>    3.8556    1.0000 </r>
       <r>    3.8591    1.0000 </r>
       <r>    4.6447    1.0000 </r>
       <r>    4.9559    1.0000 </r>
       <r>    5.2009    1.0000 </r>
       <r>    5.3453    1.0000 </r>
       <r>    5.5723    1.0000 </r>
       <r>    5.7728    1.0000 </r>
       <r>    5.8552    1.0000 </r>
       <r>    5.9568    1.0000 </r>
       <r>    6.5147    1.0000 </r>
       <r>    6.7826    0.0000 </r>
       <r>    6.8119    0.0000 </r>
       <r>    7.2385    0.0000 </r>
       <r>    7.3640    0.0000 </r>
       <r>    7.4809    0.0000 </r>
       <r>    7.5434    0.0000 </r>
       <r>    7.7825    0.0000 </r>
       <r>    7.9570    0.0000 </r>
       <r>    8.0032    0.0000 </r>
       <r>    8.6570    0.0000 </r>
       <r>    8.7058    0.0000 </r>
       <r>    8.9535    0.0000 </r>
       <r>    9.1896    0.0000 </r>
       <r>    9.6109    0.0000 </r>
       <r>   10.7507    0.0000 </r>
      </set>
      <set comment="kpoint 4">
       <r>  -55.9614    1.0000 </r>
       <r>  -55.9509    1.0000 </r>
       <r>  -55.5115    1.0000 </r>
       <r>  -55.5101    1.0000 </r>
       <r>  -55.4726    1.0000 </r>
       <r>  -55.4722    1.0000 </r>
       <r>  -30.1090    1.0000 </r>
       <r>  -30.1059    1.0000 </r>
       <r>  -30.0682    1.0000 </r>
       <r>  -30.0680    1.0000 </r>
       <r>  -29.9651    1.0000 </r>
       <r>  -29.9605    1.0000 </r>
       <r>  -29.9086    1.0000 </r>
       <r>  -29.9076    1.0000 </r>
       <r>  -29.4299    1.0000 </r>
       <r>  -29.4158    1.0000 </r>
       <r>  -28.8656    1.0000 </r>
       <r>  -28.8589    1.0000 </r>
       <r>  -28.6824    1.0000 </r>
       <r>  -28.6817    1.0000 </r>
       <r>  -28.6757    1.0000 </r>
       <r>  -28.6752    1.0000 </r>
       <r>  -28.6323    1.0000 </r>
       <r>  -28.6296    1.0000 </r>
       <r>   -4.9481    1.0000 </r>
       <r>   -4.9481    1.0000 </r>
       <r>   -1.6842    1.0000 </r>
       <r>   -1.6839    1.0000 </r>
       <r>   -1.1213    1.0000 </r>
       <r>   -1.1212    1.0000 </r>
       <r>   -1.0087    1.0000 </r>
       <r>   -1.0086    1.0000 </r>
       <r>   -0.1346    1.0000 </r>
       <r>   -0.1332    1.0000 </r>
       <r>    1.3024    1.0000 </r>
       <r>    1.3028    1.0000 </r>
       <r>    1.7757    1.0000 </r>
       <r>    1.7758    1.0000 </r>
       <r>    2.4124    1.0000 </r>
       <r>    2.4142    1.0000 </r>
       <r>    2.4845    1.0000 </r>
       <r>    2.4845    1.0000 </r>
       <r>    3.0704    1.0000 </r>
       <r>    3.0719    1.0000 </r>
       <r>    3.8733    1.0000 </r>
       <r>    3.8753    1.0000 </r>
       <r>    4.0413    1.0000 </r>
       <r>    4.0423    1.0000 </r>
       <r>    4.8577    1.0000 </r>
       <r>    4.8591    1.0000 </r>
       <r>    5.0090    1.0000 </r>
       <r>    5.0099    1.0000 </r>
       <r>    5.5147    1.0000 </r>
       <r>    5.5164    1.0000 </r>
       <r>    5.8075    1.0000 </r>
       <r>    5.8103    1.0000 </r>
       <r>    6.7101    0.7898 </r>
       <r>    6.7111    0.7682 </r>
       <r>    7.2823    0.0000 </r>
       <r>    7.2853    0.0000 </r>
       <r>    7.5222    0.0000 </r>
       <r>    7.5223    0.0000 </r>
       <r>    7.6397    0.0000 </r>
       <r>    7.6412    0.0000 </r>
       <r>    8.0888    0.0000 </r>
       <r>    8.0947    0.0000 </r>
       <r>    8.4844    0.0000 </r>
       <r>    8.4881    0.0000 </r>
       <r>    8.9638    0.0000 </r>
       <r>    8.9650    0.0000 </r>
       <r>    9.7720    0.0000 </r>
       <r>    9.8054    0.0000 </r>
      </set>
      <set comment="kpoint 5">
       <r>  -55.9788    1.0000 </r>
       <r>  -55.9310    1.0000 </r>
       <r>  -55.5132    1.0000 </r>
       <r>  -55.5099    1.0000 </r>
       <r>  -55.4974    1.0000 </r>
       <r>  -55.4484    1.0000 </r>
       <r>  -30.2974    1.0000 </r>
       <r>  -30.2101    1.0000 </r>
       <r>  -30.0007    1.0000 </r>
       <r>  -29.9978    1.0000 </r>
       <r>  -29.9703    1.0000 </r>
       <r>  -29.9621    1.0000 </r>
       <r>  -29.8369    1.0000 </r>
       <r>  -29.4346    1.0000 </r>
       <r>  -29.4245    1.0000 </r>
       <r>  -29.4108    1.0000 </r>
       <r>  -29.4006    1.0000 </r>
       <r>  -28.9769    1.0000 </r>
       <r>  -28.6890    1.0000 </r>
       <r>  -28.6840    1.0000 </r>
       <r>  -28.6750    1.0000 </r>
       <r>  -28.6672    1.0000 </r>
       <r>  -28.5568    1.0000 </r>
       <r>  -28.4448    1.0000 </r>
       <r>   -5.5834    1.0000 </r>
       <r>   -4.0479    1.0000 </r>
       <r>   -1.9221    1.0000 </r>
       <r>   -1.9123    1.0000 </r>
       <r>   -1.7688    1.0000 </r>
       <r>   -1.3501    1.0000 </r>
       <r>   -0.7811    1.0000 </r>
       <r>   -0.0480    1.0000 </r>
       <r>    0.1686    1.0000 </r>
       <r>    0.5842    1.0000 </r>
       <r>    0.5875    1.0000 </r>
       <r>    1.4383    1.0000 </r>
       <r>    1.4455    1.0000 </r>
       <r>    2.1307    1.0000 </r>
       <r>    2.1668    1.0000 </r>
       <r>    2.4798    1.0000 </r>
       <r>    2.5463    1.0000 </r>
       <r>    2.7572    1.0000 </r>
       <r>    2.8814    1.0000 </r>
       <r>    2.9996    1.0000 </r>
       <r>    3.0665    1.0000 </r>
       <r>    3.3427    1.0000 </r>
       <r>    3.8535    1.0000 </r>
       <r>    4.6099    1.0000 </r>
       <r>    4.6561    1.0000 </r>
       <r>    4.8041    1.0000 </r>
       <r>    5.1363    1.0000 </r>
       <r>    5.3682    1.0000 </r>
       <r>    5.6065    1.0000 </r>
       <r>    5.6741    1.0000 </r>
       <r>    6.0558    1.0000 </r>
       <r>    6.3636    1.0000 </r>
       <r>    6.4477    1.0000 </r>
       <r>    6.6103    1.0000 </r>
       <r>    6.7728    0.0001 </r>
       <r>    6.7965    0.0000 </r>
       <r>    7.0768    0.0000 </r>
       <r>    7.3868    0.0000 </r>
       <r>    7.5140    0.0000 </r>
       <r>    7.8702    0.0000 </r>
       <r>    7.9114    0.0000 </r>
       <r>    8.0613    0.0000 </r>
       <r>    8.7915    0.0000 </r>
       <r>    8.7961    0.0000 </r>
       <r>    9.2482    0.0000 </r>
       <r>    9.3273    0.0000 </r>
       <r>    9.4820    0.0000 </r>
       <r>   10.6415    0.0000 </r>
      </set>
      <set comment="kpoint 6">
       <r>  -55.9702    1.0000 </r>
       <r>  -55.9413    1.0000 </r>
       <r>  -55.5128    1.0000 </r>
       <r>  -55.5098    1.0000 </r>
       <r>  -55.4860    1.0000 </r>
       <r>  -55.4587    1.0000 </r>
       <r>  -30.2638    1.0000 </r>
       <r>  -30.1198    1.0000 </r>
       <r>  -30.0426    1.0000 </r>
       <r>  -30.0106    1.0000 </r>
       <r>  -29.9869    1.0000 </r>
       <r>  -29.9756    1.0000 </r>
       <r>  -29.9007    1.0000 </r>
       <r>  -29.6279    1.0000 </r>
       <r>  -29.4321    1.0000 </r>
       <r>  -29.4135    1.0000 </r>
       <r>  -29.1837    1.0000 </r>
       <r>  -28.8586    1.0000 </r>
       <r>  -28.6869    1.0000 </r>
       <r>  -28.6812    1.0000 </r>
       <r>  -28.6765    1.0000 </r>
       <r>  -28.6706    1.0000 </r>
       <r>  -28.6324    1.0000 </r>
       <r>  -28.4764    1.0000 </r>
       <r>   -5.2249    1.0000 </r>
       <r>   -4.5794    1.0000 </r>
       <r>   -1.9085    1.0000 </r>
       <r>   -1.7350    1.0000 </r>
       <r>   -1.4709    1.0000 </r>
       <r>   -1.1959    1.0000 </r>
       <r>   -0.9367    1.0000 </r>
       <r>   -0.7827    1.0000 </r>
       <r>    0.1249    1.0000 </r>
       <r>    0.2968    1.0000 </r>
       <r>    0.8146    1.0000 </r>
       <r>    1.2984    1.0000 </r>
       <r>    1.6278    1.0000 </r>
       <r>    2.0898    1.0000 </r>
       <r>    2.2335    1.0000 </r>
       <r>    2.4943    1.0000 </r>
       <r>    2.6732    1.0000 </r>
       <r>    2.7988    1.0000 </r>
       <r>    2.9166    1.0000 </r>
       <r>    3.0343    1.0000 </r>
       <r>    3.5058    1.0000 </r>
       <r>    3.7210    1.0000 </r>
       <r>    4.1253    1.0000 </r>
       <r>    4.3159    1.0000 </r>
       <r>    4.5310    1.0000 </r>
       <r>    4.6783    1.0000 </r>
       <r>    5.1916    1.0000 </r>
       <r>    5.4711    1.0000 </r>
       <r>    5.5908    1.0000 </r>
       <r>    5.6793    1.0000 </r>
       <r>    5.8401    1.0000 </r>
       <r>    6.0385    1.0000 </r>
       <r>    6.2216    1.0000 </r>
       <r>    6.7836    0.0000 </r>
       <r>    6.8299    0.0000 </r>
       <r>    6.9440    0.0000 </r>
       <r>    7.2941    0.0000 </r>
       <r>    7.4519    0.0000 </r>
       <r>    7.6360    0.0000 </r>
       <r>    7.8298    0.0000 </r>
       <r>    8.0328    0.0000 </r>
       <r>    8.2170    0.0000 </r>
       <r>    8.4898    0.0000 </r>
       <r>    8.7650    0.0000 </r>
       <r>    9.1095    0.0000 </r>
       <r>    9.2660    0.0000 </r>
       <r>    9.5658    0.0000 </r>
       <r>   10.3678    0.0000 </r>
      </set>
      <set comment="kpoint 7">
       <r>  -55.9614    1.0000 </r>
       <r>  -55.9509    1.0000 </r>
       <r>  -55.5121    1.0000 </r>
       <r>  -55.5095    1.0000 </r>
       <r>  -55.4733    1.0000 </r>
       <r>  -55.4714    1.0000 </r>
       <r>  -30.1788    1.0000 </r>
       <r>  -30.1786    1.0000 </r>
       <r>  -30.0409    1.0000 </r>
       <r>  -30.0369    1.0000 </r>
       <r>  -29.9855    1.0000 </r>
       <r>  -29.9801    1.0000 </r>
       <r>  -29.8056    1.0000 </r>
       <r>  -29.8033    1.0000 </r>
       <r>  -29.4299    1.0000 </r>
       <r>  -29.4157    1.0000 </r>
       <r>  -28.9768    1.0000 </r>
       <r>  -28.9721    1.0000 </r>
       <r>  -28.6845    1.0000 </r>
       <r>  -28.6834    1.0000 </r>
       <r>  -28.6750    1.0000 </r>
       <r>  -28.6721    1.0000 </r>
       <r>  -28.5605    1.0000 </r>
       <r>  -28.5598    1.0000 </r>
       <r>   -5.0943    1.0000 </r>
       <r>   -4.7173    1.0000 </r>
       <r>   -1.7515    1.0000 </r>
       <r>   -1.7493    1.0000 </r>
       <r>   -1.4555    1.0000 </r>
       <r>   -1.3871    1.0000 </r>
       <r>   -1.3027    1.0000 </r>
       <r>   -0.3690    1.0000 </r>
       <r>    0.1340    1.0000 </r>
       <r>    0.1695    1.0000 </r>
       <r>    1.0466    1.0000 </r>
       <r>    1.0701    1.0000 </r>
       <r>    1.9582    1.0000 </r>
       <r>    2.0998    1.0000 </r>
       <r>    2.2286    1.0000 </r>
       <r>    2.4250    1.0000 </r>
       <r>    2.5926    1.0000 </r>
       <r>    2.7990    1.0000 </r>
       <r>    2.9182    1.0000 </r>
       <r>    2.9227    1.0000 </r>
       <r>    3.6118    1.0000 </r>
       <r>    3.7195    1.0000 </r>
       <r>    4.2540    1.0000 </r>
       <r>    4.2944    1.0000 </r>
       <r>    4.5118    1.0000 </r>
       <r>    4.8032    1.0000 </r>
       <r>    4.8740    1.0000 </r>
       <r>    5.2428    1.0000 </r>
       <r>    5.3646    1.0000 </r>
       <r>    5.5118    1.0000 </r>
       <r>    6.0176    1.0000 </r>
       <r>    6.1835    1.0000 </r>
       <r>    6.4728    1.0000 </r>
       <r>    6.7198    0.5453 </r>
       <r>    6.8188    0.0000 </r>
       <r>    7.0658    0.0000 </r>
       <r>    7.3541    0.0000 </r>
       <r>    7.6449    0.0000 </r>
       <r>    7.8130    0.0000 </r>
       <r>    7.8581    0.0000 </r>
       <r>    7.9302    0.0000 </r>
       <r>    8.1565    0.0000 </r>
       <r>    8.4776    0.0000 </r>
       <r>    8.7522    0.0000 </r>
       <r>    8.8619    0.0000 </r>
       <r>    9.2078    0.0000 </r>
       <r>    9.5341    0.0000 </r>
       <r>   10.1220    0.0000 </r>
      </set>
      <set comment="kpoint 8">
       <r>  -55.9701    1.0000 </r>
       <r>  -55.9414    1.0000 </r>
       <r>  -55.5116    1.0000 </r>
       <r>  -55.5091    1.0000 </r>
       <r>  -55.4889    1.0000 </r>
       <r>  -55.4575    1.0000 </r>
       <r>  -30.2631    1.0000 </r>
       <r>  -30.1174    1.0000 </r>
       <r>  -30.0425    1.0000 </r>
       <r>  -30.0158    1.0000 </r>
       <r>  -29.9821    1.0000 </r>
       <r>  -29.9810    1.0000 </r>
       <r>  -29.9012    1.0000 </r>
       <r>  -29.6249    1.0000 </r>
       <r>  -29.4310    1.0000 </r>
       <r>  -29.4145    1.0000 </r>
       <r>  -29.1800    1.0000 </r>
       <r>  -28.8653    1.0000 </r>
       <r>  -28.6879    1.0000 </r>
       <r>  -28.6824    1.0000 </r>
       <r>  -28.6769    1.0000 </r>
       <r>  -28.6680    1.0000 </r>
       <r>  -28.6297    1.0000 </r>
       <r>  -28.4761    1.0000 </r>
       <r>   -5.4943    1.0000 </r>
       <r>   -4.1368    1.0000 </r>
       <r>   -2.0954    1.0000 </r>
       <r>   -1.7857    1.0000 </r>
       <r>   -1.7332    1.0000 </r>
       <r>   -1.2851    1.0000 </r>
       <r>   -1.1922    1.0000 </r>
       <r>    0.0351    1.0000 </r>
       <r>    0.3205    1.0000 </r>
       <r>    0.5819    1.0000 </r>
       <r>    0.8109    1.0000 </r>
       <r>    1.3067    1.0000 </r>
       <r>    1.6868    1.0000 </r>
       <r>    1.9908    1.0000 </r>
       <r>    2.3858    1.0000 </r>
       <r>    2.4763    1.0000 </r>
       <r>    2.5712    1.0000 </r>
       <r>    2.6434    1.0000 </r>
       <r>    2.7097    1.0000 </r>
       <r>    2.9634    1.0000 </r>
       <r>    3.2911    1.0000 </r>
       <r>    3.3824    1.0000 </r>
       <r>    3.6518    1.0000 </r>
       <r>    4.3655    1.0000 </r>
       <r>    4.4278    1.0000 </r>
       <r>    5.0076    1.0000 </r>
       <r>    5.2311    1.0000 </r>
       <r>    5.4702    1.0000 </r>
       <r>    5.6250    1.0000 </r>
       <r>    5.8606    1.0000 </r>
       <r>    5.8755    1.0000 </r>
       <r>    6.0064    1.0000 </r>
       <r>    6.3836    1.0000 </r>
       <r>    6.5469    1.0000 </r>
       <r>    6.7973    0.0000 </r>
       <r>    6.9201    0.0000 </r>
       <r>    7.4400    0.0000 </r>
       <r>    7.5652    0.0000 </r>
       <r>    7.7387    0.0000 </r>
       <r>    7.9079    0.0000 </r>
       <r>    7.9666    0.0000 </r>
       <r>    8.0310    0.0000 </r>
       <r>    8.3926    0.0000 </r>
       <r>    8.5910    0.0000 </r>
       <r>    9.1629    0.0000 </r>
       <r>    9.2251    0.0000 </r>
       <r>    9.5719    0.0000 </r>
       <r>   10.6041    0.0000 </r>
      </set>
      <set comment="kpoint 9">
       <r>  -55.9788    1.0000 </r>
       <r>  -55.9311    1.0000 </r>
       <r>  -55.5114    1.0000 </r>
       <r>  -55.5087    1.0000 </r>
       <r>  -55.5009    1.0000 </r>
       <r>  -55.4478    1.0000 </r>
       <r>  -30.2966    1.0000 </r>
       <r>  -30.2101    1.0000 </r>
       <r>  -30.0060    1.0000 </r>
       <r>  -29.9922    1.0000 </r>
       <r>  -29.9755    1.0000 </r>
       <r>  -29.9576    1.0000 </r>
       <r>  -29.8403    1.0000 </r>
       <r>  -29.4337    1.0000 </r>
       <r>  -29.4232    1.0000 </r>
       <r>  -29.4116    1.0000 </r>
       <r>  -29.3953    1.0000 </r>
       <r>  -28.9814    1.0000 </r>
       <r>  -28.6892    1.0000 </r>
       <r>  -28.6861    1.0000 </r>
       <r>  -28.6744    1.0000 </r>
       <r>  -28.6657    1.0000 </r>
       <r>  -28.5562    1.0000 </r>
       <r>  -28.4443    1.0000 </r>
       <r>   -5.7235    1.0000 </r>
       <r>   -3.6707    1.0000 </r>
       <r>   -2.3059    1.0000 </r>
       <r>   -1.9348    1.0000 </r>
       <r>   -1.8412    1.0000 </r>
       <r>   -1.4166    1.0000 </r>
       <r>   -0.7920    1.0000 </r>
       <r>    0.1471    1.0000 </r>
       <r>    0.5553    1.0000 </r>
       <r>    0.5998    1.0000 </r>
       <r>    1.3539    1.0000 </r>
       <r>    1.4484    1.0000 </r>
       <r>    1.5153    1.0000 </r>
       <r>    1.5820    1.0000 </r>
       <r>    2.3385    1.0000 </r>
       <r>    2.5027    1.0000 </r>
       <r>    2.5654    1.0000 </r>
       <r>    2.6667    1.0000 </r>
       <r>    2.7184    1.0000 </r>
       <r>    2.7774    1.0000 </r>
       <r>    2.9683    1.0000 </r>
       <r>    2.9718    1.0000 </r>
       <r>    3.2050    1.0000 </r>
       <r>    4.6636    1.0000 </r>
       <r>    4.7425    1.0000 </r>
       <r>    5.0221    1.0000 </r>
       <r>    5.1349    1.0000 </r>
       <r>    5.4361    1.0000 </r>
       <r>    5.5285    1.0000 </r>
       <r>    5.6707    1.0000 </r>
       <r>    6.0876    1.0000 </r>
       <r>    6.3616    1.0000 </r>
       <r>    6.4446    1.0000 </r>
       <r>    6.6662    1.0000 </r>
       <r>    6.8507    0.0000 </r>
       <r>    6.8563    0.0000 </r>
       <r>    7.1921    0.0000 </r>
       <r>    7.3646    0.0000 </r>
       <r>    7.7011    0.0000 </r>
       <r>    7.8331    0.0000 </r>
       <r>    7.8503    0.0000 </r>
       <r>    7.8640    0.0000 </r>
       <r>    8.6162    0.0000 </r>
       <r>    8.9136    0.0000 </r>
       <r>    9.1283    0.0000 </r>
       <r>    9.3607    0.0000 </r>
       <r>    9.3857    0.0000 </r>
       <r>   10.9289    0.0000 </r>
      </set>
      <set comment="kpoint 10">
       <r>  -55.9654    1.0000 </r>
       <r>  -55.9466    1.0000 </r>
       <r>  -55.5132    1.0000 </r>
       <r>  -55.5093    1.0000 </r>
       <r>  -55.4790    1.0000 </r>
       <r>  -55.4651    1.0000 </r>
       <r>  -30.2818    1.0000 </r>
       <r>  -30.1658    1.0000 </r>
       <r>  -30.0513    1.0000 </r>
       <r>  -30.0151    1.0000 </r>
       <r>  -29.9976    1.0000 </r>
       <r>  -29.9837    1.0000 </r>
       <r>  -29.7943    1.0000 </r>
       <r>  -29.4312    1.0000 </r>
       <r>  -29.4144    1.0000 </r>
       <r>  -29.4092    1.0000 </r>
       <r>  -29.4007    1.0000 </r>
       <r>  -28.9702    1.0000 </r>
       <r>  -28.6867    1.0000 </r>
       <r>  -28.6845    1.0000 </r>
       <r>  -28.6725    1.0000 </r>
       <r>  -28.6714    1.0000 </r>
       <r>  -28.5618    1.0000 </r>
       <r>  -28.4475    1.0000 </r>
       <r>   -4.8739    1.0000 </r>
       <r>   -4.8664    1.0000 </r>
       <r>   -2.1090    1.0000 </r>
       <r>   -1.6746    1.0000 </r>
       <r>   -1.5227    1.0000 </r>
       <r>   -1.3794    1.0000 </r>
       <r>   -1.3610    1.0000 </r>
       <r>   -0.3147    1.0000 </r>
       <r>    0.2213    1.0000 </r>
       <r>    0.4821    1.0000 </r>
       <r>    0.7120    1.0000 </r>
       <r>    1.1740    1.0000 </r>
       <r>    1.7282    1.0000 </r>
       <r>    1.9976    1.0000 </r>
       <r>    2.3210    1.0000 </r>
       <r>    2.7787    1.0000 </r>
       <r>    2.8027    1.0000 </r>
       <r>    2.9516    1.0000 </r>
       <r>    3.2563    1.0000 </r>
       <r>    3.3749    1.0000 </r>
       <r>    3.4386    1.0000 </r>
       <r>    3.4527    1.0000 </r>
       <r>    3.6715    1.0000 </r>
       <r>    3.9010    1.0000 </r>
       <r>    4.5967    1.0000 </r>
       <r>    4.9712    1.0000 </r>
       <r>    5.2071    1.0000 </r>
       <r>    5.3123    1.0000 </r>
       <r>    5.3379    1.0000 </r>
       <r>    5.5395    1.0000 </r>
       <r>    5.9036    1.0000 </r>
       <r>    6.1797    1.0000 </r>
       <r>    6.3350    1.0000 </r>
       <r>    6.6034    1.0000 </r>
       <r>    6.7827    0.0000 </r>
       <r>    7.0151    0.0000 </r>
       <r>    7.1014    0.0000 </r>
       <r>    7.5774    0.0000 </r>
       <r>    7.8264    0.0000 </r>
       <r>    7.9292    0.0000 </r>
       <r>    8.1484    0.0000 </r>
       <r>    8.2154    0.0000 </r>
       <r>    8.2922    0.0000 </r>
       <r>    8.9406    0.0000 </r>
       <r>    9.1494    0.0000 </r>
       <r>    9.4319    0.0000 </r>
       <r>    9.5757    0.0000 </r>
       <r>    9.9285    0.0000 </r>
      </set>
      <set comment="kpoint 11">
       <r>  -55.9614    1.0000 </r>
       <r>  -55.9509    1.0000 </r>
       <r>  -55.5129    1.0000 </r>
       <r>  -55.5089    1.0000 </r>
       <r>  -55.4740    1.0000 </r>
       <r>  -55.4706    1.0000 </r>
       <r>  -30.2485    1.0000 </r>
       <r>  -30.2476    1.0000 </r>
       <r>  -30.0295    1.0000 </r>
       <r>  -30.0248    1.0000 </r>
       <r>  -29.9950    1.0000 </r>
       <r>  -29.9890    1.0000 </r>
       <r>  -29.6178    1.0000 </r>
       <r>  -29.6148    1.0000 </r>
       <r>  -29.4300    1.0000 </r>
       <r>  -29.4156    1.0000 </r>
       <r>  -29.1792    1.0000 </r>
       <r>  -29.1754    1.0000 </r>
       <r>  -28.6880    1.0000 </r>
       <r>  -28.6850    1.0000 </r>
       <r>  -28.6735    1.0000 </r>
       <r>  -28.6688    1.0000 </r>
       <r>  -28.4787    1.0000 </r>
       <r>  -28.4784    1.0000 </r>
       <r>   -5.1566    1.0000 </r>
       <r>   -4.4646    1.0000 </r>
       <r>   -2.0620    1.0000 </r>
       <r>   -2.0269    1.0000 </r>
       <r>   -1.7955    1.0000 </r>
       <r>   -1.4071    1.0000 </r>
       <r>   -1.2872    1.0000 </r>
       <r>    0.1690    1.0000 </r>
       <r>    0.2803    1.0000 </r>
       <r>    0.4821    1.0000 </r>
       <r>    0.9519    1.0000 </r>
       <r>    0.9935    1.0000 </r>
       <r>    1.8786    1.0000 </r>
       <r>    2.0926    1.0000 </r>
       <r>    2.4525    1.0000 </r>
       <r>    2.6749    1.0000 </r>
       <r>    2.7778    1.0000 </r>
       <r>    2.8911    1.0000 </r>
       <r>    3.0202    1.0000 </r>
       <r>    3.1700    1.0000 </r>
       <r>    3.2346    1.0000 </r>
       <r>    3.5638    1.0000 </r>
       <r>    3.7568    1.0000 </r>
       <r>    4.2795    1.0000 </r>
       <r>    4.4028    1.0000 </r>
       <r>    4.8251    1.0000 </r>
       <r>    4.9178    1.0000 </r>
       <r>    5.0197    1.0000 </r>
       <r>    5.1204    1.0000 </r>
       <r>    5.7731    1.0000 </r>
       <r>    6.2762    1.0000 </r>
       <r>    6.3919    1.0000 </r>
       <r>    6.4381    1.0000 </r>
       <r>    6.5671    1.0000 </r>
       <r>    6.6390    1.0000 </r>
       <r>    7.0154    0.0000 </r>
       <r>    7.1299    0.0000 </r>
       <r>    7.5169    0.0000 </r>
       <r>    7.6383    0.0000 </r>
       <r>    7.9774    0.0000 </r>
       <r>    8.0080    0.0000 </r>
       <r>    8.2861    0.0000 </r>
       <r>    8.7482    0.0000 </r>
       <r>    8.9448    0.0000 </r>
       <r>    9.1847    0.0000 </r>
       <r>    9.2669    0.0000 </r>
       <r>    9.4491    0.0000 </r>
       <r>   10.3722    0.0000 </r>
      </set>
      <set comment="kpoint 12">
       <r>  -55.9653    1.0000 </r>
       <r>  -55.9467    1.0000 </r>
       <r>  -55.5123    1.0000 </r>
       <r>  -55.5087    1.0000 </r>
       <r>  -55.4828    1.0000 </r>
       <r>  -55.4628    1.0000 </r>
       <r>  -30.2809    1.0000 </r>
       <r>  -30.1663    1.0000 </r>
       <r>  -30.0478    1.0000 </r>
       <r>  -30.0201    1.0000 </r>
       <r>  -29.9915    1.0000 </r>
       <r>  -29.9895    1.0000 </r>
       <r>  -29.7965    1.0000 </r>
       <r>  -29.4299    1.0000 </r>
       <r>  -29.4156    1.0000 </r>
       <r>  -29.4079    1.0000 </r>
       <r>  -29.3952    1.0000 </r>
       <r>  -28.9749    1.0000 </r>
       <r>  -28.6893    1.0000 </r>
       <r>  -28.6825    1.0000 </r>
       <r>  -28.6763    1.0000 </r>
       <r>  -28.6672    1.0000 </r>
       <r>  -28.5611    1.0000 </r>
       <r>  -28.4470    1.0000 </r>
       <r>   -5.3874    1.0000 </r>
       <r>   -4.1595    1.0000 </r>
       <r>   -2.2247    1.0000 </r>
       <r>   -1.9035    1.0000 </r>
       <r>   -1.7371    1.0000 </r>
       <r>   -1.5910    1.0000 </r>
       <r>   -1.1899    1.0000 </r>
       <r>    0.2756    1.0000 </r>
       <r>    0.3593    1.0000 </r>
       <r>    0.6685    1.0000 </r>
       <r>    1.1775    1.0000 </r>
       <r>    1.2024    1.0000 </r>
       <r>    1.4865    1.0000 </r>
       <r>    1.9975    1.0000 </r>
       <r>    2.2679    1.0000 </r>
       <r>    2.5534    1.0000 </r>
       <r>    2.7256    1.0000 </r>
       <r>    2.7412    1.0000 </r>
       <r>    2.9445    1.0000 </r>
       <r>    3.0913    1.0000 </r>
       <r>    3.0914    1.0000 </r>
       <r>    3.4454    1.0000 </r>
       <r>    3.7105    1.0000 </r>
       <r>    4.0305    1.0000 </r>
       <r>    4.7501    1.0000 </r>
       <r>    4.8994    1.0000 </r>
       <r>    5.1108    1.0000 </r>
       <r>    5.3081    1.0000 </r>
       <r>    5.3696    1.0000 </r>
       <r>    5.9517    1.0000 </r>
       <r>    5.9782    1.0000 </r>
       <r>    6.1999    1.0000 </r>
       <r>    6.4163    1.0000 </r>
       <r>    6.4827    1.0000 </r>
       <r>    6.5937    1.0000 </r>
       <r>    6.7809    0.0000 </r>
       <r>    7.3583    0.0000 </r>
       <r>    7.5197    0.0000 </r>
       <r>    7.7558    0.0000 </r>
       <r>    7.7634    0.0000 </r>
       <r>    8.2530    0.0000 </r>
       <r>    8.2902    0.0000 </r>
       <r>    8.3493    0.0000 </r>
       <r>    8.7560    0.0000 </r>
       <r>    9.2822    0.0000 </r>
       <r>    9.8010    0.0000 </r>
       <r>    9.8763    0.0000 </r>
       <r>   10.3466    0.0000 </r>
      </set>
      <set comment="kpoint 13">
       <r>  -55.9613    1.0000 </r>
       <r>  -55.9509    1.0000 </r>
       <r>  -55.5133    1.0000 </r>
       <r>  -55.5087    1.0000 </r>
       <r>  -55.4742    1.0000 </r>
       <r>  -55.4703    1.0000 </r>
       <r>  -30.2735    1.0000 </r>
       <r>  -30.2725    1.0000 </r>
       <r>  -30.0269    1.0000 </r>
       <r>  -30.0220    1.0000 </r>
       <r>  -29.9973    1.0000 </r>
       <r>  -29.9911    1.0000 </r>
       <r>  -29.4301    1.0000 </r>
       <r>  -29.4155    1.0000 </r>
       <r>  -29.4018    1.0000 </r>
       <r>  -29.4008    1.0000 </r>
       <r>  -29.4005    1.0000 </r>
       <r>  -29.3952    1.0000 </r>
       <r>  -28.6893    1.0000 </r>
       <r>  -28.6856    1.0000 </r>
       <r>  -28.6729    1.0000 </r>
       <r>  -28.6675    1.0000 </r>
       <r>  -28.4488    1.0000 </r>
       <r>  -28.4483    1.0000 </r>
       <r>   -5.1699    1.0000 </r>
       <r>   -4.3413    1.0000 </r>
       <r>   -2.2150    1.0000 </r>
       <r>   -2.1818    1.0000 </r>
       <r>   -1.9367    1.0000 </r>
       <r>   -1.3501    1.0000 </r>
       <r>   -1.2093    1.0000 </r>
       <r>    0.1151    1.0000 </r>
       <r>    0.1914    1.0000 </r>
       <r>    0.9982    1.0000 </r>
       <r>    1.0371    1.0000 </r>
       <r>    1.0409    1.0000 </r>
       <r>    1.5013    1.0000 </r>
       <r>    2.1093    1.0000 </r>
       <r>    2.4816    1.0000 </r>
       <r>    2.8600    1.0000 </r>
       <r>    2.9174    1.0000 </r>
       <r>    3.0216    1.0000 </r>
       <r>    3.0907    1.0000 </r>
       <r>    3.1832    1.0000 </r>
       <r>    3.4235    1.0000 </r>
       <r>    3.5833    1.0000 </r>
       <r>    3.7356    1.0000 </r>
       <r>    3.9035    1.0000 </r>
       <r>    4.1284    1.0000 </r>
       <r>    4.6384    1.0000 </r>
       <r>    4.8242    1.0000 </r>
       <r>    4.8459    1.0000 </r>
       <r>    5.0471    1.0000 </r>
       <r>    6.0479    1.0000 </r>
       <r>    6.4091    1.0000 </r>
       <r>    6.5514    1.0000 </r>
       <r>    6.6401    1.0000 </r>
       <r>    6.6432    1.0000 </r>
       <r>    6.6728    0.9997 </r>
       <r>    6.6991    0.9428 </r>
       <r>    6.9380    0.0000 </r>
       <r>    7.5279    0.0000 </r>
       <r>    7.5902    0.0000 </r>
       <r>    7.9352    0.0000 </r>
       <r>    7.9996    0.0000 </r>
       <r>    8.4203    0.0000 </r>
       <r>    8.8426    0.0000 </r>
       <r>    9.1938    0.0000 </r>
       <r>    9.2344    0.0000 </r>
       <r>    9.2653    0.0000 </r>
       <r>   10.3966    0.0000 </r>
       <r>   10.4464    0.0000 </r>
      </set>
      <set comment="kpoint 14">
       <r>  -55.9805    1.0000 </r>
       <r>  -55.9289    1.0000 </r>
       <r>  -55.5131    1.0000 </r>
       <r>  -55.5100    1.0000 </r>
       <r>  -55.4998    1.0000 </r>
       <r>  -55.4464    1.0000 </r>
       <r>  -30.2993    1.0000 </r>
       <r>  -30.2336    1.0000 </r>
       <r>  -29.9992    1.0000 </r>
       <r>  -29.9974    1.0000 </r>
       <r>  -29.9688    1.0000 </r>
       <r>  -29.9634    1.0000 </r>
       <r>  -29.7847    1.0000 </r>
       <r>  -29.4344    1.0000 </r>
       <r>  -29.4263    1.0000 </r>
       <r>  -29.4109    1.0000 </r>
       <r>  -29.4005    1.0000 </r>
       <r>  -29.0319    1.0000 </r>
       <r>  -28.6902    1.0000 </r>
       <r>  -28.6861    1.0000 </r>
       <r>  -28.6735    1.0000 </r>
       <r>  -28.6657    1.0000 </r>
       <r>  -28.5290    1.0000 </r>
       <r>  -28.4445    1.0000 </r>
       <r>   -5.7591    1.0000 </r>
       <r>   -3.5890    1.0000 </r>
       <r>   -2.3155    1.0000 </r>
       <r>   -1.9704    1.0000 </r>
       <r>   -1.8346    1.0000 </r>
       <r>   -1.4892    1.0000 </r>
       <r>   -0.6891    1.0000 </r>
       <r>    0.1531    1.0000 </r>
       <r>    0.5652    1.0000 </r>
       <r>    0.6290    1.0000 </r>
       <r>    1.3521    1.0000 </r>
       <r>    1.4616    1.0000 </r>
       <r>    1.5241    1.0000 </r>
       <r>    1.6585    1.0000 </r>
       <r>    2.3094    1.0000 </r>
       <r>    2.3530    1.0000 </r>
       <r>    2.5044    1.0000 </r>
       <r>    2.7150    1.0000 </r>
       <r>    2.7260    1.0000 </r>
       <r>    2.8099    1.0000 </r>
       <r>    2.8782    1.0000 </r>
       <r>    2.9450    1.0000 </r>
       <r>    3.2133    1.0000 </r>
       <r>    4.6759    1.0000 </r>
       <r>    4.8322    1.0000 </r>
       <r>    5.0399    1.0000 </r>
       <r>    5.0529    1.0000 </r>
       <r>    5.4454    1.0000 </r>
       <r>    5.4501    1.0000 </r>
       <r>    5.6214    1.0000 </r>
       <r>    6.1579    1.0000 </r>
       <r>    6.3662    1.0000 </r>
       <r>    6.4596    1.0000 </r>
       <r>    6.7448    0.0492 </r>
       <r>    6.8293    0.0000 </r>
       <r>    6.9880    0.0000 </r>
       <r>    7.1884    0.0000 </r>
       <r>    7.2702    0.0000 </r>
       <r>    7.5689    0.0000 </r>
       <r>    7.8016    0.0000 </r>
       <r>    7.8391    0.0000 </r>
       <r>    7.8914    0.0000 </r>
       <r>    8.7731    0.0000 </r>
       <r>    8.9602    0.0000 </r>
       <r>    9.0573    0.0000 </r>
       <r>    9.3599    0.0000 </r>
       <r>    9.6226    0.0000 </r>
       <r>   10.8400    0.0000 </r>
      </set>
      <set comment="kpoint 15">
       <r>  -55.9722    1.0000 </r>
       <r>  -55.9389    1.0000 </r>
       <r>  -55.5127    1.0000 </r>
       <r>  -55.5099    1.0000 </r>
       <r>  -55.4887    1.0000 </r>
       <r>  -55.4562    1.0000 </r>
       <r>  -30.2665    1.0000 </r>
       <r>  -30.1431    1.0000 </r>
       <r>  -30.0191    1.0000 </r>
       <r>  -30.0078    1.0000 </r>
       <r>  -29.9771    1.0000 </r>
       <r>  -29.9736    1.0000 </r>
       <r>  -29.9072    1.0000 </r>
       <r>  -29.6296    1.0000 </r>
       <r>  -29.4316    1.0000 </r>
       <r>  -29.4139    1.0000 </r>
       <r>  -29.1844    1.0000 </r>
       <r>  -28.8722    1.0000 </r>
       <r>  -28.6889    1.0000 </r>
       <r>  -28.6823    1.0000 </r>
       <r>  -28.6758    1.0000 </r>
       <r>  -28.6683    1.0000 </r>
       <r>  -28.6224    1.0000 </r>
       <r>  -28.4761    1.0000 </r>
       <r>   -5.5432    1.0000 </r>
       <r>   -4.0697    1.0000 </r>
       <r>   -2.1057    1.0000 </r>
       <r>   -1.8176    1.0000 </r>
       <r>   -1.7355    1.0000 </r>
       <r>   -1.3074    1.0000 </r>
       <r>   -1.0586    1.0000 </r>
       <r>   -0.0148    1.0000 </r>
       <r>    0.3343    1.0000 </r>
       <r>    0.5879    1.0000 </r>
       <r>    0.8230    1.0000 </r>
       <r>    1.3655    1.0000 </r>
       <r>    1.6270    1.0000 </r>
       <r>    2.0029    1.0000 </r>
       <r>    2.3912    1.0000 </r>
       <r>    2.4609    1.0000 </r>
       <r>    2.5160    1.0000 </r>
       <r>    2.6551    1.0000 </r>
       <r>    2.6774    1.0000 </r>
[...]
       <r>    7.3406    0.0000 </r>
       <r>    7.5704    0.0000 </r>
       <r>    7.8822    0.0000 </r>
       <r>    7.8906    0.0000 </r>
       <r>    8.2357    0.0000 </r>
       <r>    8.7386    0.0000 </r>
       <r>    8.9233    0.0000 </r>
       <r>    9.1148    0.0000 </r>
       <r>    9.3410    0.0000 </r>
       <r>    9.3874    0.0000 </r>
       <r>   10.4386    0.0000 </r>
      </set>
      <set comment="kpoint 76">
       <r>  -55.9710    1.0000 </r>
       <r>  -55.9403    1.0000 </r>
       <r>  -55.5132    1.0000 </r>
       <r>  -55.5097    1.0000 </r>
       <r>  -55.4866    1.0000 </r>
       <r>  -55.4579    1.0000 </r>
       <r>  -30.2888    1.0000 </r>
       <r>  -30.1134    1.0000 </r>
       <r>  -30.0479    1.0000 </r>
       <r>  -30.0088    1.0000 </r>
       <r>  -29.9976    1.0000 </r>
       <r>  -29.9779    1.0000 </r>
       <r>  -29.8904    1.0000 </r>
       <r>  -29.4317    1.0000 </r>
       <r>  -29.4155    1.0000 </r>
       <r>  -29.4138    1.0000 </r>
       <r>  -29.4005    1.0000 </r>
       <r>  -28.8610    1.0000 </r>
       <r>  -28.6891    1.0000 </r>
       <r>  -28.6810    1.0000 </r>
       <r>  -28.6765    1.0000 </r>
       <r>  -28.6686    1.0000 </r>
       <r>  -28.6307    1.0000 </r>
       <r>  -28.4464    1.0000 </r>
       <r>   -5.3998    1.0000 </r>
       <r>   -4.3080    1.0000 </r>
       <r>   -1.9445    1.0000 </r>
       <r>   -1.7379    1.0000 </r>
       <r>   -1.6895    1.0000 </r>
       <r>   -1.2969    1.0000 </r>
       <r>   -1.2213    1.0000 </r>
       <r>   -0.1411    1.0000 </r>
       <r>    0.2810    1.0000 </r>
       <r>    0.5214    1.0000 </r>
       <r>    0.5262    1.0000 </r>
       <r>    1.3272    1.0000 </r>
       <r>    1.5594    1.0000 </r>
       <r>    2.2680    1.0000 </r>
       <r>    2.3877    1.0000 </r>
       <r>    2.6375    1.0000 </r>
       <r>    2.6919    1.0000 </r>
       <r>    2.7975    1.0000 </r>
       <r>    2.8055    1.0000 </r>
       <r>    2.8775    1.0000 </r>
       <r>    3.2064    1.0000 </r>
       <r>    3.2636    1.0000 </r>
       <r>    4.1039    1.0000 </r>
       <r>    4.2185    1.0000 </r>
       <r>    4.6821    1.0000 </r>
       <r>    4.7235    1.0000 </r>
       <r>    5.4307    1.0000 </r>
       <r>    5.5579    1.0000 </r>
       <r>    5.5684    1.0000 </r>
       <r>    5.7605    1.0000 </r>
       <r>    5.8186    1.0000 </r>
       <r>    6.0789    1.0000 </r>
       <r>    6.2101    1.0000 </r>
       <r>    6.5832    1.0000 </r>
       <r>    6.5883    1.0000 </r>
       <r>    6.8917    0.0000 </r>
       <r>    7.4354    0.0000 </r>
       <r>    7.5573    0.0000 </r>
       <r>    7.6244    0.0000 </r>
       <r>    7.8550    0.0000 </r>
       <r>    7.9738    0.0000 </r>
       <r>    8.1229    0.0000 </r>
       <r>    8.4531    0.0000 </r>
       <r>    8.5906    0.0000 </r>
       <r>    9.2176    0.0000 </r>
       <r>    9.4383    0.0000 </r>
       <r>    9.4623    0.0000 </r>
       <r>   10.1502    0.0000 </r>
      </set>
     </set>
    </set>
   </array>
  </eigenvalues>
  <separator name="orbital magnetization" >
   <v name="MAGDIPOLOUT">      0.00000000      0.00000000      0.00000000</v>
  </separator>
  <dos>
   <i name="efermi">      6.72144670 </i>
   <total>
    <array>
     <dimension dim="1">gridpoints</dimension>
     <dimension dim="2">spin</dimension>
     <field>energy</field>
     <field>total</field>
     <field>integrated</field>
     <set>
      <set comment="spin 1">
       <r>   -59.3399     0.0000     0.0000 </r>
       <r>   -59.0939     0.0000     0.0000 </r>
       <r>   -58.8479     0.0000     0.0000 </r>
       <r>   -58.6019     0.0000     0.0000 </r>
       <r>   -58.3559     0.0000     0.0000 </r>
       <r>   -58.1100     0.0000     0.0000 </r>
       <r>   -57.8640     0.0000     0.0000 </r>
       <r>   -57.6180     0.0000     0.0000 </r>
       <r>   -57.3720     0.0000     0.0000 </r>
       <r>   -57.1260     0.0000     0.0000 </r>
       <r>   -56.8801     0.0000     0.0000 </r>
       <r>   -56.6341     0.0000     0.0000 </r>
       <r>   -56.3881     0.0000     0.0000 </r>
       <r>   -56.1421     0.0000     0.0000 </r>
       <r>   -55.8961    16.2327     3.9929 </r>
       <r>   -55.6502     0.0000     4.0000 </r>
       <r>   -55.4042    32.5187    11.9990 </r>
       <r>   -55.1582     0.0000    12.0000 </r>
       <r>   -54.9122     0.0000    12.0000 </r>
       <r>   -54.6662     0.0000    12.0000 </r>
       <r>   -54.4202     0.0000    12.0000 </r>
       <r>   -54.1743     0.0000    12.0000 </r>
       <r>   -53.9283     0.0000    12.0000 </r>
       <r>   -53.6823     0.0000    12.0000 </r>
       <r>   -53.4363     0.0000    12.0000 </r>
       <r>   -53.1903     0.0000    12.0000 </r>
       <r>   -52.9444     0.0000    12.0000 </r>
       <r>   -52.6984     0.0000    12.0000 </r>
       <r>   -52.4524     0.0000    12.0000 </r>
       <r>   -52.2064     0.0000    12.0000 </r>
       <r>   -51.9604     0.0000    12.0000 </r>
       <r>   -51.7145     0.0000    12.0000 </r>
       <r>   -51.4685     0.0000    12.0000 </r>
       <r>   -51.2225     0.0000    12.0000 </r>
       <r>   -50.9765     0.0000    12.0000 </r>
       <r>   -50.7305     0.0000    12.0000 </r>
       <r>   -50.4846     0.0000    12.0000 </r>
       <r>   -50.2386     0.0000    12.0000 </r>
       <r>   -49.9926     0.0000    12.0000 </r>
       <r>   -49.7466     0.0000    12.0000 </r>
       <r>   -49.5006     0.0000    12.0000 </r>
       <r>   -49.2547     0.0000    12.0000 </r>
       <r>   -49.0087     0.0000    12.0000 </r>
       <r>   -48.7627     0.0000    12.0000 </r>
       <r>   -48.5167     0.0000    12.0000 </r>
       <r>   -48.2707     0.0000    12.0000 </r>
       <r>   -48.0248     0.0000    12.0000 </r>
       <r>   -47.7788     0.0000    12.0000 </r>
       <r>   -47.5328     0.0000    12.0000 </r>
       <r>   -47.2868     0.0000    12.0000 </r>
       <r>   -47.0408     0.0000    12.0000 </r>
       <r>   -46.7949     0.0000    12.0000 </r>
       <r>   -46.5489     0.0000    12.0000 </r>
       <r>   -46.3029     0.0000    12.0000 </r>
       <r>   -46.0569     0.0000    12.0000 </r>
       <r>   -45.8109     0.0000    12.0000 </r>
       <r>   -45.5650     0.0000    12.0000 </r>
       <r>   -45.3190     0.0000    12.0000 </r>
       <r>   -45.0730     0.0000    12.0000 </r>
       <r>   -44.8270     0.0000    12.0000 </r>
       <r>   -44.5810     0.0000    12.0000 </r>
       <r>   -44.3351     0.0000    12.0000 </r>
       <r>   -44.0891     0.0000    12.0000 </r>
       <r>   -43.8431     0.0000    12.0000 </r>
       <r>   -43.5971     0.0000    12.0000 </r>
       <r>   -43.3511     0.0000    12.0000 </r>
       <r>   -43.1052     0.0000    12.0000 </r>
       <r>   -42.8592     0.0000    12.0000 </r>
       <r>   -42.6132     0.0000    12.0000 </r>
       <r>   -42.3672     0.0000    12.0000 </r>
       <r>   -42.1212     0.0000    12.0000 </r>
       <r>   -41.8753     0.0000    12.0000 </r>
       <r>   -41.6293     0.0000    12.0000 </r>
       <r>   -41.3833     0.0000    12.0000 </r>
       <r>   -41.1373     0.0000    12.0000 </r>
       <r>   -40.8913     0.0000    12.0000 </r>
       <r>   -40.6454     0.0000    12.0000 </r>
       <r>   -40.3994     0.0000    12.0000 </r>
       <r>   -40.1534     0.0000    12.0000 </r>
       <r>   -39.9074     0.0000    12.0000 </r>
       <r>   -39.6614     0.0000    12.0000 </r>
       <r>   -39.4155     0.0000    12.0000 </r>
       <r>   -39.1695     0.0000    12.0000 </r>
       <r>   -38.9235     0.0000    12.0000 </r>
       <r>   -38.6775     0.0000    12.0000 </r>
       <r>   -38.4315     0.0000    12.0000 </r>
       <r>   -38.1856     0.0000    12.0000 </r>
       <r>   -37.9396     0.0000    12.0000 </r>
       <r>   -37.6936     0.0000    12.0000 </r>
       <r>   -37.4476     0.0000    12.0000 </r>
       <r>   -37.2016     0.0000    12.0000 </r>
       <r>   -36.9557     0.0000    12.0000 </r>
       <r>   -36.7097     0.0000    12.0000 </r>
       <r>   -36.4637     0.0000    12.0000 </r>
       <r>   -36.2177     0.0000    12.0000 </r>
       <r>   -35.9717     0.0000    12.0000 </r>
       <r>   -35.7258     0.0000    12.0000 </r>
       <r>   -35.4798     0.0000    12.0000 </r>
       <r>   -35.2338     0.0000    12.0000 </r>
       <r>   -34.9878     0.0000    12.0000 </r>
       <r>   -34.7418     0.0000    12.0000 </r>
       <r>   -34.4959     0.0000    12.0000 </r>
       <r>   -34.2499     0.0000    12.0000 </r>
       <r>   -34.0039     0.0000    12.0000 </r>
       <r>   -33.7579     0.0000    12.0000 </r>
       <r>   -33.5119     0.0000    12.0000 </r>
       <r>   -33.2660     0.0000    12.0000 </r>
       <r>   -33.0200     0.0000    12.0000 </r>
       <r>   -32.7740     0.0000    12.0000 </r>
       <r>   -32.5280     0.0000    12.0000 </r>
       <r>   -32.2820     0.0000    12.0000 </r>
       <r>   -32.0361     0.0000    12.0000 </r>
       <r>   -31.7901     0.0000    12.0000 </r>
       <r>   -31.5441     0.0000    12.0000 </r>
       <r>   -31.2981     0.0000    12.0000 </r>
       <r>   -31.0521     0.0000    12.0000 </r>
       <r>   -30.8062     0.0000    12.0000 </r>
       <r>   -30.5602     0.0000    12.0000 </r>
       <r>   -30.3142     0.2175    12.0535 </r>
       <r>   -30.0682     8.8434    16.1753 </r>
       <r>   -29.8222    15.3959    25.2315 </r>
       <r>   -29.5763     4.8145    27.1525 </r>
       <r>   -29.3303    20.8247    32.5510 </r>
       <r>   -29.0843     4.7512    33.9624 </r>
       <r>   -28.8383     7.0223    35.9813 </r>
       <r>   -28.5923    35.6892    44.7788 </r>
       <r>   -28.3464     7.9371    48.0000 </r>
       <r>   -28.1004     0.0000    48.0000 </r>
       <r>   -27.8544     0.0000    48.0000 </r>
       <r>   -27.6084     0.0000    48.0000 </r>
       <r>   -27.3624     0.0000    48.0000 </r>
       <r>   -27.1165     0.0000    48.0000 </r>
       <r>   -26.8705     0.0000    48.0000 </r>
       <r>   -26.6245     0.0000    48.0000 </r>
       <r>   -26.3785     0.0000    48.0000 </r>
       <r>   -26.1325     0.0000    48.0000 </r>
       <r>   -25.8865     0.0000    48.0000 </r>
       <r>   -25.6406     0.0000    48.0000 </r>
       <r>   -25.3946     0.0000    48.0000 </r>
       <r>   -25.1486     0.0000    48.0000 </r>
       <r>   -24.9026     0.0000    48.0000 </r>
       <r>   -24.6566     0.0000    48.0000 </r>
       <r>   -24.4107     0.0000    48.0000 </r>
       <r>   -24.1647     0.0000    48.0000 </r>
       <r>   -23.9187     0.0000    48.0000 </r>
       <r>   -23.6727     0.0000    48.0000 </r>
       <r>   -23.4267     0.0000    48.0000 </r>
       <r>   -23.1808     0.0000    48.0000 </r>
       <r>   -22.9348     0.0000    48.0000 </r>
       <r>   -22.6888     0.0000    48.0000 </r>
       <r>   -22.4428     0.0000    48.0000 </r>
       <r>   -22.1968     0.0000    48.0000 </r>
       <r>   -21.9509     0.0000    48.0000 </r>
       <r>   -21.7049     0.0000    48.0000 </r>
       <r>   -21.4589     0.0000    48.0000 </r>
       <r>   -21.2129     0.0000    48.0000 </r>
       <r>   -20.9669     0.0000    48.0000 </r>
       <r>   -20.7210     0.0000    48.0000 </r>
       <r>   -20.4750     0.0000    48.0000 </r>
       <r>   -20.2290     0.0000    48.0000 </r>
       <r>   -19.9830     0.0000    48.0000 </r>
       <r>   -19.7370     0.0000    48.0000 </r>
       <r>   -19.4911     0.0000    48.0000 </r>
       <r>   -19.2451     0.0000    48.0000 </r>
       <r>   -18.9991     0.0000    48.0000 </r>
       <r>   -18.7531     0.0000    48.0000 </r>
       <r>   -18.5071     0.0000    48.0000 </r>
       <r>   -18.2612     0.0000    48.0000 </r>
       <r>   -18.0152     0.0000    48.0000 </r>
       <r>   -17.7692     0.0000    48.0000 </r>
       <r>   -17.5232     0.0000    48.0000 </r>
       <r>   -17.2772     0.0000    48.0000 </r>
       <r>   -17.0313     0.0000    48.0000 </r>
       <r>   -16.7853     0.0000    48.0000 </r>
       <r>   -16.5393     0.0000    48.0000 </r>
       <r>   -16.2933     0.0000    48.0000 </r>
       <r>   -16.0473     0.0000    48.0000 </r>
       <r>   -15.8014     0.0000    48.0000 </r>
       <r>   -15.5554     0.0000    48.0000 </r>
       <r>   -15.3094     0.0000    48.0000 </r>
       <r>   -15.0634     0.0000    48.0000 </r>
       <r>   -14.8174     0.0000    48.0000 </r>
       <r>   -14.5715     0.0000    48.0000 </r>
       <r>   -14.3255     0.0000    48.0000 </r>
       <r>   -14.0795     0.0000    48.0000 </r>
       <r>   -13.8335     0.0000    48.0000 </r>
       <r>   -13.5875     0.0000    48.0000 </r>
       <r>   -13.3416     0.0000    48.0000 </r>
       <r>   -13.0956     0.0000    48.0000 </r>
       <r>   -12.8496     0.0000    48.0000 </r>
       <r>   -12.6036     0.0000    48.0000 </r>
       <r>   -12.3576     0.0000    48.0000 </r>
       <r>   -12.1117     0.0000    48.0000 </r>
       <r>   -11.8657     0.0000    48.0000 </r>
       <r>   -11.6197     0.0000    48.0000 </r>
       <r>   -11.3737     0.0000    48.0000 </r>
       <r>   -11.1277     0.0000    48.0000 </r>
       <r>   -10.8818     0.0000    48.0000 </r>
       <r>   -10.6358     0.0000    48.0000 </r>
       <r>   -10.3898     0.0000    48.0000 </r>
       <r>   -10.1438     0.0000    48.0000 </r>
       <r>    -9.8978     0.0000    48.0000 </r>
       <r>    -9.6519     0.0000    48.0000 </r>
       <r>    -9.4059     0.0000    48.0000 </r>
       <r>    -9.1599     0.0000    48.0000 </r>
       <r>    -8.9139     0.0000    48.0000 </r>
       <r>    -8.6679     0.0000    48.0000 </r>
       <r>    -8.4220     0.0000    48.0000 </r>
       <r>    -8.1760     0.0000    48.0000 </r>
       <r>    -7.9300     0.0000    48.0000 </r>
       <r>    -7.6840     0.0000    48.0000 </r>
       <r>    -7.4380     0.0000    48.0000 </r>
       <r>    -7.1921     0.0000    48.0000 </r>
       <r>    -6.9461     0.0000    48.0000 </r>
       <r>    -6.7001     0.0000    48.0000 </r>
       <r>    -6.4541     0.0000    48.0000 </r>
       <r>    -6.2081     0.0000    48.0000 </r>
       <r>    -5.9622     0.0000    48.0000 </r>
       <r>    -5.7162     0.4398    48.1082 </r>
       <r>    -5.4702     1.2155    48.4339 </r>
       <r>    -5.2242     1.6031    48.9102 </r>
       <r>    -4.9782     1.7899    49.6466 </r>
       <r>    -4.7323     1.9764    50.4862 </r>
       <r>    -4.4863     1.8475    51.0735 </r>
       <r>    -4.2403     0.9146    51.5265 </r>
       <r>    -3.9943     0.8569    51.8219 </r>
       <r>    -3.7483     0.0412    51.8911 </r>
       <r>    -3.5024     0.3226    51.9921 </r>
       <r>    -3.2564     0.0248    51.9982 </r>
       <r>    -3.0104     0.0000    52.0000 </r>
       <r>    -2.7644     0.0000    52.0000 </r>
       <r>    -2.5184     0.0000    52.0000 </r>
       <r>    -2.2725     0.2370    52.0583 </r>
       <r>    -2.0265     4.0614    53.1895 </r>
       <r>    -1.7805     6.6282    55.7574 </r>
       <r>    -1.5345     3.4657    57.7176 </r>
       <r>    -1.2885     5.1680    59.8823 </r>
       <r>    -1.0426     1.7877    60.7810 </r>
       <r>    -0.7966     2.2606    61.5640 </r>
       <r>    -0.5506     1.1661    61.9932 </r>
       <r>    -0.3046     2.7403    62.8328 </r>
       <r>    -0.0586     1.5132    63.3564 </r>
       <r>     0.1873     4.5795    64.8566 </r>
       <r>     0.4333     3.3914    66.4850 </r>
       <r>     0.6793     4.1331    67.9849 </r>
       <r>     0.9253     3.6657    69.1795 </r>
       <r>     1.1713     3.7702    70.4512 </r>
       <r>     1.4172     4.0808    71.6546 </r>
       <r>     1.6632     4.2444    73.4885 </r>
       <r>     1.9092     3.8297    74.7436 </r>
       <r>     2.1552     4.6793    76.5716 </r>
       <r>     2.4012     6.0403    78.5572 </r>
       <r>     2.6472     6.1633    80.8097 </r>
       <r>     2.8931     9.4156    84.3399 </r>
       <r>     3.1391     6.0069    87.0966 </r>
       <r>     3.3851     5.0479    88.9322 </r>
       <r>     3.6311     4.9961    90.8004 </r>
       <r>     3.8771     4.5347    92.7266 </r>
       <r>     4.1230     3.5528    94.0247 </r>
       <r>     4.3690     4.5370    95.5446 </r>
       <r>     4.6150     4.7187    97.3988 </r>
       <r>     4.8610     5.9469    99.3914 </r>
       <r>     5.1070     5.8924   101.4732 </r>
       <r>     5.3529     7.2810   104.0529 </r>
       <r>     5.5989     6.6539   106.3669 </r>
       <r>     5.8449     4.7667   108.2757 </r>
       <r>     6.0909     4.7993   110.0853 </r>
       <r>     6.3369     6.1236   112.2126 </r>
       <r>     6.5828     7.1601   114.8724 </r>
       <r>     6.8288     6.1955   117.1351 </r>
       <r>     7.0748     6.0462   119.3047 </r>
       <r>     7.3208     4.6815   121.0881 </r>
       <r>     7.5668     7.3558   123.7459 </r>
       <r>     7.8127     5.5945   126.1301 </r>
       <r>     8.0587     8.0856   129.3222 </r>
       <r>     8.3047     5.7363   131.5142 </r>
       <r>     8.5507     4.7126   133.2148 </r>
       <r>     8.7967     4.5304   134.5906 </r>
       <r>     9.0426     3.7338   136.1962 </r>
       <r>     9.2886     7.8051   138.8882 </r>
       <r>     9.5346     3.7896   140.4004 </r>
       <r>     9.7806     2.5758   141.7050 </r>
       <r>    10.0266     1.5385   142.3388 </r>
       <r>    10.2725     1.8813   143.0580 </r>
       <r>    10.5185     1.7134   143.6199 </r>
       <r>    10.7645     0.4291   143.8675 </r>
       <r>    11.0105     0.3226   143.9683 </r>
       <r>    11.2565     0.1291   144.0000 </r>
       <r>    11.5024     0.0000   144.0000 </r>
       <r>    11.7484     0.0000   144.0000 </r>
       <r>    11.9944     0.0000   144.0000 </r>
       <r>    12.2404     0.0000   144.0000 </r>
       <r>    12.4864     0.0000   144.0000 </r>
       <r>    12.7323     0.0000   144.0000 </r>
       <r>    12.9783     0.0000   144.0000 </r>
       <r>    13.2243     0.0000   144.0000 </r>
       <r>    13.4703     0.0000   144.0000 </r>
       <r>    13.7163     0.0000   144.0000 </r>
       <r>    13.9622     0.0000   144.0000 </r>
       <r>    14.2082     0.0000   144.0000 </r>
       <r>    14.4542     0.0000   144.0000 </r>
      </set>
     </set>
    </array>
   </total>
  </dos>
 </calculation>
 <structure name="finalpos" >
  <crystal>
   <varray name="basis" >
    <v>       6.14430414       0.00000000      -2.85456795 </v>
    <v>      -2.50156275       5.61201008      -2.85456795 </v>
    <v>       0.00000000       0.00000000       6.77503000 </v>
   </varray>
   <i name="volume">    233.61588485 </i>
   <varray name="rec_basis" >
    <v>       0.16275236       0.07254713       0.00000000 </v>
    <v>       0.00000000       0.17818927       0.00000000 </v>
    <v>       0.06857352       0.10564442       0.14760082 </v>
   </varray>
  </crystal>
  <varray name="positions" >
   <v>       0.30462000       0.46560000       0.77022000 </v>
   <v>       0.69538000       0.53440000       0.22978000 </v>
   <v>       0.46560000       0.69538000       0.16099000 </v>
   <v>       0.53440000       0.30462000       0.83901000 </v>
   <v>       0.19538000       0.96560000       0.16099000 </v>
   <v>       0.80462000       0.03440000       0.83901000 </v>
   <v>       0.03440000       0.19538000       0.22978000 </v>
   <v>       0.96560000       0.80462000       0.77022000 </v>
   <v>       0.24455000       0.74455000       0.98911000 </v>
   <v>       0.50000000       0.00000000       0.50000000 </v>
   <v>       0.75545000       0.25545000       0.01089000 </v>
   <v>       0.74455000       0.75545000       0.50000000 </v>
   <v>       0.00000000       0.50000000       0.50000000 </v>
   <v>       0.25545000       0.24455000       0.50000000 </v>
   <v>       0.25000000       0.25000000       0.00000000 </v>
   <v>       0.75000000       0.75000000       0.00000000 </v>
  </varray>
 </structure>
</modeling>
