 vasp.6.2.0 18Jan21 (build Jan 05 2022 15:41:44) complex                        
  
 executed on             LinuxIFC date 2025.05.07  19:10:54
 running on   24 total cores
 distrk:  each k-point on   12 cores,    2 groups
 distr:  one band on NCORE=   2 cores,    6 groups


--------------------------------------------------------------------------------------------------------


 INCAR:
   SYSTEM = routine with relax: pwdword
   ICHARG = 2
   NPAR = 6
   KPAR = 2
   NCORE = 2
   ADDGRID = T
   PREC = Acc
   ENCUT = 600
   METAGGA = R2SCAN
   LASPH = .TRUE.
   LMIXTAU = .FALSE.
   ALGO = A
   EDIFF = 1E-9
   NELM = 100
   NELMIN = 6
   IALGO = 38
   LREAL = F
   NSW = 0
   ISIF = -1
   ISMEAR = 0
   SIGMA = 0.02
   SYMPREC = 1E-4

 POTCAR:    PAW_PBE B 06Sep2000                   
 POTCAR:    PAW_PBE Mo_sv 02Feb2006               
 POTCAR:    PAW_PBE Si 05Jan2001                  
 -----------------------------------------------------------------------------
|                                                                             |
|           W    W    AA    RRRRR   N    N  II  N    N   GGGG   !!!           |
|           W    W   A  A   R    R  NN   N  II  NN   N  G    G  !!!           |
|           W    W  A    A  R    R  N N  N  II  N N  N  G       !!!           |
|           W WW W  AAAAAA  RRRRR   N  N N  II  N  N N  G  GGG   !            |
|           WW  WW  A    A  R   R   N   NN  II  N   NN  G    G                |
|           W    W  A    A  R    R  N    N  II  N    N   GGGG   !!!           |
|                                                                             |
|     For optimal performance we recommend to set                             |
|       NCORE = 2 up to number-of-cores-per-socket                            |
|     NCORE specifies how many cores store one orbital (NPAR=cpu/NCORE).      |
|     This setting can greatly improve the performance of VASP for DFT.       |
|     The default, NCORE=1 might be grossly inefficient on modern             |
|     multi-core architectures or massively parallel machines. Do your        |
|     own testing! More info at https://www.vasp.at/wiki/index.php/NCORE      |
|     Unfortunately you need to use the default for GW and RPA                |
|     calculations (for HF NCORE is supported but not extensively tested      |
|     yet).                                                                   |
|                                                                             |
 -----------------------------------------------------------------------------

 POTCAR:    PAW_PBE B 06Sep2000                   
   VRHFIN =B: s2p1                                                                                  
   LEXCH  = PE                                                                                      
   EATOM  =    71.1703 eV,    5.2309 Ry                                                             
                                                                                                    
   TITEL  = PAW_PBE B 06Sep2000                                                                     
   LULTRA =        F    use ultrasoft PP ?                                                          
   IUNSCR =        1    unscreen: 0-lin 1-nonlin 2-no                                               
   RPACOR =    1.200    partial core radius                                                         
   POMASS =   10.811; ZVAL   =    3.000    mass and valenz                                          
   RCORE  =    1.700    outmost cutoff radius                                                       
   RWIGS  =    1.710; RWIGS  =    0.905    wigner-seitz radius (au A)                               
   ENMAX  =  318.614; ENMIN  =  238.960 eV                                                          
   ICORE  =        2    local potential                                                             
   LCOR   =        T    correct aug charges                                                         
   LPAW   =        T    paw PP                                                                      
   EAUG   =  535.514                                                                                
   DEXC   =    0.000                                                                                
   RMAX   =    1.732    core radius for proj-oper                                                   
   RAUG   =    1.300    factor for augmentation sphere                                              
   RDEP   =    1.757    radius for radial grids                                                     
   RDEPT  =    1.436    core radius for aug-charge                                                  
                                                                                                    
   Atomic configuration                                                                             
    4 entries                                                                                       
     n  l   j            E        occ.                                                              
     1  0  0.50      -180.5896   2.0000                                                             
     2  0  0.50        -9.4431   2.0000                                                             
     2  1  0.50        -3.6068   1.0000                                                             
     3  2  1.50        -4.0817   0.0000                                                             
   Description                                                                                      
     l       E           TYP  RCUT    TYP  RCUT                                                     
     0     -9.4430752     23  1.500                                                                 
     0      0.8675899     23  1.500                                                                 
     1     -3.6067955     23  1.700                                                                 
     1      6.1086146     23  1.700                                                                 
     2     -4.0817478      7  1.700                                                                 
  local pseudopotential read in
  partial core-charges read in
  partial kinetic energy density read in
  atomic valenz-charges read in
  non local Contribution for L=           0  read in
    real space projection operators read in
  non local Contribution for L=           0  read in
    real space projection operators read in
  non local Contribution for L=           1  read in
    real space projection operators read in
  non local Contribution for L=           1  read in
    real space projection operators read in
    PAW grid and wavefunctions read in
 
   number of l-projection  operators is LMAX  =           4
   number of lm-projection operators is LMMAX =           8
 
 POTCAR:    PAW_PBE Mo_sv 02Feb2006               
   VRHFIN =Mo: 4p5s4d                                                                               
   LEXCH  = PE                                                                                      
   EATOM  =  1862.2866 eV,  136.8742 Ry                                                             
                                                                                                    
   TITEL  = PAW_PBE Mo_sv 02Feb2006                                                                 
   LULTRA =        F    use ultrasoft PP ?                                                          
   IUNSCR =        1    unscreen: 0-lin 1-nonlin 2-no                                               
   RPACOR =    2.200    partial core radius                                                         
   POMASS =   95.940; ZVAL   =   14.000    mass and valenz                                          
   RCORE  =    2.500    outmost cutoff radius                                                       
   RWIGS  =    2.750; RWIGS  =    1.455    wigner-seitz radius (au A)                               
   ENMAX  =  242.676; ENMIN  =  182.007 eV                                                          
   ICORE  =        3    local potential                                                             
   LCOR   =        T    correct aug charges                                                         
   LPAW   =        T    paw PP                                                                      
   EAUG   =  446.014                                                                                
   DEXC   =    0.000                                                                                
   RMAX   =    2.563    core radius for proj-oper                                                   
   RAUG   =    1.300    factor for augmentation sphere                                              
   RDEP   =    2.641    radius for radial grids                                                     
   RDEPT  =    2.031    core radius for aug-charge                                                  
                                                                                                    
   Atomic configuration                                                                             
   11 entries                                                                                       
     n  l   j            E        occ.                                                              
     1  0  0.50    -19819.0341   2.0000                                                             
     2  0  0.50     -2799.0127   2.0000                                                             
     2  1  1.50     -2502.0276   6.0000                                                             
     3  0  0.50      -476.4449   2.0000                                                             
     3  1  1.50      -379.1496   6.0000                                                             
     3  2  2.50      -220.9367  10.0000                                                             
     4  0  0.50       -64.3378   2.0000                                                             
     5  0  0.50        -4.0862   1.0000                                                             
     4  1  1.50       -38.4773   6.0000                                                             
     4  2  2.50        -3.7535   5.0000                                                             
     4  3  2.50        -1.3606   0.0000                                                             
   Description                                                                                      
     l       E           TYP  RCUT    TYP  RCUT                                                     
     0    -64.3377829     23  2.100                                                                 
     0     -4.0861640     23  2.400                                                                 
     1    -38.4772993     23  2.100                                                                 
     1     13.6058260     23  2.100                                                                 
     2     -3.7534941     23  2.400                                                                 
     2     -5.1140767     23  2.400                                                                 
     3     -4.0817478     23  2.500                                                                 
  local pseudopotential read in
  partial core-charges read in
  partial kinetic energy density read in
  atomic valenz-charges read in
  non local Contribution for L=           0  read in
    real space projection operators read in
  non local Contribution for L=           0  read in
    real space projection operators read in
  non local Contribution for L=           1  read in
    real space projection operators read in
  non local Contribution for L=           1  read in
    real space projection operators read in
  non local Contribution for L=           2  read in
    real space projection operators read in
  non local Contribution for L=           2  read in
    real space projection operators read in
    PAW grid and wavefunctions read in
 
   number of l-projection  operators is LMAX  =           6
   number of lm-projection operators is LMMAX =          18
 
 POTCAR:    PAW_PBE Si 05Jan2001                  
   VRHFIN =Si: s2p2                                                                                 
   LEXCH  = PE                                                                                      
   EATOM  =   103.0669 eV,    7.5752 Ry                                                             
                                                                                                    
   TITEL  = PAW_PBE Si 05Jan2001                                                                    
   LULTRA =        F    use ultrasoft PP ?                                                          
   IUNSCR =        1    unscreen: 0-lin 1-nonlin 2-no                                               
   RPACOR =    1.500    partial core radius                                                         
   POMASS =   28.085; ZVAL   =    4.000    mass and valenz                                          
   RCORE  =    1.900    outmost cutoff radius                                                       
   RWIGS  =    2.480; RWIGS  =    1.312    wigner-seitz radius (au A)                               
   ENMAX  =  245.345; ENMIN  =  184.009 eV                                                          
   ICORE  =        2    local potential                                                             
   LCOR   =        T    correct aug charges                                                         
   LPAW   =        T    paw PP                                                                      
   EAUG   =  322.069                                                                                
   DEXC   =    0.000                                                                                
   RMAX   =    1.950    core radius for proj-oper                                                   
   RAUG   =    1.300    factor for augmentation sphere                                              
   RDEP   =    1.993    radius for radial grids                                                     
   RDEPT  =    1.837    core radius for aug-charge                                                  
                                                                                                    
   Atomic configuration                                                                             
    6 entries                                                                                       
     n  l   j            E        occ.                                                              
     1  0  0.50     -1785.8828   2.0000                                                             
     2  0  0.50      -139.4969   2.0000                                                             
     2  1  1.50       -95.5546   6.0000                                                             
     3  0  0.50       -10.8127   2.0000                                                             
     3  1  0.50        -4.0811   2.0000                                                             
     3  2  1.50        -4.0817   0.0000                                                             
   Description                                                                                      
     l       E           TYP  RCUT    TYP  RCUT                                                     
     0    -10.8127223     23  1.900                                                                 
     0     -7.6451159     23  1.900                                                                 
     1     -4.0811372     23  1.900                                                                 
     1      2.4879257     23  1.900                                                                 
     2     -4.0817478      7  1.900                                                                 
  local pseudopotential read in
  partial core-charges read in
  partial kinetic energy density read in
  atomic valenz-charges read in
  non local Contribution for L=           0  read in
    real space projection operators read in
  non local Contribution for L=           0  read in
    real space projection operators read in
  non local Contribution for L=           1  read in
    real space projection operators read in
  non local Contribution for L=           1  read in
    real space projection operators read in
    PAW grid and wavefunctions read in
 
   number of l-projection  operators is LMAX  =           4
   number of lm-projection operators is LMMAX =           8
 
 -----------------------------------------------------------------------------
|                                                                             |
|               ----> ADVICE to this user running VASP <----                  |
|                                                                             |
|     You have a (more or less) 'large supercell' and for larger cells it     |
|     might be more efficient to use real-space projection operators.         |
|     Therefore, try LREAL= Auto in the INCAR file.                           |
|     Mind: For very accurate calculation, you might also keep the            |
|     reciprocal projection scheme (i.e. LREAL=.FALSE.).                      |
|                                                                             |
 -----------------------------------------------------------------------------

  PAW_PBE B 06Sep2000                   :
 energy of atom  1       EATOM=  -71.1703
 kinetic energy error for atom=    0.0007 (will be added to EATOM!!)
  PAW_PBE Mo_sv 02Feb2006               :
 energy of atom  2       EATOM=-1862.2866
 kinetic energy error for atom=    0.0041 (will be added to EATOM!!)
  PAW_PBE Si 05Jan2001                  :
 energy of atom  3       EATOM= -103.0669
 kinetic energy error for atom=    0.0003 (will be added to EATOM!!)
 
 
 POSCAR: EA157
  positions in direct lattice
  No initial velocities read in

 METAGGA = R2SCA    LMAXTAU =  6    LMIXTAU =  F

 exchange correlation table for  LEXCH =        8
   RHO(1)=    0.500       N(1)  =     2000
   RHO(2)=  100.500       N(2)  =     4000
 


--------------------------------------------------------------------------------------------------------


 ion  position               nearest neighbor table
   1  0.685  0.854  0.828-   8 1.79   9 1.80  21 1.97  20 2.45  22 2.49
   2  0.975  0.143  0.828-   4 1.80   7 1.80  21 1.97  20 2.45  22 2.49
   3  0.025  0.857  0.172-   8 1.80   9 1.80  21 1.97  18 2.45  17 2.49
   4  0.143  0.315  0.169-  15 1.79   2 1.80  21 1.97  17 2.45  20 2.49
   5  0.646  0.815  0.172-  14 1.79  10 1.80  19 1.97  18 2.45  22 2.49
   6  0.354  0.185  0.828-  13 1.79  16 1.80  19 1.97  20 2.45  17 2.49
   7  0.146  0.975  0.831-  15 1.80   2 1.80  21 1.97  22 2.45  18 2.49
   8  0.857  0.685  0.831-   1 1.79   3 1.80  21 1.97  22 2.45  18 2.49
   9  0.854  0.025  0.169-   1 1.80   3 1.80  21 1.97  17 2.45  20 2.49
  10  0.475  0.646  0.831-   5 1.80  12 1.80  19 1.97  17 2.45  18 2.49
  11  0.357  0.525  0.172-  13 1.80  16 1.80  19 1.97  18 2.45  22 2.49
  12  0.643  0.475  0.828-  14 1.80  10 1.80  19 1.97  20 2.45  17 2.49
  13  0.185  0.357  0.831-   6 1.79  11 1.80  19 1.97  17 2.45  18 2.49
  14  0.815  0.643  0.169-   5 1.79  12 1.80  19 1.97  22 2.45  20 2.49
  15  0.315  0.146  0.172-   4 1.79   7 1.80  21 1.97  18 2.45  17 2.49
  16  0.525  0.354  0.169-   6 1.80  11 1.80  19 1.97  22 2.45  20 2.49
  17  0.243  0.257  0.500-   9 2.45  10 2.45   4 2.45  13 2.45   6 2.49  15 2.49   3 2.49  12 2.49
                            23 2.56  21 2.64  19 2.64  24 2.71
  18  0.257  0.757  0.014-   3 2.45  11 2.45  15 2.45   5 2.45   7 2.49  10 2.49  13 2.49   8 2.49
                            24 2.56  21 2.64  19 2.64  23 2.71
  19  0.500  0.500  0.000-  10 1.97  16 1.97   5 1.97   6 1.97  14 1.97  13 1.97  12 1.97  11 1.97
                            18 2.64  20 2.64  22 2.64  17 2.64
  20  0.743  0.243  0.986-   2 2.45  12 2.45   6 2.45   1 2.45   9 2.49  16 2.49  14 2.49   4 2.49
                            24 2.56  21 2.64  19 2.64  23 2.71
  21  0.000  0.000  0.000-   7 1.97   9 1.97   1 1.97  15 1.97   4 1.97   8 1.97   3 1.97   2 1.97
                            18 2.64  20 2.64  17 2.64  22 2.64
  22  0.757  0.743  0.500-   7 2.45  16 2.45  14 2.45   8 2.45   1 2.49   5 2.49   2 2.49  11 2.49
                            23 2.56  21 2.64  19 2.64  24 2.71
  23  0.000  0.500  0.500-  17 2.56  22 2.56  18 2.71  20 2.71
  24  0.500  0.000  0.500-  18 2.56  20 2.56  17 2.71  22 2.71
 
  LATTYP: Found a body centered tetragonal cell.
 ALAT       =     7.4530962513
 C/A-ratio  =     1.3967597680
  
  Lattice vectors:
  
 A1 = (   6.4411960952,   0.0000000000,  -3.6576218068)
 A2 = (  -2.1827352746,   6.0600886014,  -3.6576218068)
 A3 = (   0.0000000000,   0.0000000000,   7.4072400000)


Analysis of symmetry for initial positions (statically):
=====================================================================
 Subroutine PRICEL returns:
 Original cell was already a primitive cell.
 

 Routine SETGRP: Setting up the symmetry group for a 
 body centered tetragonal supercell.


 Subroutine GETGRP returns: Found 16 space group operations
 (whereof  8 operations were pure point group operations)
 out of a pool of 16 trial point group operations.


The static configuration has the point symmetry C_4h.
 The point group associated with its full space group is D_4h.


Analysis of symmetry for dynamics (positions and initial velocities):
=====================================================================
 Subroutine PRICEL returns:
 Original cell was already a primitive cell.
 

 Routine SETGRP: Setting up the symmetry group for a 
 body centered tetragonal supercell.


 Subroutine GETGRP returns: Found 16 space group operations
 (whereof  8 operations were pure point group operations)
 out of a pool of 16 trial point group operations.


The dynamic configuration has the point symmetry C_4h.
 The point group associated with its full space group is D_4h.


 Subroutine INISYM returns: Found 16 space group operations
 (whereof  8 operations are pure point group operations),
 and found     1 'primitive' translations


----------------------------------------------------------------------------------------

                                     Primitive cell                                     

  volume of cell :     289.1358

  direct lattice vectors                    reciprocal lattice vectors
     6.441196095  0.000000000 -3.657621807     0.155250669  0.055918508  0.000000000
    -2.182735275  6.060088601 -3.657621807     0.000000000  0.165014089  0.000000000
     0.000000000  0.000000000  7.407240000     0.076661244  0.109094330  0.135003051

  length of vectors
     7.407240000  7.407240000  7.407240000     0.165014089  0.165014089  0.189748104

  position of ions in fractional coordinates (direct lattice)
     0.684780000  0.853510000  0.828140000
     0.974630000  0.143370000  0.828140000
     0.025370000  0.856630000  0.171860000
     0.143370000  0.315220000  0.168730000
     0.646490000  0.815220000  0.171860000
     0.353510000  0.184780000  0.828140000
     0.146490000  0.974630000  0.831270000
     0.856630000  0.684780000  0.831270000
     0.853510000  0.025370000  0.168730000
     0.474630000  0.646490000  0.831270000
     0.356630000  0.525370000  0.171860000
     0.643370000  0.474630000  0.828140000
     0.184780000  0.356630000  0.831270000
     0.815220000  0.643370000  0.168730000
     0.315220000  0.146490000  0.171860000
     0.525370000  0.353510000  0.168730000
     0.242770000  0.257230000  0.500000000
     0.257230000  0.757230000  0.014460000
     0.500000000  0.500000000  0.000000000
     0.742770000  0.242770000  0.985540000
     0.000000000  0.000000000  0.000000000
     0.757230000  0.742770000  0.500000000
     0.000000000  0.500000000  0.500000000
     0.500000000  0.000000000  0.500000000

  ion indices of the primitive-cell ions
   primitive index   ion index
                 1           1
                 2           2
                 3           3
                 4           4
                 5           5
                 6           6
                 7           7
                 8           8
                 9           9
                10          10
                11          11
                12          12
                13          13
                14          14
                15          15
                16          16
                17          17
                18          18
                19          19
                20          20
                21          21
                22          22
                23          23
                24          24

----------------------------------------------------------------------------------------

 
 
 KPOINTS: EA                                      

Automatic generation of k-mesh.
 Grid dimensions read from file:
 generate k-points for:    6    6    7

 Generating k-lattice:

  Cartesian coordinates                     Fractional coordinates (reciprocal lattice)
     0.025875111  0.009319751  0.000000000     0.166666667  0.000000000  0.000000000
     0.000000000  0.027502348  0.000000000     0.000000000  0.166666667  0.000000000
     0.010951606  0.015584904  0.019286150     0.000000000  0.000000000  0.142857143

  Length of vectors
     0.027502348  0.027502348  0.027106872

  Shift w.r.t. Gamma in fractional coordinates (k-lattice)
     0.000000000  0.000000000  0.000000000

 -----------------------------------------------------------------------------
|                                                                             |
|           W    W    AA    RRRRR   N    N  II  N    N   GGGG   !!!           |
|           W    W   A  A   R    R  NN   N  II  NN   N  G    G  !!!           |
|           W    W  A    A  R    R  N N  N  II  N N  N  G       !!!           |
|           W WW W  AAAAAA  RRRRR   N  N N  II  N  N N  G  GGG   !            |
|           WW  WW  A    A  R   R   N   NN  II  N   NN  G    G                |
|           W    W  A    A  R    R  N    N  II  N    N   GGGG   !!!           |
|                                                                             |
|     Your reciprocal lattice and k-lattice belong to different lattice       |
|     classes:                                                                |
|                                                                             |
|        The reciprocal lattice is body-centered tetragonal,                  |
|        whereas your k-lattice is base-centered monoclinic.                  |
|                                                                             |
|     Results are often still useful ...                                      |
|                                                                             |
 -----------------------------------------------------------------------------

 WARNING: IBZKPT: internal override: KBLOWUP is changed to .FALSE.
      ... skipping the blow-up phase ...

 
 Subroutine IBZKPT returns following result:
 ===========================================
 
 Found     76 irreducible k-points:
 
 Following reciprocal coordinates:
            Coordinates               Weight
  0.000000  0.000000  0.000000      1.000000
  0.166667  0.000000  0.000000      4.000000
  0.333333 -0.000000  0.000000      4.000000
  0.500000  0.000000  0.000000      2.000000
  0.166667  0.166667  0.000000      2.000000
  0.333333  0.166667  0.000000      4.000000
  0.500000  0.166667  0.000000      4.000000
 -0.333333  0.166667  0.000000      4.000000
 -0.166667  0.166667  0.000000      2.000000
  0.333333  0.333333  0.000000      2.000000
  0.500000  0.333333  0.000000      4.000000
 -0.333333  0.333333  0.000000      2.000000
  0.500000  0.500000  0.000000      1.000000
  0.000000  0.000000  0.142857      2.000000
  0.166667  0.000000  0.142857      4.000000
  0.333333  0.000000  0.142857      4.000000
  0.500000  0.000000  0.142857      4.000000
 -0.333333  0.000000  0.142857      4.000000
 -0.166667  0.000000  0.142857      4.000000
  0.166667  0.166667  0.142857      2.000000
  0.333333  0.166667  0.142857      4.000000
  0.500000  0.166667  0.142857      4.000000
 -0.333333  0.166667  0.142857      4.000000
 -0.166667  0.166667  0.142857      4.000000
  0.333333  0.333333  0.142857      2.000000
  0.500000  0.333333  0.142857      4.000000
 -0.333333  0.333333  0.142857      4.000000
 -0.166667  0.333333  0.142857      4.000000
  0.500000  0.500000  0.142857      2.000000
 -0.333333  0.500000  0.142857      4.000000
 -0.166667  0.500000  0.142857      4.000000
 -0.333333 -0.333333  0.142857      2.000000
 -0.166667 -0.333333  0.142857      4.000000
 -0.166667 -0.166667  0.142857      2.000000
  0.000000 -0.000000  0.285714      2.000000
  0.166667  0.000000  0.285714      4.000000
  0.333333  0.000000  0.285714      4.000000
  0.500000 -0.000000  0.285714      4.000000
 -0.333333  0.000000  0.285714      4.000000
 -0.166667 -0.000000  0.285714      4.000000
  0.166667  0.166667  0.285714      2.000000
  0.333333  0.166667  0.285714      4.000000
  0.500000  0.166667  0.285714      4.000000
 -0.333333  0.166667  0.285714      4.000000
 -0.166667  0.166667  0.285714      4.000000
  0.333333  0.333333  0.285714      2.000000
  0.500000  0.333333  0.285714      4.000000
 -0.333333  0.333333  0.285714      4.000000
 -0.166667  0.333333  0.285714      4.000000
  0.500000  0.500000  0.285714      2.000000
 -0.333333  0.500000  0.285714      4.000000
 -0.166667  0.500000  0.285714      4.000000
 -0.333333 -0.333333  0.285714      2.000000
 -0.166667 -0.333333  0.285714      4.000000
 -0.166667 -0.166667  0.285714      2.000000
  0.000000  0.000000  0.428571      2.000000
  0.166667 -0.000000  0.428571      4.000000
  0.333333 -0.000000  0.428571      4.000000
  0.500000 -0.000000  0.428571      4.000000
 -0.333333  0.000000  0.428571      4.000000
 -0.166667 -0.000000  0.428571      4.000000
  0.166667  0.166667  0.428571      2.000000
  0.333333  0.166667  0.428571      4.000000
  0.500000  0.166667  0.428571      4.000000
 -0.333333  0.166667  0.428571      4.000000
 -0.166667  0.166667  0.428571      4.000000
  0.333333  0.333333  0.428571      2.000000
  0.500000  0.333333  0.428571      4.000000
 -0.333333  0.333333  0.428571      4.000000
 -0.166667  0.333333  0.428571      4.000000
  0.500000  0.500000  0.428571      2.000000
 -0.333333  0.500000  0.428571      4.000000
 -0.166667  0.500000  0.428571      4.000000
 -0.333333 -0.333333  0.428571      2.000000
 -0.166667 -0.333333  0.428571      4.000000
 -0.166667 -0.166667  0.428571      2.000000
 
 Following cartesian coordinates:
            Coordinates               Weight
  0.000000  0.000000  0.000000      1.000000
  0.025875  0.009320  0.000000      4.000000
  0.051750  0.018640  0.000000      4.000000
  0.077625  0.027959  0.000000      2.000000
  0.025875  0.036822  0.000000      2.000000
  0.051750  0.046142  0.000000      4.000000
  0.077625  0.055462  0.000000      4.000000
 -0.051750  0.008863  0.000000      4.000000
 -0.025875  0.018183  0.000000      2.000000
  0.051750  0.073644  0.000000      2.000000
  0.077625  0.082964  0.000000      4.000000
 -0.051750  0.036365  0.000000      2.000000
  0.077625  0.110466  0.000000      1.000000
  0.010952  0.015585  0.019286      2.000000
  0.036827  0.024905  0.019286      4.000000
  0.062702  0.034224  0.019286      4.000000
  0.088577  0.043544  0.019286      4.000000
 -0.040799 -0.003055  0.019286      4.000000
 -0.014924  0.006265  0.019286      4.000000
  0.036827  0.052407  0.019286      2.000000
  0.062702  0.061727  0.019286      4.000000
  0.088577  0.071047  0.019286      4.000000
 -0.040799  0.024448  0.019286      4.000000
 -0.014924  0.033768  0.019286      4.000000
  0.062702  0.089229  0.019286      2.000000
  0.088577  0.098549  0.019286      4.000000
 -0.040799  0.051950  0.019286      4.000000
 -0.014924  0.061270  0.019286      4.000000
  0.088577  0.126051  0.019286      2.000000
 -0.040799  0.079452  0.019286      4.000000
 -0.014924  0.088772  0.019286      4.000000
 -0.040799 -0.058059  0.019286      2.000000
 -0.014924 -0.048740  0.019286      4.000000
 -0.014924 -0.021237  0.019286      2.000000
  0.021903  0.031170  0.038572      2.000000
  0.047778  0.040490  0.038572      4.000000
  0.073653  0.049809  0.038572      4.000000
  0.099529  0.059129  0.038572      4.000000
 -0.029847  0.012530  0.038572      4.000000
 -0.003972  0.021850  0.038572      4.000000
  0.047778  0.067992  0.038572      2.000000
  0.073653  0.077312  0.038572      4.000000
  0.099529  0.086631  0.038572      4.000000
 -0.029847  0.040033  0.038572      4.000000
 -0.003972  0.049352  0.038572      4.000000
  0.073653  0.104814  0.038572      2.000000
  0.099529  0.114134  0.038572      4.000000
 -0.029847  0.067535  0.038572      4.000000
 -0.003972  0.076855  0.038572      4.000000
  0.099529  0.141636  0.038572      2.000000
 -0.029847  0.095037  0.038572      4.000000
 -0.003972  0.104357  0.038572      4.000000
 -0.029847 -0.042474  0.038572      2.000000
 -0.003972 -0.033155  0.038572      4.000000
 -0.003972 -0.005652  0.038572      2.000000
  0.032855  0.046755  0.057858      2.000000
  0.058730  0.056074  0.057858      4.000000
  0.084605  0.065394  0.057858      4.000000
  0.110480  0.074714  0.057858      4.000000
 -0.018895  0.028115  0.057858      4.000000
  0.006980  0.037435  0.057858      4.000000
  0.058730  0.083577  0.057858      2.000000
  0.084605  0.092897  0.057858      4.000000
  0.110480  0.102216  0.057858      4.000000
 -0.018895  0.055618  0.057858      4.000000
  0.006980  0.064937  0.057858      4.000000
  0.084605  0.120399  0.057858      2.000000
  0.110480  0.129719  0.057858      4.000000
 -0.018895  0.083120  0.057858      4.000000
  0.006980  0.092440  0.057858      4.000000
  0.110480  0.157221  0.057858      2.000000
 -0.018895  0.110622  0.057858      4.000000
  0.006980  0.119942  0.057858      4.000000
 -0.018895 -0.026889  0.057858      2.000000
  0.006980 -0.017570  0.057858      4.000000
  0.006980  0.009933  0.057858      2.000000
 


--------------------------------------------------------------------------------------------------------




 Dimension of arrays:
   k-points           NKPTS =     76   k-points in BZ     NKDIM =     76   number of bands    NBANDS=     84
   number of dos      NEDOS =    301   number of ions     NIONS =     24
   non local maximal  LDIM  =      6   non local SUM 2l+1 LMDIM =     18
   total plane-waves  NPLWV = 216000
   max r-space proj   IRMAX =      1   max aug-charges    IRDMAX= 261528
   dimension x,y,z NGX =    60 NGY =   60 NGZ =   60
   dimension x,y,z NGXF=   120 NGYF=  120 NGZF=  120
   support grid    NGXF=   240 NGYF=  240 NGZF=  240
   ions per type =              16   6   2
   NGX,Y,Z   is equivalent  to a cutoff of  13.47, 13.47, 13.47 a.u.
   NGXF,Y,Z  is equivalent  to a cutoff of  26.93, 26.93, 26.93 a.u.

 SYSTEM =  routine with relax: pwdword             
 POSCAR =  EA157                                   

 Startparameter for this run:
   NWRITE =      2    write-flag & timer
   PREC   = acc       normal or accurate (medium, high low for compatibility)
   ISTART =      0    job   : 0-new  1-cont  2-samecut
   ICHARG =      2    charge: 1-file 2-atom 10-const
   ISPIN  =      1    spin polarized calculation?
   LNONCOLLINEAR =      F non collinear calculations
   LSORBIT =      F    spin-orbit coupling
   INIWAV =      1    electr: 0-lowe 1-rand  2-diag
   LASPH  =      T    aspherical Exc in radial PAW
   METAGGA=      F    non-selfconsistent MetaGGA calc.

 Electronic Relaxation 1
   ENCUT  =  600.0 eV  44.10 Ry    6.64 a.u.  14.79 14.79 14.79*2*pi/ulx,y,z
   ENINI  =  600.0     initial cutoff
   ENAUG  =  535.5 eV  augmentation charge cutoff
   NELM   =    100;   NELMIN=  6; NELMDL= -5     # of ELM steps 
   EDIFF  = 0.1E-08   stopping-criterion for ELM
   LREAL  =      F    real-space projection
   NLSPLINE    = F    spline interpolate recip. space projectors
   LCOMPAT=      F    compatible to vasp.4.4
   GGA_COMPAT  = T    GGA compatible to vasp.4.4-vasp.4.6
   LMAXPAW     = -100 max onsite density
   LMAXMIX     =    2 max onsite mixed and CHGCAR
   VOSKOWN=      0    Vosko Wilk Nusair interpolation
   ROPT   =    0.00000   0.00000   0.00000
 Ionic relaxation
   EDIFFG = 0.1E-07   stopping-criterion for IOM
   NSW    =      0    number of steps for IOM
   NBLOCK =      1;   KBLOCK =      1    inner block; outer block 
   IBRION =     -1    ionic relax: 0-MD 1-quasi-New 2-CG
   NFREE  =      0    steps in history (QN), initial steepest desc. (CG)
   ISIF   =     -1    stress and relaxation
   IWAVPR =     10    prediction:  0-non 1-charg 2-wave 3-comb
   ISYM   =      2    0-nonsym 1-usesym 2-fastsym
   LCORR  =      T    Harris-Foulkes like correction to forces

   POTIM  = 0.5000    time-step for ionic-motion
   TEIN   =    0.0    initial temperature
   TEBEG  =    0.0;   TEEND  =   0.0 temperature during run
   SMASS  =  -3.00    Nose mass-parameter (am)
   estimated Nose-frequenzy (Omega)   =  0.10E-29 period in steps = 0.13E+47 mass=  -0.125E-26a.u.
   SCALEE = 1.0000    scale energy and forces
   NPACO  =    256;   APACO  = 16.0  distance and # of slots for P.C.
   PSTRESS=    0.0 pullay stress

  Mass of Ions in am
   POMASS =  10.81 95.94 28.09
  Ionic Valenz
   ZVAL   =   3.00 14.00  4.00
  Atomic Wigner-Seitz radii
   RWIGS  =  -1.00 -1.00 -1.00
  virtual crystal weights 
   VCA    =   1.00  1.00  1.00
   NELECT =     140.0000    total number of electrons
   NUPDOWN=      -1.0000    fix difference up-down

 DOS related values:
   EMIN   =  10.00;   EMAX   =-10.00  energy-range for DOS
   EFERMI =   0.00
   ISMEAR =     0;   SIGMA  =   0.02  broadening in eV -4-tet -1-fermi 0-gaus

 Electronic relaxation 2 (details)
   IALGO  =     58    algorithm
   LDIAG  =      T    sub-space diagonalisation (order eigenvalues)
   LSUBROT=      F    optimize rotation matrix (better conditioning)
   TURBO    =      0    0=normal 1=particle mesh
   IRESTART =      0    0=no restart 2=restart with 2 vectors
   NREBOOT  =      0    no. of reboots
   NMIN     =      0    reboot dimension
   EREF     =   0.00    reference energy to select bands
   IMIX   =      4    mixing-type and parameters
     AMIX     =   0.40;   BMIX     =  1.00
     AMIX_MAG =   1.60;   BMIX_MAG =  1.00
     AMIN     =   0.10
     WC   =   100.;   INIMIX=   1;  MIXPRE=   1;  MAXMIX= -45

 Intra band minimization:
   WEIMIN = 0.0000     energy-eigenvalue tresh-hold
   EBREAK =  0.30E-11  absolut break condition
   DEPER  =   0.30     relativ break condition  

   TIME   =   0.40     timestep for ELM

  volume/ion in A,a.u.               =      12.05        81.30
  Fermi-wavevector in a.u.,A,eV,Ry     =   1.285534  2.429307 22.484953  1.652597
  Thomas-Fermi vector in A             =   2.417662
 
 Write flags
   LWAVE        =      T    write WAVECAR
   LDOWNSAMPLE  =      F    k-point downsampling of WAVECAR
   LCHARG       =      T    write CHGCAR
   LVTOT        =      F    write LOCPOT, total local potential
   LVHAR        =      F    write LOCPOT, Hartree potential only
   LELF         =      F    write electronic localiz. function (ELF)
   LORBIT       =      0    0 simple, 1 ext, 2 COOP (PROOUT), +10 PAW based schemes


 Dipole corrections
   LMONO  =      F    monopole corrections only (constant potential shift)
   LDIPOL =      F    correct potential (dipole corrections)
   IDIPOL =      0    1-x, 2-y, 3-z, 4-all directions 
   EPSILON=  1.0000000 bulk dielectric constant

 Exchange correlation treatment:
   GGA     =    --    GGA type
   LEXCH   =     8    internal setting for exchange type
   VOSKOWN=      0    Vosko Wilk Nusair interpolation
   LHFCALC =     F    Hartree Fock is set to
   LHFONE  =     F    Hartree Fock one center treatment
   AEXX    =    0.0000 exact exchange contribution

 Linear response parameters
   LEPSILON=     F    determine dielectric tensor
   LRPA    =     F    only Hartree local field effects (RPA)
   LNABLA  =     F    use nabla operator in PAW spheres
   LVEL    =     F    velocity operator in full k-point grid
   LINTERFAST=   F  fast interpolation
   KINTER  =     0    interpolate to denser k-point grid
   CSHIFT  =0.1000    complex shift for real part using Kramers Kronig
   OMEGAMAX=  -1.0    maximum frequency
   DEG_THRESHOLD= 0.2000000E-02 threshold for treating states as degnerate
   RTIME   =   -0.100 relaxation time in fs
  (WPLASMAI=    0.000 imaginary part of plasma frequency in eV, 0.658/RTIME)
   DFIELD  = 0.0000000 0.0000000 0.0000000 field for delta impulse in time
 
 Orbital magnetization related:
   ORBITALMAG=     F  switch on orbital magnetization
   LCHIMAG   =     F  perturbation theory with respect to B field
   DQ        =  0.001000  dq finite difference perturbation B field
   LLRAUG    =     F  two centre corrections for induced B field



--------------------------------------------------------------------------------------------------------


 Static calculation
 charge density and potential will be updated during run
 non-spin polarized calculation
 Conjugate gradient for all bands (Freysoldt, et al. PRB 79, 241103 (2009))
 preconditioned conjugated gradient                                        
 perform sub-space diagonalisation
    before iterative eigenvector-optimisation
 modified Broyden-mixing scheme, WC =      100.0
 initial mixing is a Kerker type mixing with AMIX =  0.4000 and BMIX =      1.0000
 Hartree-type preconditioning will be used
 using additional bands           14
 reciprocal scheme for non local part
 use partial core corrections
 no Harris-corrections to forces 
 use gradient corrections 
 use of overlap-Matrix (Vanderbilt PP)
 Gauss-broadening in eV      SIGMA  =   0.02


--------------------------------------------------------------------------------------------------------


  energy-cutoff  :      600.00
  volume of cell :      289.14
      direct lattice vectors                 reciprocal lattice vectors
     6.441196095  0.000000000 -3.657621807     0.155250669  0.055918508  0.000000000
    -2.182735275  6.060088601 -3.657621807     0.000000000  0.165014089  0.000000000
     0.000000000  0.000000000  7.407240000     0.076661244  0.109094330  0.135003051

  length of vectors
     7.407240000  7.407240000  7.407240000     0.165014089  0.165014089  0.189748104


 
 k-points in units of 2pi/SCALE and weight: EA                                      
   0.00000000  0.00000000  0.00000000       0.004
   0.02587511  0.00931975  0.00000000       0.016
   0.05175022  0.01863950  0.00000000       0.016
   0.07762533  0.02795925  0.00000000       0.008
   0.02587511  0.03682210  0.00000000       0.008
   0.05175022  0.04614185  0.00000000       0.016
   0.07762533  0.05546160  0.00000000       0.016
  -0.05175022  0.00886285  0.00000000       0.016
  -0.02587511  0.01818260  0.00000000       0.008
   0.05175022  0.07364420  0.00000000       0.008
   0.07762533  0.08296395  0.00000000       0.016
  -0.05175022  0.03636519  0.00000000       0.008
   0.07762533  0.11046630  0.00000000       0.004
   0.01095161  0.01558490  0.01928615       0.008
   0.03682672  0.02490466  0.01928615       0.016
   0.06270183  0.03422441  0.01928615       0.016
   0.08857694  0.04354416  0.01928615       0.016
  -0.04079862 -0.00305460  0.01928615       0.016
  -0.01492351  0.00626515  0.01928615       0.016
   0.03682672  0.05240700  0.01928615       0.008
   0.06270183  0.06172675  0.01928615       0.016
   0.08857694  0.07104651  0.01928615       0.016
  -0.04079862  0.02444775  0.01928615       0.016
  -0.01492351  0.03376750  0.01928615       0.016
   0.06270183  0.08922910  0.01928615       0.008
   0.08857694  0.09854885  0.01928615       0.016
  -0.04079862  0.05195010  0.01928615       0.016
  -0.01492351  0.06126985  0.01928615       0.016
   0.08857694  0.12605120  0.01928615       0.008
  -0.04079862  0.07945245  0.01928615       0.016
  -0.01492351  0.08877220  0.01928615       0.016
  -0.04079862 -0.05805929  0.01928615       0.008
  -0.01492351 -0.04873954  0.01928615       0.016
  -0.01492351 -0.02123720  0.01928615       0.008
   0.02190321  0.03116981  0.03857230       0.008
   0.04777832  0.04048956  0.03857230       0.016
   0.07365344  0.04980931  0.03857230       0.016
   0.09952855  0.05912906  0.03857230       0.016
  -0.02984701  0.01253031  0.03857230       0.016
  -0.00397190  0.02185006  0.03857230       0.016
   0.04777832  0.06799191  0.03857230       0.008
   0.07365344  0.07731166  0.03857230       0.016
   0.09952855  0.08663141  0.03857230       0.016
  -0.02984701  0.04003265  0.03857230       0.016
  -0.00397190  0.04935241  0.03857230       0.016
   0.07365344  0.10481401  0.03857230       0.008
   0.09952855  0.11413376  0.03857230       0.016
  -0.02984701  0.06753500  0.03857230       0.016
  -0.00397190  0.07685475  0.03857230       0.016
   0.09952855  0.14163611  0.03857230       0.008
  -0.02984701  0.09503735  0.03857230       0.016
  -0.00397190  0.10435710  0.03857230       0.016
  -0.02984701 -0.04247439  0.03857230       0.008
  -0.00397190 -0.03315464  0.03857230       0.016
  -0.00397190 -0.00565229  0.03857230       0.008
   0.03285482  0.04675471  0.05785845       0.008
   0.05872993  0.05607446  0.05785845       0.016
   0.08460504  0.06539422  0.05785845       0.016
   0.11048015  0.07471397  0.05785845       0.016
  -0.01889540  0.02811521  0.05785845       0.016
   0.00697971  0.03743496  0.05785845       0.016
   0.05872993  0.08357681  0.05785845       0.008
   0.08460504  0.09289656  0.05785845       0.016
   0.11048015  0.10221631  0.05785845       0.016
  -0.01889540  0.05561756  0.05785845       0.016
   0.00697971  0.06493731  0.05785845       0.016
   0.08460504  0.12039891  0.05785845       0.008
   0.11048015  0.12971866  0.05785845       0.016
  -0.01889540  0.08311991  0.05785845       0.016
   0.00697971  0.09243966  0.05785845       0.016
   0.11048015  0.15722101  0.05785845       0.008
  -0.01889540  0.11062225  0.05785845       0.016
   0.00697971  0.11994201  0.05785845       0.016
  -0.01889540 -0.02688949  0.05785845       0.008
   0.00697971 -0.01756973  0.05785845       0.016
   0.00697971  0.00993261  0.05785845       0.008
 
 k-points in reciprocal lattice and weights: EA                                      
   0.00000000  0.00000000  0.00000000       0.004
   0.16666667  0.00000000  0.00000000       0.016
   0.33333333 -0.00000000  0.00000000       0.016
   0.50000000  0.00000000  0.00000000       0.008
   0.16666667  0.16666667  0.00000000       0.008
   0.33333333  0.16666667  0.00000000       0.016
   0.50000000  0.16666667  0.00000000       0.016
  -0.33333333  0.16666667  0.00000000       0.016
  -0.16666667  0.16666667  0.00000000       0.008
   0.33333333  0.33333333  0.00000000       0.008
   0.50000000  0.33333333  0.00000000       0.016
  -0.33333333  0.33333333  0.00000000       0.008
   0.50000000  0.50000000  0.00000000       0.004
   0.00000000  0.00000000  0.14285714       0.008
   0.16666667  0.00000000  0.14285714       0.016
   0.33333333  0.00000000  0.14285714       0.016
   0.50000000  0.00000000  0.14285714       0.016
  -0.33333333  0.00000000  0.14285714       0.016
  -0.16666667  0.00000000  0.14285714       0.016
   0.16666667  0.16666667  0.14285714       0.008
   0.33333333  0.16666667  0.14285714       0.016
   0.50000000  0.16666667  0.14285714       0.016
  -0.33333333  0.16666667  0.14285714       0.016
  -0.16666667  0.16666667  0.14285714       0.016
   0.33333333  0.33333333  0.14285714       0.008
   0.50000000  0.33333333  0.14285714       0.016
  -0.33333333  0.33333333  0.14285714       0.016
  -0.16666667  0.33333333  0.14285714       0.016
   0.50000000  0.50000000  0.14285714       0.008
  -0.33333333  0.50000000  0.14285714       0.016
  -0.16666667  0.50000000  0.14285714       0.016
  -0.33333333 -0.33333333  0.14285714       0.008
  -0.16666667 -0.33333333  0.14285714       0.016
  -0.16666667 -0.16666667  0.14285714       0.008
   0.00000000 -0.00000000  0.28571429       0.008
   0.16666667  0.00000000  0.28571429       0.016
   0.33333333  0.00000000  0.28571429       0.016
   0.50000000 -0.00000000  0.28571429       0.016
  -0.33333333  0.00000000  0.28571429       0.016
  -0.16666667 -0.00000000  0.28571429       0.016
   0.16666667  0.16666667  0.28571429       0.008
   0.33333333  0.16666667  0.28571429       0.016
   0.50000000  0.16666667  0.28571429       0.016
  -0.33333333  0.16666667  0.28571429       0.016
  -0.16666667  0.16666667  0.28571429       0.016
   0.33333333  0.33333333  0.28571429       0.008
   0.50000000  0.33333333  0.28571429       0.016
  -0.33333333  0.33333333  0.28571429       0.016
  -0.16666667  0.33333333  0.28571429       0.016
   0.50000000  0.50000000  0.28571429       0.008
  -0.33333333  0.50000000  0.28571429       0.016
  -0.16666667  0.50000000  0.28571429       0.016
  -0.33333333 -0.33333333  0.28571429       0.008
  -0.16666667 -0.33333333  0.28571429       0.016
  -0.16666667 -0.16666667  0.28571429       0.008
   0.00000000  0.00000000  0.42857143       0.008
   0.16666667 -0.00000000  0.42857143       0.016
   0.33333333 -0.00000000  0.42857143       0.016
   0.50000000 -0.00000000  0.42857143       0.016
  -0.33333333  0.00000000  0.42857143       0.016
  -0.16666667 -0.00000000  0.42857143       0.016
   0.16666667  0.16666667  0.42857143       0.008
   0.33333333  0.16666667  0.42857143       0.016
   0.50000000  0.16666667  0.42857143       0.016
  -0.33333333  0.16666667  0.42857143       0.016
  -0.16666667  0.16666667  0.42857143       0.016
   0.33333333  0.33333333  0.42857143       0.008
   0.50000000  0.33333333  0.42857143       0.016
  -0.33333333  0.33333333  0.42857143       0.016
  -0.16666667  0.33333333  0.42857143       0.016
   0.50000000  0.50000000  0.42857143       0.008
  -0.33333333  0.50000000  0.42857143       0.016
  -0.16666667  0.50000000  0.42857143       0.016
  -0.33333333 -0.33333333  0.42857143       0.008
  -0.16666667 -0.33333333  0.42857143       0.016
  -0.16666667 -0.16666667  0.42857143       0.008
 
 position of ions in fractional coordinates (direct lattice) 
   0.68478000  0.85351000  0.82814000
   0.97463000  0.14337000  0.82814000
   0.02537000  0.85663000  0.17186000
   0.14337000  0.31522000  0.16873000
   0.64649000  0.81522000  0.17186000
   0.35351000  0.18478000  0.82814000
   0.14649000  0.97463000  0.83127000
   0.85663000  0.68478000  0.83127000
   0.85351000  0.02537000  0.16873000
   0.47463000  0.64649000  0.83127000
   0.35663000  0.52537000  0.17186000
   0.64337000  0.47463000  0.82814000
   0.18478000  0.35663000  0.83127000
   0.81522000  0.64337000  0.16873000
   0.31522000  0.14649000  0.17186000
   0.52537000  0.35351000  0.16873000
   0.24277000  0.25723000  0.50000000
   0.25723000  0.75723000  0.01446000
   0.50000000  0.50000000  0.00000000
   0.74277000  0.24277000  0.98554000
   0.00000000  0.00000000  0.00000000
   0.75723000  0.74277000  0.50000000
   0.00000000  0.50000000  0.50000000
   0.50000000  0.00000000  0.50000000
 
 position of ions in cartesian coordinates  (Angst):
   2.54781588  5.17234622  0.50774868
   5.96484419  0.86883490  2.04501055
  -1.70638337  5.19125370 -1.95301417
   0.23543247  1.91026113 -0.42752518
   2.38475941  4.94030543 -4.07337410
   1.87370141  1.11978317  4.16537049
  -1.18378846  5.90634415  2.05678343
   4.02302835  4.14982747  0.51952157
   5.44224929  0.15374445 -1.96478705
   1.64606837  3.91778668  2.05678343
   1.15038013  3.18378875 -1.95301417
   3.10808069  2.87629985  2.04501055
   0.41177533  2.16120940  4.17714337
   3.84668549  3.89887920 -4.08514699
   1.71064494  0.88774238 -0.41575230
   2.61239245  2.14230192 -1.96478705
   1.00226418  1.55883659  1.87480910
   0.00403624  4.58888089 -3.60340233
   2.12923041  3.03004430 -3.65762181
   4.25442458  1.47120771  3.69539871
   0.00000000  0.00000000  0.00000000
   3.25619664  4.50125201 -1.78281271
  -1.09136764  3.03004430  1.87480910
   3.22059805  0.00000000  1.87480910
 


--------------------------------------------------------------------------------------------------------


 k-point   1 :   0.0000 0.0000 0.0000  plane waves:    9665
 k-point   2 :   0.1667 0.0000 0.0000  plane waves:    9646
 k-point   3 :   0.3333-0.0000 0.0000  plane waves:    9651
 k-point   4 :   0.5000 0.0000 0.0000  plane waves:    9664
 k-point   5 :   0.1667 0.1667 0.0000  plane waves:    9631
 k-point   6 :   0.3333 0.1667 0.0000  plane waves:    9654
 k-point   7 :   0.5000 0.1667 0.0000  plane waves:    9655
 k-point   8 :  -0.3333 0.1667 0.0000  plane waves:    9646
 k-point   9 :  -0.1667 0.1667 0.0000  plane waves:    9643
 k-point  10 :   0.3333 0.3333 0.0000  plane waves:    9653
 k-point  11 :   0.5000 0.3333 0.0000  plane waves:    9652
 k-point  12 :  -0.3333 0.3333 0.0000  plane waves:    9633
 k-point  13 :   0.5000 0.5000 0.0000  plane waves:    9670
 k-point  14 :   0.0000 0.0000 0.1429  plane waves:    9637
 k-point  15 :   0.1667 0.0000 0.1429  plane waves:    9646
 k-point  16 :   0.3333 0.0000 0.1429  plane waves:    9655
 k-point  17 :   0.5000 0.0000 0.1429  plane waves:    9655
 k-point  18 :  -0.3333 0.0000 0.1429  plane waves:    9638
 k-point  19 :  -0.1667 0.0000 0.1429  plane waves:    9638
 k-point  20 :   0.1667 0.1667 0.1429  plane waves:    9661
 k-point  21 :   0.3333 0.1667 0.1429  plane waves:    9656
 k-point  22 :   0.5000 0.1667 0.1429  plane waves:    9655
 k-point  23 :  -0.3333 0.1667 0.1429  plane waves:    9647
 k-point  24 :  -0.1667 0.1667 0.1429  plane waves:    9631
 k-point  25 :   0.3333 0.3333 0.1429  plane waves:    9638
 k-point  26 :   0.5000 0.3333 0.1429  plane waves:    9651
 k-point  27 :  -0.3333 0.3333 0.1429  plane waves:    9648
 k-point  28 :  -0.1667 0.3333 0.1429  plane waves:    9652
 k-point  29 :   0.5000 0.5000 0.1429  plane waves:    9654
 k-point  30 :  -0.3333 0.5000 0.1429  plane waves:    9656
 k-point  31 :  -0.1667 0.5000 0.1429  plane waves:    9648
 k-point  32 :  -0.3333-0.3333 0.1429  plane waves:    9665
 k-point  33 :  -0.1667-0.3333 0.1429  plane waves:    9648
 k-point  34 :  -0.1667-0.1667 0.1429  plane waves:    9633
 k-point  35 :   0.0000-0.0000 0.2857  plane waves:    9647
 k-point  36 :   0.1667 0.0000 0.2857  plane waves:    9653
 k-point  37 :   0.3333 0.0000 0.2857  plane waves:    9663
 k-point  38 :   0.5000-0.0000 0.2857  plane waves:    9654
 k-point  39 :  -0.3333 0.0000 0.2857  plane waves:    9652
 k-point  40 :  -0.1667-0.0000 0.2857  plane waves:    9646
 k-point  41 :   0.1667 0.1667 0.2857  plane waves:    9651
 k-point  42 :   0.3333 0.1667 0.2857  plane waves:    9657
 k-point  43 :   0.5000 0.1667 0.2857  plane waves:    9649
 k-point  44 :  -0.3333 0.1667 0.2857  plane waves:    9651
 k-point  45 :  -0.1667 0.1667 0.2857  plane waves:    9648
 k-point  46 :   0.3333 0.3333 0.2857  plane waves:    9667
 k-point  47 :   0.5000 0.3333 0.2857  plane waves:    9655
 k-point  48 :  -0.3333 0.3333 0.2857  plane waves:    9645
 k-point  49 :  -0.1667 0.3333 0.2857  plane waves:    9649
 k-point  50 :   0.5000 0.5000 0.2857  plane waves:    9660
 k-point  51 :  -0.3333 0.5000 0.2857  plane waves:    9651
 k-point  52 :  -0.1667 0.5000 0.2857  plane waves:    9644
 k-point  53 :  -0.3333-0.3333 0.2857  plane waves:    9615
 k-point  54 :  -0.1667-0.3333 0.2857  plane waves:    9625
 k-point  55 :  -0.1667-0.1667 0.2857  plane waves:    9637
 k-point  56 :   0.0000 0.0000 0.4286  plane waves:    9643
 k-point  57 :   0.1667-0.0000 0.4286  plane waves:    9654
 k-point  58 :   0.3333-0.0000 0.4286  plane waves:    9660
 k-point  59 :   0.5000-0.0000 0.4286  plane waves:    9650
 k-point  60 :  -0.3333 0.0000 0.4286  plane waves:    9660
 k-point  61 :  -0.1667-0.0000 0.4286  plane waves:    9642
 k-point  62 :   0.1667 0.1667 0.4286  plane waves:    9665
 k-point  63 :   0.3333 0.1667 0.4286  plane waves:    9658
 k-point  64 :   0.5000 0.1667 0.4286  plane waves:    9648
 k-point  65 :  -0.3333 0.1667 0.4286  plane waves:    9651
 k-point  66 :  -0.1667 0.1667 0.4286  plane waves:    9654
 k-point  67 :   0.3333 0.3333 0.4286  plane waves:    9663
 k-point  68 :   0.5000 0.3333 0.4286  plane waves:    9647
 k-point  69 :  -0.3333 0.3333 0.4286  plane waves:    9657
 k-point  70 :  -0.1667 0.3333 0.4286  plane waves:    9638
 k-point  71 :   0.5000 0.5000 0.4286  plane waves:    9650
 k-point  72 :  -0.3333 0.5000 0.4286  plane waves:    9652
 k-point  73 :  -0.1667 0.5000 0.4286  plane waves:    9645
 k-point  74 :  -0.3333-0.3333 0.4286  plane waves:    9630
 k-point  75 :  -0.1667-0.3333 0.4286  plane waves:    9641
 k-point  76 :  -0.1667-0.1667 0.4286  plane waves:    9643

 maximum and minimum number of plane-waves per node :      4876     4776

 maximum number of plane-waves:      9670
 maximum index in each direction: 
   IXMAX=   15   IYMAX=   15   IZMAX=   14
   IXMIN=  -15   IYMIN=  -15   IZMIN=  -15


 parallel 3D FFT for wavefunctions:
    minimum data exchange during FFTs selected (reduces bandwidth)
 parallel 3D FFT for charge:
    minimum data exchange during FFTs selected (reduces bandwidth)


 total amount of memory used by VASP MPI-rank0   488901. kBytes
=======================================================================

   base      :      30000. kBytes
   nonl-proj :     161429. kBytes
   fftplans  :      24336. kBytes
   grid      :      18307. kBytes
   one-center:        186. kBytes
   wavefun   :     254643. kBytes
 
     INWAV:  cpu time    0.0001: real time    0.0001
 Broyden mixing: mesh for mixing (old mesh)
   NGX = 29   NGY = 29   NGZ = 29
  (NGX  =120   NGY  =120   NGZ  =120)
  gives a total of  24389 points

 initial charge density was supplied:
 charge density of overlapping atoms calculated
 number of electron     140.0000000 magnetization 
 keeping initial charge density in first step


--------------------------------------------------------------------------------------------------------


 Maximum index for augmentation-charges        21345 (set IRDMAX)


--------------------------------------------------------------------------------------------------------


 First call to EWALD:  gamma=   0.268
 Maximum number of real-space cells 3x 3x 3
 Maximum number of reciprocal cells 3x 3x 3

    FEWALD:  cpu time    0.0213: real time    0.0215


--------------------------------------- Iteration      1(   1)  ---------------------------------------


    POTLOK:  cpu time    0.2709: real time    0.2733
    SETDIJ:  cpu time    0.7122: real time    0.7187
    TRIAL :  cpu time   49.4692: real time   49.9941
    CORREC:  cpu time    0.0018: real time    0.0018
    --------------------------------------------
      LOOP:  cpu time   50.6081: real time   51.1496

 eigenvalue-minimisations  : 13668
 total energy-change (2. order) : 0.1196304E+04  (-0.8834798E+04)
 number of electron     140.0000000 magnetization 
 augmentation part      140.0000000 magnetization 

 Free energy of the ion-electron system (eV)
  ---------------------------------------------------
  alpha Z        PSCENC =       568.22891478
  Ewald energy   TEWEN  =     -7875.05907147
  -Hartree energ DENC   =     -4551.39712833
  -exchange      EXHF   =         0.00000000
  -V(xc)+E(xc)   XCENC  =       587.56131992
  PAW double counting   =      9751.44097361    -9716.70682594
  entropy T*S    EENTRO =        -0.00048513
  eigenvalues    EBANDS =       -86.30589024
  atomic energy  EATOM  =     12518.54185575
  ---------------------------------------------------
  free energy    TOTEN  =      1196.30366294 eV

  energy without entropy =     1196.30414807  energy(sigma->0) =     1196.30390551


--------------------------------------------------------------------------------------------------------




--------------------------------------- Iteration      1(   2)  ---------------------------------------


    TRIAL :  cpu time   52.9085: real time   53.4612
    CORREC:  cpu time    0.0017: real time    0.0017
    --------------------------------------------
      LOOP:  cpu time   52.9132: real time   53.4663

 eigenvalue-minimisations  : 14604
 total energy-change (2. order) :-0.1441995E+04  (-0.1406268E+04)
 number of electron     140.0000000 magnetization 
 augmentation part      140.0000000 magnetization 

 Free energy of the ion-electron system (eV)
  ---------------------------------------------------
  alpha Z        PSCENC =       568.22891478
  Ewald energy   TEWEN  =     -7875.05907147
  -Hartree energ DENC   =     -4551.39712833
  -exchange      EXHF   =         0.00000000
  -V(xc)+E(xc)   XCENC  =       587.56131992
  PAW double counting   =      9751.44097361    -9716.70682594
  entropy T*S    EENTRO =        -0.00187833
  eigenvalues    EBANDS =     -1528.29997826
  atomic energy  EATOM  =     12518.54185575
  ---------------------------------------------------
  free energy    TOTEN  =      -245.69181827 eV

  energy without entropy =     -245.68993994  energy(sigma->0) =     -245.69087911


--------------------------------------------------------------------------------------------------------




--------------------------------------- Iteration      1(   3)  ---------------------------------------


    TRIAL :  cpu time   57.0812: real time   57.6830
    CORREC:  cpu time    0.0018: real time    0.0018
    --------------------------------------------
      LOOP:  cpu time   57.0836: real time   57.6876

 eigenvalue-minimisations  : 16824
 total energy-change (2. order) :-0.7552435E+02  (-0.7269057E+02)
 number of electron     140.0000000 magnetization 
 augmentation part      140.0000000 magnetization 

 Free energy of the ion-electron system (eV)
  ---------------------------------------------------
  alpha Z        PSCENC =       568.22891478
  Ewald energy   TEWEN  =     -7875.05907147
  -Hartree energ DENC   =     -4551.39712833
  -exchange      EXHF   =         0.00000000
  -V(xc)+E(xc)   XCENC  =       587.56131992
  PAW double counting   =      9751.44097361    -9716.70682594
  entropy T*S    EENTRO =        -0.00207239
  eigenvalues    EBANDS =     -1603.82413442
  atomic energy  EATOM  =     12518.54185575
  ---------------------------------------------------
  free energy    TOTEN  =      -321.21616849 eV

  energy without entropy =     -321.21409610  energy(sigma->0) =     -321.21513230


--------------------------------------------------------------------------------------------------------




--------------------------------------- Iteration      1(   4)  ---------------------------------------


    TRIAL :  cpu time   55.3693: real time   55.9549
    CORREC:  cpu time    0.0017: real time    0.0017
    --------------------------------------------
      LOOP:  cpu time   55.3714: real time   55.9595

 eigenvalue-minimisations  : 15636
 total energy-change (2. order) :-0.2020384E+01  (-0.1973655E+01)
 number of electron     140.0000000 magnetization 
 augmentation part      140.0000000 magnetization 

 Free energy of the ion-electron system (eV)
  ---------------------------------------------------
  alpha Z        PSCENC =       568.22891478
  Ewald energy   TEWEN  =     -7875.05907147
  -Hartree energ DENC   =     -4551.39712833
  -exchange      EXHF   =         0.00000000
  -V(xc)+E(xc)   XCENC  =       587.56131992
  PAW double counting   =      9751.44097361    -9716.70682594
  entropy T*S    EENTRO =        -0.00225451
  eigenvalues    EBANDS =     -1605.84433660
  atomic energy  EATOM  =     12518.54185575
  ---------------------------------------------------
  free energy    TOTEN  =      -323.23655280 eV

  energy without entropy =     -323.23429829  energy(sigma->0) =     -323.23542554


--------------------------------------------------------------------------------------------------------




--------------------------------------- Iteration      1(   5)  ---------------------------------------


    TRIAL :  cpu time   56.6147: real time   57.1979
    CORREC:  cpu time    0.0018: real time    0.0018
    CHARGE:  cpu time    3.0441: real time    3.0724
    --------------------------------------------
      LOOP:  cpu time   59.6621: real time   60.2753

 eigenvalue-minimisations  : 16188
 total energy-change (2. order) :-0.5943257E-01  (-0.5916725E-01)
 number of electron     140.0000001 magnetization 
 augmentation part       11.8647321 magnetization 

 Free energy of the ion-electron system (eV)
  ---------------------------------------------------
  alpha Z        PSCENC =       568.22891478
  Ewald energy   TEWEN  =     -7875.05907147
  -Hartree energ DENC   =     -4551.39712833
  -exchange      EXHF   =         0.00000000
  -V(xc)+E(xc)   XCENC  =       587.56131992
  PAW double counting   =      9751.44097361    -9716.70682594
  entropy T*S    EENTRO =        -0.00229835
  eigenvalues    EBANDS =     -1605.90372533
  atomic energy  EATOM  =     12518.54185575
  ---------------------------------------------------
  free energy    TOTEN  =      -323.29598537 eV

  energy without entropy =     -323.29368701  energy(sigma->0) =     -323.29483619


--------------------------------------------------------------------------------------------------------




--------------------------------------- Iteration      1(   6)  ---------------------------------------


    POTLOK:  cpu time    0.2821: real time    0.2842
    SETDIJ:  cpu time    0.7057: real time    0.7120
    TRIAL :  cpu time   41.8858: real time   42.3592
    CORREC:  cpu time   13.9278: real time   14.0558
    CHARGE:  cpu time    3.8420: real time    3.8747
    --------------------------------------------
      LOOP:  cpu time   60.6470: real time   61.2901

 eigenvalue-minimisations  :     0
 total energy-change (2. order) : 0.1339810E+03  (-0.5946108E+02)
 number of electron     140.0000001 magnetization 
 augmentation part       14.2606837 magnetization 

 Free energy of the ion-electron system (eV)
  ---------------------------------------------------
  alpha Z        PSCENC =       568.22891478
  Ewald energy   TEWEN  =     -7875.05907147
  -Hartree energ DENC   =     -4246.97302800
  -exchange      EXHF   =         0.00000000
  -V(xc)+E(xc)   XCENC  =       590.66422693
  PAW double counting   =     19336.42607289   -19349.81180000
  entropy T*S    EENTRO =        -0.00292747
  eigenvalues    EBANDS =     -1731.32982943
  atomic energy  EATOM  =     12518.54185575
  ---------------------------------------------------
  free energy    TOTEN  =      -189.31495689 eV

  energy without entropy =     -189.31202942  energy(sigma->0) =     -189.31349315


--------------------------------------------------------------------------------------------------------




--------------------------------------- Iteration      1(   7)  ---------------------------------------


    POTLOK:  cpu time    0.2168: real time    0.2184
    SETDIJ:  cpu time    0.7295: real time    0.7361
    TRIAL :  cpu time   48.0725: real time   48.5131
    CORREC:  cpu time   14.2862: real time   14.4196
    CHARGE:  cpu time    3.4677: real time    3.4976
    --------------------------------------------
      LOOP:  cpu time   66.7733: real time   67.3866

 eigenvalue-minimisations  :     0
 total energy-change (2. order) :-0.6266315E+02  (-0.6672855E+01)
 number of electron     140.0000001 magnetization 
 augmentation part       14.0070954 magnetization 

 Free energy of the ion-electron system (eV)
  ---------------------------------------------------
  alpha Z        PSCENC =       568.22891478
  Ewald energy   TEWEN  =     -7875.05907147
  -Hartree energ DENC   =     -4474.36060971
  -exchange      EXHF   =         0.00000000
  -V(xc)+E(xc)   XCENC  =       600.19717915
  PAW double counting   =     18660.58136509   -18656.72833234
  entropy T*S    EENTRO =        -0.00321807
  eigenvalues    EBANDS =     -1593.37648501
  atomic energy  EATOM  =     12518.54185575
  ---------------------------------------------------
  free energy    TOTEN  =      -251.97811123 eV

  energy without entropy =     -251.97489316  energy(sigma->0) =     -251.97650219


--------------------------------------------------------------------------------------------------------




--------------------------------------- Iteration      1(   8)  ---------------------------------------


    POTLOK:  cpu time    0.2132: real time    0.2147
    SETDIJ:  cpu time    0.7303: real time    0.7367
    TRIAL :  cpu time   47.9394: real time   48.3891
    CORREC:  cpu time   14.0630: real time   14.1973
    CHARGE:  cpu time    3.2691: real time    3.2983
    --------------------------------------------
      LOOP:  cpu time   66.2167: real time   66.8383

 eigenvalue-minimisations  :     0
 total energy-change (2. order) :-0.6656416E+01  (-0.2210189E+01)
 number of electron     140.0000001 magnetization 
 augmentation part       13.9462769 magnetization 

 Free energy of the ion-electron system (eV)
  ---------------------------------------------------
  alpha Z        PSCENC =       568.22891478
  Ewald energy   TEWEN  =     -7875.05907147
  -Hartree energ DENC   =     -4483.00002758
  -exchange      EXHF   =         0.00000000
  -V(xc)+E(xc)   XCENC  =       600.37689279
  PAW double counting   =     18020.39759383   -18013.04724077
  entropy T*S    EENTRO =        -0.00335518
  eigenvalues    EBANDS =     -1595.07022668
  atomic energy  EATOM  =     12518.54185575
  ---------------------------------------------------
  free energy    TOTEN  =      -258.63452742 eV

  energy without entropy =     -258.63117224  energy(sigma->0) =     -258.63284983


--------------------------------------------------------------------------------------------------------




--------------------------------------- Iteration      1(   9)  ---------------------------------------


    POTLOK:  cpu time    0.2117: real time    0.2133
    SETDIJ:  cpu time    0.7307: real time    0.7374
    TRIAL :  cpu time   49.1106: real time   49.5488
    CORREC:  cpu time   13.9105: real time   14.0388
    CHARGE:  cpu time    3.4509: real time    3.4807
    --------------------------------------------
      LOOP:  cpu time   67.4207: real time   68.0259

 eigenvalue-minimisations  :     0
 total energy-change (2. order) :-0.2211045E+01  (-0.8516254E+00)
 number of electron     140.0000001 magnetization 
 augmentation part       14.0561240 magnetization 

 Free energy of the ion-electron system (eV)
  ---------------------------------------------------
  alpha Z        PSCENC =       568.22891478
  Ewald energy   TEWEN  =     -7875.05907147
  -Hartree energ DENC   =     -4476.62979622
  -exchange      EXHF   =         0.00000000
  -V(xc)+E(xc)   XCENC  =       600.49395011
  PAW double counting   =     17427.06345011   -17416.73439702
  entropy T*S    EENTRO =        -0.00347643
  eigenvalues    EBANDS =     -1606.74712310
  atomic energy  EATOM  =     12518.54185575
  ---------------------------------------------------
  free energy    TOTEN  =      -260.84557224 eV

  energy without entropy =     -260.84209581  energy(sigma->0) =     -260.84383402


--------------------------------------------------------------------------------------------------------




--------------------------------------- Iteration      1(  10)  ---------------------------------------


    POTLOK:  cpu time    0.2024: real time    0.2039
    SETDIJ:  cpu time    0.7024: real time    0.7080
    TRIAL :  cpu time   49.9107: real time   50.3433
    CORREC:  cpu time   14.9334: real time   15.0728
    CHARGE:  cpu time    3.1525: real time    3.1837
    --------------------------------------------
      LOOP:  cpu time   68.9049: real time   69.5156

 eigenvalue-minimisations  :     0
 total energy-change (2. order) :-0.8512416E+00  (-0.3350239E+00)
 number of electron     140.0000001 magnetization 
 augmentation part       14.1154184 magnetization 

 Free energy of the ion-electron system (eV)
  ---------------------------------------------------
  alpha Z        PSCENC =       568.22891478
  Ewald energy   TEWEN  =     -7875.05907147
  -Hartree energ DENC   =     -4489.33190490
  -exchange      EXHF   =         0.00000000
  -V(xc)+E(xc)   XCENC  =       601.39995782
  PAW double counting   =     17135.71376315   -17122.81417116
  entropy T*S    EENTRO =        -0.00343501
  eigenvalues    EBANDS =     -1598.37268138
  atomic energy  EATOM  =     12518.54185575
  ---------------------------------------------------
  free energy    TOTEN  =      -261.69681384 eV

  energy without entropy =     -261.69337883  energy(sigma->0) =     -261.69509633


--------------------------------------------------------------------------------------------------------




--------------------------------------- Iteration      1(  11)  ---------------------------------------


    POTLOK:  cpu time    0.2131: real time    0.2150
    SETDIJ:  cpu time    0.7307: real time    0.7380
    TRIAL :  cpu time   49.1557: real time   49.6112
    CORREC:  cpu time   13.4299: real time   13.5558
    CHARGE:  cpu time    3.3795: real time    3.4086
    --------------------------------------------
      LOOP:  cpu time   66.9463: real time   67.5664

 eigenvalue-minimisations  :     0
 total energy-change (2. order) :-0.3350155E+00  (-0.1970849E+00)
 number of electron     140.0000001 magnetization 
 augmentation part       14.0478306 magnetization 

 Free energy of the ion-electron system (eV)
  ---------------------------------------------------
  alpha Z        PSCENC =       568.22891478
  Ewald energy   TEWEN  =     -7875.05907147
  -Hartree energ DENC   =     -4502.93810174
  -exchange      EXHF   =         0.00000000
  -V(xc)+E(xc)   XCENC  =       602.07954455
  PAW double counting   =     17062.95708974   -17048.78610782
  entropy T*S    EENTRO =        -0.00325191
  eigenvalues    EBANDS =     -1587.05251811
  atomic energy  EATOM  =     12518.54185575
  ---------------------------------------------------
  free energy    TOTEN  =      -262.03182933 eV

  energy without entropy =     -262.02857743  energy(sigma->0) =     -262.03020338


--------------------------------------------------------------------------------------------------------




--------------------------------------- Iteration      1(  12)  ---------------------------------------


    POTLOK:  cpu time    0.2142: real time    0.2158
    SETDIJ:  cpu time    0.8539: real time    0.8613
    TRIAL :  cpu time   47.6098: real time   48.0443
    CORREC:  cpu time   13.7756: real time   13.9051
    CHARGE:  cpu time    3.3974: real time    3.4279
    --------------------------------------------
      LOOP:  cpu time   65.8528: real time   66.4572

 eigenvalue-minimisations  :     0
 total energy-change (2. order) :-0.1967907E+00  (-0.9768677E-01)
 number of electron     140.0000001 magnetization 
 augmentation part       14.0202699 magnetization 

 Free energy of the ion-electron system (eV)
  ---------------------------------------------------
  alpha Z        PSCENC =       568.22891478
  Ewald energy   TEWEN  =     -7875.05907147
  -Hartree energ DENC   =     -4498.12678971
  -exchange      EXHF   =         0.00000000
  -V(xc)+E(xc)   XCENC  =       601.87864163
  PAW double counting   =     17070.11527635   -17056.27872757
  entropy T*S    EENTRO =        -0.00308801
  eigenvalues    EBANDS =     -1591.52546788
  atomic energy  EATOM  =     12518.54185575
  ---------------------------------------------------
  free energy    TOTEN  =      -262.22862002 eV

  energy without entropy =     -262.22553201  energy(sigma->0) =     -262.22707602


--------------------------------------------------------------------------------------------------------




--------------------------------------- Iteration      1(  13)  ---------------------------------------


    POTLOK:  cpu time    0.2164: real time    0.2180
    SETDIJ:  cpu time    0.7179: real time    0.7246
    TRIAL :  cpu time   45.1362: real time   45.5574
    CORREC:  cpu time   13.9098: real time   14.0404
    CHARGE:  cpu time    3.1466: real time    3.1778
    --------------------------------------------
      LOOP:  cpu time   63.1340: real time   63.7262

 eigenvalue-minimisations  :     0
 total energy-change (2. order) :-0.9806672E-01  (-0.5354895E-01)
 number of electron     140.0000001 magnetization 
 augmentation part       14.0377818 magnetization 

 Free energy of the ion-electron system (eV)
  ---------------------------------------------------
  alpha Z        PSCENC =       568.22891478
  Ewald energy   TEWEN  =     -7875.05907147
  -Hartree energ DENC   =     -4494.45725058
  -exchange      EXHF   =         0.00000000
  -V(xc)+E(xc)   XCENC  =       601.68781933
  PAW double counting   =     17118.12745724   -17104.64386548
  entropy T*S    EENTRO =        -0.00325087
  eigenvalues    EBANDS =     -1594.74945830
  atomic energy  EATOM  =     12518.54185575
  ---------------------------------------------------
  free energy    TOTEN  =      -262.32668674 eV

  energy without entropy =     -262.32343587  energy(sigma->0) =     -262.32506131


--------------------------------------------------------------------------------------------------------




--------------------------------------- Iteration      1(  14)  ---------------------------------------


    POTLOK:  cpu time    0.2113: real time    0.2129
    SETDIJ:  cpu time    0.7242: real time    0.7307
    TRIAL :  cpu time   48.5865: real time   49.0317
    CORREC:  cpu time   13.3768: real time   13.5040
    CHARGE:  cpu time    3.2786: real time    3.3072
    --------------------------------------------
      LOOP:  cpu time   66.2241: real time   66.8341

 eigenvalue-minimisations  :     0
 total energy-change (2. order) :-0.5352690E-01  (-0.2599784E-01)
 number of electron     140.0000001 magnetization 
 augmentation part       14.0380776 magnetization 

 Free energy of the ion-electron system (eV)
  ---------------------------------------------------
  alpha Z        PSCENC =       568.22891478
  Ewald energy   TEWEN  =     -7875.05907147
  -Hartree energ DENC   =     -4495.06327901
  -exchange      EXHF   =         0.00000000
  -V(xc)+E(xc)   XCENC  =       601.75805727
  PAW double counting   =     17171.30525391   -17157.79066433
  entropy T*S    EENTRO =        -0.00351832
  eigenvalues    EBANDS =     -1594.29802967
  atomic energy  EATOM  =     12518.54185575
  ---------------------------------------------------
  free energy    TOTEN  =      -262.38021365 eV

  energy without entropy =     -262.37669533  energy(sigma->0) =     -262.37845449


--------------------------------------------------------------------------------------------------------




--------------------------------------- Iteration      1(  15)  ---------------------------------------


    POTLOK:  cpu time    0.2129: real time    0.2147
    SETDIJ:  cpu time    0.7460: real time    0.7522
    TRIAL :  cpu time   48.0272: real time   48.4646
    CORREC:  cpu time   14.2049: real time   14.3361
    CHARGE:  cpu time    2.9600: real time    2.9875
    --------------------------------------------
      LOOP:  cpu time   66.1519: real time   66.7569

 eigenvalue-minimisations  :     0
 total energy-change (2. order) :-0.2588402E-01  (-0.1101973E-01)
 number of electron     140.0000001 magnetization 
[...]
  ---------------------------------------------------
  free energy    TOTEN  =      -262.42561570 eV

  energy without entropy =     -262.42205101  energy(sigma->0) =     -262.42383336


--------------------------------------------------------------------------------------------------------




--------------------------------------- Iteration      1(  23)  ---------------------------------------


    POTLOK:  cpu time    0.2147: real time    0.2164
    SETDIJ:  cpu time    0.7594: real time    0.7663
    TRIAL :  cpu time   48.2990: real time   48.7434
    CORREC:  cpu time   13.6538: real time   13.7771
    CHARGE:  cpu time    2.9605: real time    2.9883
    --------------------------------------------
      LOOP:  cpu time   65.9618: real time   66.5675

 eigenvalue-minimisations  :     0
 total energy-change (2. order) :-0.3270373E-04  (-0.1270318E-04)
 number of electron     140.0000001 magnetization 
 augmentation part       14.0409059 magnetization 

 Free energy of the ion-electron system (eV)
  ---------------------------------------------------
  alpha Z        PSCENC =       568.22891478
  Ewald energy   TEWEN  =     -7875.05907147
  -Hartree energ DENC   =     -4495.19664805
  -exchange      EXHF   =         0.00000000
  -V(xc)+E(xc)   XCENC  =       601.77191210
  PAW double counting   =     17182.49277511   -17168.94884272
  entropy T*S    EENTRO =        -0.00356511
  eigenvalues    EBANDS =     -1594.25297922
  atomic energy  EATOM  =     12518.54185575
  ---------------------------------------------------
  free energy    TOTEN  =      -262.42564840 eV

  energy without entropy =     -262.42208330  energy(sigma->0) =     -262.42386585


--------------------------------------------------------------------------------------------------------




--------------------------------------- Iteration      1(  24)  ---------------------------------------


    POTLOK:  cpu time    0.2726: real time    0.2746
    SETDIJ:  cpu time    1.1668: real time    1.1762
    TRIAL :  cpu time   48.4249: real time   48.8654
    CORREC:  cpu time   13.6651: real time   13.7920
    CHARGE:  cpu time    2.9486: real time    2.9751
    --------------------------------------------
      LOOP:  cpu time   66.4791: real time   67.0853

 eigenvalue-minimisations  :     0
 total energy-change (2. order) :-0.1285190E-04  (-0.5926461E-05)
 number of electron     140.0000001 magnetization 
 augmentation part       14.0410548 magnetization 

 Free energy of the ion-electron system (eV)
  ---------------------------------------------------
  alpha Z        PSCENC =       568.22891478
  Ewald energy   TEWEN  =     -7875.05907147
  -Hartree energ DENC   =     -4495.06932494
  -exchange      EXHF   =         0.00000000
  -V(xc)+E(xc)   XCENC  =       601.76759195
  PAW double counting   =     17181.99474086   -17168.45522796
  entropy T*S    EENTRO =        -0.00356431
  eigenvalues    EBANDS =     -1594.37157511
  atomic energy  EATOM  =     12518.54185575
  ---------------------------------------------------
  free energy    TOTEN  =      -262.42566125 eV

  energy without entropy =     -262.42209695  energy(sigma->0) =     -262.42387910


--------------------------------------------------------------------------------------------------------




--------------------------------------- Iteration      1(  25)  ---------------------------------------


    POTLOK:  cpu time    0.2158: real time    0.2175
    SETDIJ:  cpu time    0.9946: real time    1.0023
    TRIAL :  cpu time   48.8849: real time   49.3314
    CORREC:  cpu time   13.9560: real time   14.0875
    CHARGE:  cpu time    3.3492: real time    3.3776
    --------------------------------------------
      LOOP:  cpu time   67.4022: real time   68.0185

 eigenvalue-minimisations  :     0
 total energy-change (2. order) :-0.5937503E-05  (-0.2172383E-05)
 number of electron     140.0000001 magnetization 
 augmentation part       14.0409819 magnetization 

 Free energy of the ion-electron system (eV)
  ---------------------------------------------------
  alpha Z        PSCENC =       568.22891478
  Ewald energy   TEWEN  =     -7875.05907147
  -Hartree energ DENC   =     -4495.12854628
  -exchange      EXHF   =         0.00000000
  -V(xc)+E(xc)   XCENC  =       601.76941965
  PAW double counting   =     17181.75357799   -17168.21125294
  entropy T*S    EENTRO =        -0.00356457
  eigenvalues    EBANDS =     -1594.31700036
  atomic energy  EATOM  =     12518.54185575
  ---------------------------------------------------
  free energy    TOTEN  =      -262.42566719 eV

  energy without entropy =     -262.42210263  energy(sigma->0) =     -262.42388491


--------------------------------------------------------------------------------------------------------




--------------------------------------- Iteration      1(  26)  ---------------------------------------


    POTLOK:  cpu time    0.2120: real time    0.2136
    SETDIJ:  cpu time    0.7747: real time    0.7818
    TRIAL :  cpu time   47.6735: real time   48.1056
    CORREC:  cpu time   14.0897: real time   14.2189
    CHARGE:  cpu time    3.5695: real time    3.6001
    --------------------------------------------
      LOOP:  cpu time   66.3508: real time   66.9530

 eigenvalue-minimisations  :     0
 total energy-change (2. order) :-0.2181943E-05  (-0.1113548E-05)
 number of electron     140.0000001 magnetization 
 augmentation part       14.0410817 magnetization 

 Free energy of the ion-electron system (eV)
  ---------------------------------------------------
  alpha Z        PSCENC =       568.22891478
  Ewald energy   TEWEN  =     -7875.05907147
  -Hartree energ DENC   =     -4495.10396172
  -exchange      EXHF   =         0.00000000
  -V(xc)+E(xc)   XCENC  =       601.76907154
  PAW double counting   =     17181.63163515   -17168.08989959
  entropy T*S    EENTRO =        -0.00356425
  eigenvalues    EBANDS =     -1594.34064925
  atomic energy  EATOM  =     12518.54185575
  ---------------------------------------------------
  free energy    TOTEN  =      -262.42566937 eV

  energy without entropy =     -262.42210512  energy(sigma->0) =     -262.42388725


--------------------------------------------------------------------------------------------------------




--------------------------------------- Iteration      1(  27)  ---------------------------------------


    POTLOK:  cpu time    0.2106: real time    0.2122
    SETDIJ:  cpu time    0.7135: real time    0.7199
    TRIAL :  cpu time   47.4536: real time   47.8814
    CORREC:  cpu time   13.6565: real time   13.7811
    CHARGE:  cpu time    3.4778: real time    3.5076
    --------------------------------------------
      LOOP:  cpu time   65.5141: real time   66.1049

 eigenvalue-minimisations  :     0
 total energy-change (2. order) :-0.1070837E-05  (-0.3495323E-06)
 number of electron     140.0000001 magnetization 
 augmentation part       14.0410119 magnetization 

 Free energy of the ion-electron system (eV)
  ---------------------------------------------------
  alpha Z        PSCENC =       568.22891478
  Ewald energy   TEWEN  =     -7875.05907147
  -Hartree energ DENC   =     -4495.12239171
  -exchange      EXHF   =         0.00000000
  -V(xc)+E(xc)   XCENC  =       601.76985031
  PAW double counting   =     17181.76020523   -17168.21704836
  entropy T*S    EENTRO =        -0.00356436
  eigenvalues    EBANDS =     -1594.32442072
  atomic energy  EATOM  =     12518.54185575
  ---------------------------------------------------
  free energy    TOTEN  =      -262.42567044 eV

  energy without entropy =     -262.42210609  energy(sigma->0) =     -262.42388827


--------------------------------------------------------------------------------------------------------




--------------------------------------- Iteration      1(  28)  ---------------------------------------


    POTLOK:  cpu time    0.2103: real time    0.2117
    SETDIJ:  cpu time    0.7419: real time    0.7486
    TRIAL :  cpu time   48.9696: real time   49.4070
    CORREC:  cpu time   13.8287: real time   13.9570
    CHARGE:  cpu time    3.3688: real time    3.3988
    --------------------------------------------
      LOOP:  cpu time   67.1208: real time   67.7263

 eigenvalue-minimisations  :     0
 total energy-change (2. order) :-0.3471760E-06  (-0.2367118E-06)
 number of electron     140.0000001 magnetization 
 augmentation part       14.0410017 magnetization 

 Free energy of the ion-electron system (eV)
  ---------------------------------------------------
  alpha Z        PSCENC =       568.22891478
  Ewald energy   TEWEN  =     -7875.05907147
  -Hartree energ DENC   =     -4495.10862299
  -exchange      EXHF   =         0.00000000
  -V(xc)+E(xc)   XCENC  =       601.76928166
  PAW double counting   =     17181.82056344   -17168.27818979
  entropy T*S    EENTRO =        -0.00356434
  eigenvalues    EBANDS =     -1594.33683781
  atomic energy  EATOM  =     12518.54185575
  ---------------------------------------------------
  free energy    TOTEN  =      -262.42567079 eV

  energy without entropy =     -262.42210646  energy(sigma->0) =     -262.42388862


--------------------------------------------------------------------------------------------------------




--------------------------------------- Iteration      1(  29)  ---------------------------------------


    POTLOK:  cpu time    0.2110: real time    0.2125
    SETDIJ:  cpu time    0.9394: real time    0.9463
    TRIAL :  cpu time   50.1028: real time   50.5420
    CORREC:  cpu time   13.6214: real time   13.7444
    CHARGE:  cpu time    2.9482: real time    2.9748
    --------------------------------------------
      LOOP:  cpu time   67.8255: real time   68.4235

 eigenvalue-minimisations  :     0
 total energy-change (2. order) :-0.2397555E-06  (-0.1142382E-06)
 number of electron     140.0000001 magnetization 
 augmentation part       14.0410252 magnetization 

 Free energy of the ion-electron system (eV)
  ---------------------------------------------------
  alpha Z        PSCENC =       568.22891478
  Ewald energy   TEWEN  =     -7875.05907147
  -Hartree energ DENC   =     -4495.11162533
  -exchange      EXHF   =         0.00000000
  -V(xc)+E(xc)   XCENC  =       601.76928929
  PAW double counting   =     17181.91402207   -17168.37163628
  entropy T*S    EENTRO =        -0.00356435
  eigenvalues    EBANDS =     -1594.33385550
  atomic energy  EATOM  =     12518.54185575
  ---------------------------------------------------
  free energy    TOTEN  =      -262.42567103 eV

  energy without entropy =     -262.42210668  energy(sigma->0) =     -262.42388885


--------------------------------------------------------------------------------------------------------




--------------------------------------- Iteration      1(  30)  ---------------------------------------


    POTLOK:  cpu time    0.2144: real time    0.2160
    SETDIJ:  cpu time    0.6743: real time    0.6802
    TRIAL :  cpu time   48.7276: real time   49.1619
    CORREC:  cpu time   13.9032: real time   14.0233
    CHARGE:  cpu time    3.0900: real time    3.1179
    --------------------------------------------
      LOOP:  cpu time   66.6614: real time   67.2525

 eigenvalue-minimisations  :     0
 total energy-change (2. order) :-0.1063599E-06  (-0.3396946E-07)
 number of electron     140.0000001 magnetization 
 augmentation part       14.0410081 magnetization 

 Free energy of the ion-electron system (eV)
  ---------------------------------------------------
  alpha Z        PSCENC =       568.22891478
  Ewald energy   TEWEN  =     -7875.05907147
  -Hartree energ DENC   =     -4495.11574299
  -exchange      EXHF   =         0.00000000
  -V(xc)+E(xc)   XCENC  =       601.76951816
  PAW double counting   =     17181.97639776   -17168.43365151
  entropy T*S    EENTRO =        -0.00356447
  eigenvalues    EBANDS =     -1594.33032727
  atomic energy  EATOM  =     12518.54185575
  ---------------------------------------------------
  free energy    TOTEN  =      -262.42567114 eV

  energy without entropy =     -262.42210667  energy(sigma->0) =     -262.42388890


--------------------------------------------------------------------------------------------------------




--------------------------------------- Iteration      1(  31)  ---------------------------------------


    POTLOK:  cpu time    0.2169: real time    0.2185
    SETDIJ:  cpu time    0.7176: real time    0.7243
    TRIAL :  cpu time   48.9077: real time   49.3419
    CORREC:  cpu time   61.8705: real time   62.4189
    CHARGE:  cpu time    3.5115: real time    3.5413
    --------------------------------------------
      LOOP:  cpu time  115.2256: real time  116.2470

 eigenvalue-minimisations  :     0
 total energy-change (2. order) :-0.3492096E-07  (-0.2737479E-06)
 number of electron     140.0000001 magnetization 
 augmentation part       14.0410613 magnetization 

 Free energy of the ion-electron system (eV)
  ---------------------------------------------------
  alpha Z        PSCENC =       568.22891478
  Ewald energy   TEWEN  =     -7875.05907147
  -Hartree energ DENC   =     -4495.11063869
  -exchange      EXHF   =         0.00000000
  -V(xc)+E(xc)   XCENC  =       601.76935016
  PAW double counting   =     17181.96471339   -17168.42225946
  entropy T*S    EENTRO =        -0.00356467
  eigenvalues    EBANDS =     -1594.33497116
  atomic energy  EATOM  =     12518.54185575
  ---------------------------------------------------
  free energy    TOTEN  =      -262.42567117 eV

  energy without entropy =     -262.42210651  energy(sigma->0) =     -262.42388884


--------------------------------------------------------------------------------------------------------




--------------------------------------- Iteration      1(  32)  ---------------------------------------


    POTLOK:  cpu time    0.2141: real time    0.2157
    SETDIJ:  cpu time    0.7390: real time    0.7458
    TRIAL :  cpu time   49.8274: real time   50.2726
    CORREC:  cpu time   14.9524: real time   15.0971
    CHARGE:  cpu time    3.7239: real time    3.7561
    --------------------------------------------
      LOOP:  cpu time   69.4658: real time   70.0975

 eigenvalue-minimisations  :     0
 total energy-change (2. order) : 0.5178827E-06  (-0.4717496E-06)
 number of electron     140.0000001 magnetization 
 augmentation part       14.0410348 magnetization 

 Free energy of the ion-electron system (eV)
  ---------------------------------------------------
  alpha Z        PSCENC =       568.22891478
  Ewald energy   TEWEN  =     -7875.05907147
  -Hartree energ DENC   =     -4495.12460952
  -exchange      EXHF   =         0.00000000
  -V(xc)+E(xc)   XCENC  =       601.76945900
  PAW double counting   =     17181.82703100   -17168.28461415
  entropy T*S    EENTRO =        -0.00356472
  eigenvalues    EBANDS =     -1594.32107137
  atomic energy  EATOM  =     12518.54185575
  ---------------------------------------------------
  free energy    TOTEN  =      -262.42567065 eV

  energy without entropy =     -262.42210593  energy(sigma->0) =     -262.42388829


--------------------------------------------------------------------------------------------------------




--------------------------------------- Iteration      1(  33)  ---------------------------------------


    POTLOK:  cpu time    0.2073: real time    0.2088
    SETDIJ:  cpu time    0.7169: real time    0.7237
    TRIAL :  cpu time   48.4909: real time   48.9459
    CORREC:  cpu time   13.9495: real time   14.0825
    CHARGE:  cpu time    3.5747: real time    3.6050
    --------------------------------------------
      LOOP:  cpu time   66.9406: real time   67.5680

 eigenvalue-minimisations  :     0
 total energy-change (2. order) :-0.4223439E-06  (-0.1099068E-06)
 number of electron     140.0000001 magnetization 
 augmentation part       14.0410099 magnetization 

 Free energy of the ion-electron system (eV)
  ---------------------------------------------------
  alpha Z        PSCENC =       568.22891478
  Ewald energy   TEWEN  =     -7875.05907147
  -Hartree energ DENC   =     -4495.11012277
  -exchange      EXHF   =         0.00000000
  -V(xc)+E(xc)   XCENC  =       601.76934049
  PAW double counting   =     17181.90242976   -17168.35989780
  entropy T*S    EENTRO =        -0.00356474
  eigenvalues    EBANDS =     -1594.33555509
  atomic energy  EATOM  =     12518.54185575
  ---------------------------------------------------
  free energy    TOTEN  =      -262.42567108 eV

  energy without entropy =     -262.42210633  energy(sigma->0) =     -262.42388870


--------------------------------------------------------------------------------------------------------




--------------------------------------- Iteration      1(  34)  ---------------------------------------


    POTLOK:  cpu time    0.2183: real time    0.2199
    SETDIJ:  cpu time    0.9767: real time    0.9850
    TRIAL :  cpu time   49.5348: real time   49.9909
    CORREC:  cpu time   13.9591: real time   14.0910
    CHARGE:  cpu time    3.3124: real time    3.3429
    --------------------------------------------
      LOOP:  cpu time   68.1032: real time   68.7337

 eigenvalue-minimisations  :     0
 total energy-change (2. order) :-0.1012322E-06  (-0.4405954E-07)
 number of electron     140.0000001 magnetization 
 augmentation part       14.0410448 magnetization 

 Free energy of the ion-electron system (eV)
  ---------------------------------------------------
  alpha Z        PSCENC =       568.22891478
  Ewald energy   TEWEN  =     -7875.05907147
  -Hartree energ DENC   =     -4495.10969852
  -exchange      EXHF   =         0.00000000
  -V(xc)+E(xc)   XCENC  =       601.76928301
  PAW double counting   =     17181.90232482   -17168.36004201
  entropy T*S    EENTRO =        -0.00356456
  eigenvalues    EBANDS =     -1594.33567279
  atomic energy  EATOM  =     12518.54185575
  ---------------------------------------------------
  free energy    TOTEN  =      -262.42567118 eV

  energy without entropy =     -262.42210662  energy(sigma->0) =     -262.42388890


--------------------------------------------------------------------------------------------------------




--------------------------------------- Iteration      1(  35)  ---------------------------------------


    POTLOK:  cpu time    0.2090: real time    0.2105
    SETDIJ:  cpu time    0.6801: real time    0.6860
    TRIAL :  cpu time   49.5857: real time   50.0309
    CORREC:  cpu time   13.7201: real time   13.8462
    CHARGE:  cpu time    3.3419: real time    3.3694
    --------------------------------------------
      LOOP:  cpu time   67.5751: real time   68.1819

 eigenvalue-minimisations  :     0
 total energy-change (2. order) :-0.4618596E-07  (-0.8486029E-08)
 number of electron     140.0000001 magnetization 
 augmentation part       14.0410311 magnetization 

 Free energy of the ion-electron system (eV)
  ---------------------------------------------------
  alpha Z        PSCENC =       568.22891478
  Ewald energy   TEWEN  =     -7875.05907147
  -Hartree energ DENC   =     -4495.12216331
  -exchange      EXHF   =         0.00000000
  -V(xc)+E(xc)   XCENC  =       601.76960679
  PAW double counting   =     17181.92121094   -17168.37842947
  entropy T*S    EENTRO =        -0.00356457
  eigenvalues    EBANDS =     -1594.32403067
  atomic energy  EATOM  =     12518.54185575
  ---------------------------------------------------
  free energy    TOTEN  =      -262.42567122 eV

  energy without entropy =     -262.42210665  energy(sigma->0) =     -262.42388894


--------------------------------------------------------------------------------------------------------




--------------------------------------- Iteration      1(  36)  ---------------------------------------


    POTLOK:  cpu time    0.2162: real time    0.2178
    SETDIJ:  cpu time    0.7261: real time    0.7329
