 vasp.6.2.0 18Jan21 (build Jan 05 2022 15:41:44) complex                        
  
 executed on             LinuxIFC date 2025.05.07  16:38:35
 running on   24 total cores
 distrk:  each k-point on   12 cores,    2 groups
 distr:  one band on NCORE=   2 cores,    6 groups


--------------------------------------------------------------------------------------------------------


 INCAR:
   SYSTEM = routine with relax: pwdword
   ICHARG = 2
   NPAR = 6
   KPAR = 2
   NCORE = 2
   ADDGRID = T
   PREC = Acc
   ENCUT = 600
   METAGGA = R2SCAN
   LASPH = .TRUE.
   LMIXTAU = .FALSE.
   ALGO = A
   EDIFF = 1E-9
   NELM = 100
   NELMIN = 6
   IALGO = 38
   LREAL = F
   NSW = 0
   ISIF = -1
   ISMEAR = 0
   SIGMA = 0.02

 POTCAR:    PAW_PBE B 06Sep2000                   
 POTCAR:    PAW_PBE Mo_sv 02Feb2006               
 POTCAR:    PAW_PBE Si 05Jan2001                  
 -----------------------------------------------------------------------------
|                                                                             |
|           W    W    AA    RRRRR   N    N  II  N    N   GGGG   !!!           |
|           W    W   A  A   R    R  NN   N  II  NN   N  G    G  !!!           |
|           W    W  A    A  R    R  N N  N  II  N N  N  G       !!!           |
|           W WW W  AAAAAA  RRRRR   N  N N  II  N  N N  G  GGG   !            |
|           WW  WW  A    A  R   R   N   NN  II  N   NN  G    G                |
|           W    W  A    A  R    R  N    N  II  N    N   GGGG   !!!           |
|                                                                             |
|     For optimal performance we recommend to set                             |
|       NCORE = 2 up to number-of-cores-per-socket                            |
|     NCORE specifies how many cores store one orbital (NPAR=cpu/NCORE).      |
|     This setting can greatly improve the performance of VASP for DFT.       |
|     The default, NCORE=1 might be grossly inefficient on modern             |
|     multi-core architectures or massively parallel machines. Do your        |
|     own testing! More info at https://www.vasp.at/wiki/index.php/NCORE      |
|     Unfortunately you need to use the default for GW and RPA                |
|     calculations (for HF NCORE is supported but not extensively tested      |
|     yet).                                                                   |
|                                                                             |
 -----------------------------------------------------------------------------

 POTCAR:    PAW_PBE B 06Sep2000                   
   VRHFIN =B: s2p1                                                                                  
   LEXCH  = PE                                                                                      
   EATOM  =    71.1703 eV,    5.2309 Ry                                                             
                                                                                                    
   TITEL  = PAW_PBE B 06Sep2000                                                                     
   LULTRA =        F    use ultrasoft PP ?                                                          
   IUNSCR =        1    unscreen: 0-lin 1-nonlin 2-no                                               
   RPACOR =    1.200    partial core radius                                                         
   POMASS =   10.811; ZVAL   =    3.000    mass and valenz                                          
   RCORE  =    1.700    outmost cutoff radius                                                       
   RWIGS  =    1.710; RWIGS  =    0.905    wigner-seitz radius (au A)                               
   ENMAX  =  318.614; ENMIN  =  238.960 eV                                                          
   ICORE  =        2    local potential                                                             
   LCOR   =        T    correct aug charges                                                         
   LPAW   =        T    paw PP                                                                      
   EAUG   =  535.514                                                                                
   DEXC   =    0.000                                                                                
   RMAX   =    1.732    core radius for proj-oper                                                   
   RAUG   =    1.300    factor for augmentation sphere                                              
   RDEP   =    1.757    radius for radial grids                                                     
   RDEPT  =    1.436    core radius for aug-charge                                                  
                                                                                                    
   Atomic configuration                                                                             
    4 entries                                                                                       
     n  l   j            E        occ.                                                              
     1  0  0.50      -180.5896   2.0000                                                             
     2  0  0.50        -9.4431   2.0000                                                             
     2  1  0.50        -3.6068   1.0000                                                             
     3  2  1.50        -4.0817   0.0000                                                             
   Description                                                                                      
     l       E           TYP  RCUT    TYP  RCUT                                                     
     0     -9.4430752     23  1.500                                                                 
     0      0.8675899     23  1.500                                                                 
     1     -3.6067955     23  1.700                                                                 
     1      6.1086146     23  1.700                                                                 
     2     -4.0817478      7  1.700                                                                 
  local pseudopotential read in
  partial core-charges read in
  partial kinetic energy density read in
  atomic valenz-charges read in
  non local Contribution for L=           0  read in
    real space projection operators read in
  non local Contribution for L=           0  read in
    real space projection operators read in
  non local Contribution for L=           1  read in
    real space projection operators read in
  non local Contribution for L=           1  read in
    real space projection operators read in
    PAW grid and wavefunctions read in
 
   number of l-projection  operators is LMAX  =           4
   number of lm-projection operators is LMMAX =           8
 
 POTCAR:    PAW_PBE Mo_sv 02Feb2006               
   VRHFIN =Mo: 4p5s4d                                                                               
   LEXCH  = PE                                                                                      
   EATOM  =  1862.2866 eV,  136.8742 Ry                                                             
                                                                                                    
   TITEL  = PAW_PBE Mo_sv 02Feb2006                                                                 
   LULTRA =        F    use ultrasoft PP ?                                                          
   IUNSCR =        1    unscreen: 0-lin 1-nonlin 2-no                                               
   RPACOR =    2.200    partial core radius                                                         
   POMASS =   95.940; ZVAL   =   14.000    mass and valenz                                          
   RCORE  =    2.500    outmost cutoff radius                                                       
   RWIGS  =    2.750; RWIGS  =    1.455    wigner-seitz radius (au A)                               
   ENMAX  =  242.676; ENMIN  =  182.007 eV                                                          
   ICORE  =        3    local potential                                                             
   LCOR   =        T    correct aug charges                                                         
   LPAW   =        T    paw PP                                                                      
   EAUG   =  446.014                                                                                
   DEXC   =    0.000                                                                                
   RMAX   =    2.563    core radius for proj-oper                                                   
   RAUG   =    1.300    factor for augmentation sphere                                              
   RDEP   =    2.641    radius for radial grids                                                     
   RDEPT  =    2.031    core radius for aug-charge                                                  
                                                                                                    
   Atomic configuration                                                                             
   11 entries                                                                                       
     n  l   j            E        occ.                                                              
     1  0  0.50    -19819.0341   2.0000                                                             
     2  0  0.50     -2799.0127   2.0000                                                             
     2  1  1.50     -2502.0276   6.0000                                                             
     3  0  0.50      -476.4449   2.0000                                                             
     3  1  1.50      -379.1496   6.0000                                                             
     3  2  2.50      -220.9367  10.0000                                                             
     4  0  0.50       -64.3378   2.0000                                                             
     5  0  0.50        -4.0862   1.0000                                                             
     4  1  1.50       -38.4773   6.0000                                                             
     4  2  2.50        -3.7535   5.0000                                                             
     4  3  2.50        -1.3606   0.0000                                                             
   Description                                                                                      
     l       E           TYP  RCUT    TYP  RCUT                                                     
     0    -64.3377829     23  2.100                                                                 
     0     -4.0861640     23  2.400                                                                 
     1    -38.4772993     23  2.100                                                                 
     1     13.6058260     23  2.100                                                                 
     2     -3.7534941     23  2.400                                                                 
     2     -5.1140767     23  2.400                                                                 
     3     -4.0817478     23  2.500                                                                 
  local pseudopotential read in
  partial core-charges read in
  partial kinetic energy density read in
  atomic valenz-charges read in
  non local Contribution for L=           0  read in
    real space projection operators read in
  non local Contribution for L=           0  read in
    real space projection operators read in
  non local Contribution for L=           1  read in
    real space projection operators read in
  non local Contribution for L=           1  read in
    real space projection operators read in
  non local Contribution for L=           2  read in
    real space projection operators read in
  non local Contribution for L=           2  read in
    real space projection operators read in
    PAW grid and wavefunctions read in
 
   number of l-projection  operators is LMAX  =           6
   number of lm-projection operators is LMMAX =          18
 
 POTCAR:    PAW_PBE Si 05Jan2001                  
   VRHFIN =Si: s2p2                                                                                 
   LEXCH  = PE                                                                                      
   EATOM  =   103.0669 eV,    7.5752 Ry                                                             
                                                                                                    
   TITEL  = PAW_PBE Si 05Jan2001                                                                    
   LULTRA =        F    use ultrasoft PP ?                                                          
   IUNSCR =        1    unscreen: 0-lin 1-nonlin 2-no                                               
   RPACOR =    1.500    partial core radius                                                         
   POMASS =   28.085; ZVAL   =    4.000    mass and valenz                                          
   RCORE  =    1.900    outmost cutoff radius                                                       
   RWIGS  =    2.480; RWIGS  =    1.312    wigner-seitz radius (au A)                               
   ENMAX  =  245.345; ENMIN  =  184.009 eV                                                          
   ICORE  =        2    local potential                                                             
   LCOR   =        T    correct aug charges                                                         
   LPAW   =        T    paw PP                                                                      
   EAUG   =  322.069                                                                                
   DEXC   =    0.000                                                                                
   RMAX   =    1.950    core radius for proj-oper                                                   
   RAUG   =    1.300    factor for augmentation sphere                                              
   RDEP   =    1.993    radius for radial grids                                                     
   RDEPT  =    1.837    core radius for aug-charge                                                  
                                                                                                    
   Atomic configuration                                                                             
    6 entries                                                                                       
     n  l   j            E        occ.                                                              
     1  0  0.50     -1785.8828   2.0000                                                             
     2  0  0.50      -139.4969   2.0000                                                             
     2  1  1.50       -95.5546   6.0000                                                             
     3  0  0.50       -10.8127   2.0000                                                             
     3  1  0.50        -4.0811   2.0000                                                             
     3  2  1.50        -4.0817   0.0000                                                             
   Description                                                                                      
     l       E           TYP  RCUT    TYP  RCUT                                                     
     0    -10.8127223     23  1.900                                                                 
     0     -7.6451159     23  1.900                                                                 
     1     -4.0811372     23  1.900                                                                 
     1      2.4879257     23  1.900                                                                 
     2     -4.0817478      7  1.900                                                                 
  local pseudopotential read in
  partial core-charges read in
  partial kinetic energy density read in
  atomic valenz-charges read in
  non local Contribution for L=           0  read in
    real space projection operators read in
  non local Contribution for L=           0  read in
    real space projection operators read in
  non local Contribution for L=           1  read in
    real space projection operators read in
  non local Contribution for L=           1  read in
    real space projection operators read in
    PAW grid and wavefunctions read in
 
   number of l-projection  operators is LMAX  =           4
   number of lm-projection operators is LMMAX =           8
 
  PAW_PBE B 06Sep2000                   :
 energy of atom  1       EATOM=  -71.1703
 kinetic energy error for atom=    0.0007 (will be added to EATOM!!)
  PAW_PBE Mo_sv 02Feb2006               :
 energy of atom  2       EATOM=-1862.2866
 kinetic energy error for atom=    0.0041 (will be added to EATOM!!)
  PAW_PBE Si 05Jan2001                  :
 energy of atom  3       EATOM= -103.0669
 kinetic energy error for atom=    0.0003 (will be added to EATOM!!)
 
 
 POSCAR: EA90
  positions in direct lattice
  No initial velocities read in

 METAGGA = R2SCA    LMAXTAU =  6    LMIXTAU =  F

 exchange correlation table for  LEXCH =        8
   RHO(1)=    0.500       N(1)  =     2000
   RHO(2)=  100.500       N(2)  =     4000
 


--------------------------------------------------------------------------------------------------------


 ion  position               nearest neighbor table
   1  0.500  0.000  0.500-   3 2.09   5 2.09   6 2.34   7 2.34
   2  0.000  0.500  0.500-   6 2.09   7 2.09   5 2.34   3 2.34
   3  0.736  0.236  0.972-   1 2.09   8 2.22   4 2.22   2 2.34  10 3.09   9 3.09   9 3.09  10 3.09
                             7 3.14   6 3.14   7 3.14   6 3.14
   4  0.500  0.500  0.000-   9 2.16  10 2.16   7 2.22   6 2.22   3 2.22   5 2.22
   5  0.264  0.764  0.028-   1 2.09   8 2.22   4 2.22   2 2.34   9 3.09  10 3.09  10 3.09   9 3.09
                             6 3.14   7 3.14   6 3.14   7 3.14
   6  0.236  0.264  0.500-   2 2.09   4 2.22   8 2.22   1 2.34  10 3.09  10 3.09   9 3.09   9 3.09
                             5 3.14   3 3.14   5 3.14   3 3.14
   7  0.764  0.736  0.500-   2 2.09   8 2.22   4 2.22   1 2.34   9 3.09   9 3.09  10 3.09  10 3.09
                             5 3.14   3 3.14   3 3.14   5 3.14
   8  0.000  0.000  0.000-   9 2.16  10 2.16   6 2.22   7 2.22   3 2.22   5 2.22
   9  0.250  0.250  0.000-   4 2.16   8 2.16   5 3.09   3 3.09   7 3.09   7 3.09   6 3.09   6 3.09
                             5 3.09   3 3.09
  10  0.750  0.750  0.000-   4 2.16   8 2.16   3 3.09   5 3.09   6 3.09   6 3.09   7 3.09   7 3.09
                             5 3.09   3 3.09
 
  LATTYP: Found a body centered tetragonal cell.
 ALAT       =     6.2671566568
 C/A-ratio  =     1.3762029484
  
  Lattice vectors:
  
 A1 = (   5.4028218117,   0.0000000000,  -3.0075425834)
 A2 = (  -1.8669568856,   5.0700054750,  -3.0075425834)
 A3 = (   0.0000000000,   0.0000000000,   6.1835100000)


Analysis of symmetry for initial positions (statically):
=====================================================================
 Subroutine PRICEL returns:
 Original cell was already a primitive cell.
 

 Routine SETGRP: Setting up the symmetry group for a 
 body centered tetragonal supercell.


 Subroutine GETGRP returns: Found  4 space group operations
 (whereof  2 operations were pure point group operations)
 out of a pool of 16 trial point group operations.


The static configuration has the point symmetry S_2 .
 The point group associated with its full space group is C_2h.


Analysis of symmetry for dynamics (positions and initial velocities):
=====================================================================
 Subroutine PRICEL returns:
 Original cell was already a primitive cell.
 

 Routine SETGRP: Setting up the symmetry group for a 
 body centered tetragonal supercell.


 Subroutine GETGRP returns: Found  4 space group operations
 (whereof  2 operations were pure point group operations)
 out of a pool of 16 trial point group operations.


The dynamic configuration has the point symmetry S_2 .
 The point group associated with its full space group is C_2h.


 Subroutine INISYM returns: Found  4 space group operations
 (whereof  2 operations are pure point group operations),
 and found     1 'primitive' translations


----------------------------------------------------------------------------------------

                                     Primitive cell                                     

  volume of cell :     169.3808

  direct lattice vectors                    reciprocal lattice vectors
     5.402821812  0.000000000 -3.007542583     0.185088466  0.068156176  0.000000000
    -1.866956886  5.070005475 -3.007542583     0.000000000  0.197238446  0.000000000
     0.000000000  0.000000000  6.183510000     0.090023537  0.129082936  0.161720447

  length of vectors
     6.183510000  6.183510000  6.183510000     0.197238446  0.197238446  0.225654924

  position of ions in fractional coordinates (direct lattice)
     0.500000000  0.000000000  0.500000000
     0.000000000  0.500000000  0.500000000
     0.736090000  0.236090000  0.972170000
     0.500000000  0.500000000  1.000000000
     0.263910000  0.763910000  0.027830000
     0.236090000  0.263910000  0.500000000
     0.763910000  0.736090000  0.500000000
     0.000000000  0.000000000  0.000000000
     0.250000000  0.250000000  1.000000000
     0.750000000  0.750000000  1.000000000

  ion indices of the primitive-cell ions
   primitive index   ion index
                 1           1
                 2           2
                 3           3
                 4           4
                 5           5
                 6           6
                 7           7
                 8           8
                 9           9
                10          10

----------------------------------------------------------------------------------------

 
 
 KPOINTS: EA                                      

Automatic generation of k-mesh.
 Grid dimensions read from file:
 generate k-points for:    7    7    8

 Generating k-lattice:

  Cartesian coordinates                     Fractional coordinates (reciprocal lattice)
     0.026441209  0.009736597  0.000000000     0.142857143 -0.000000000  0.000000000
     0.000000000  0.028176921  0.000000000     0.000000000  0.142857143  0.000000000
     0.011252942  0.016135367  0.020215056     0.000000000 -0.000000000  0.125000000

  Length of vectors
     0.028176921  0.028176921  0.028206865

  Shift w.r.t. Gamma in fractional coordinates (k-lattice)
     0.000000000  0.000000000  0.000000000

 -----------------------------------------------------------------------------
|                                                                             |
|           W    W    AA    RRRRR   N    N  II  N    N   GGGG   !!!           |
|           W    W   A  A   R    R  NN   N  II  NN   N  G    G  !!!           |
|           W    W  A    A  R    R  N N  N  II  N N  N  G       !!!           |
|           W WW W  AAAAAA  RRRRR   N  N N  II  N  N N  G  GGG   !            |
|           WW  WW  A    A  R   R   N   NN  II  N   NN  G    G                |
|           W    W  A    A  R    R  N    N  II  N    N   GGGG   !!!           |
|                                                                             |
|     Your reciprocal lattice and k-lattice belong to different lattice       |
|     classes:                                                                |
|                                                                             |
|        The reciprocal lattice is body-centered tetragonal,                  |
|        whereas your k-lattice is base-centered monoclinic.                  |
|                                                                             |
|     Results are often still useful ...                                      |
|                                                                             |
 -----------------------------------------------------------------------------

 WARNING: IBZKPT: internal override: KBLOWUP is changed to .FALSE.
      ... skipping the blow-up phase ...

 
 Subroutine IBZKPT returns following result:
 ===========================================
 
 Found    116 irreducible k-points:
 
 Following reciprocal coordinates:
            Coordinates               Weight
  0.000000  0.000000  0.000000      1.000000
  0.142857 -0.000000  0.000000      4.000000
  0.285714 -0.000000  0.000000      4.000000
  0.428571 -0.000000  0.000000      4.000000
  0.142857  0.142857  0.000000      2.000000
  0.285714  0.142857  0.000000      4.000000
  0.428571  0.142857  0.000000      4.000000
 -0.428571  0.142857  0.000000      4.000000
 -0.285714  0.142857  0.000000      4.000000
 -0.142857  0.142857  0.000000      2.000000
  0.285714  0.285714  0.000000      2.000000
  0.428571  0.285714  0.000000      4.000000
 -0.428571  0.285714  0.000000      4.000000
 -0.285714  0.285714  0.000000      2.000000
  0.428571  0.428571  0.000000      2.000000
 -0.428571  0.428571  0.000000      2.000000
 -0.000000 -0.000000  0.125000      2.000000
  0.142857 -0.000000  0.125000      4.000000
  0.285714 -0.000000  0.125000      4.000000
  0.428571 -0.000000  0.125000      4.000000
 -0.428571  0.000000  0.125000      4.000000
 -0.285714 -0.000000  0.125000      4.000000
 -0.142857 -0.000000  0.125000      4.000000
  0.142857  0.142857  0.125000      2.000000
  0.285714  0.142857  0.125000      4.000000
  0.428571  0.142857  0.125000      4.000000
 -0.428571  0.142857  0.125000      4.000000
 -0.285714  0.142857  0.125000      4.000000
 -0.142857  0.142857  0.125000      4.000000
  0.285714  0.285714  0.125000      2.000000
  0.428571  0.285714  0.125000      4.000000
 -0.428571  0.285714  0.125000      4.000000
 -0.285714  0.285714  0.125000      4.000000
 -0.142857  0.285714  0.125000      4.000000
  0.428571  0.428571  0.125000      2.000000
 -0.428571  0.428571  0.125000      4.000000
 -0.285714  0.428571  0.125000      4.000000
 -0.142857  0.428571  0.125000      4.000000
 -0.428571 -0.428571  0.125000      2.000000
 -0.285714 -0.428571  0.125000      4.000000
 -0.142857 -0.428571  0.125000      4.000000
 -0.285714 -0.285714  0.125000      2.000000
 -0.142857 -0.285714  0.125000      4.000000
 -0.142857 -0.142857  0.125000      2.000000
 -0.000000 -0.000000  0.250000      2.000000
  0.142857 -0.000000  0.250000      4.000000
  0.285714 -0.000000  0.250000      4.000000
  0.428571 -0.000000  0.250000      4.000000
 -0.428571 -0.000000  0.250000      4.000000
 -0.285714 -0.000000  0.250000      4.000000
 -0.142857 -0.000000  0.250000      4.000000
  0.142857  0.142857  0.250000      2.000000
  0.285714  0.142857  0.250000      4.000000
  0.428571  0.142857  0.250000      4.000000
 -0.428571  0.142857  0.250000      4.000000
 -0.285714  0.142857  0.250000      4.000000
 -0.142857  0.142857  0.250000      4.000000
  0.285714  0.285714  0.250000      2.000000
  0.428571  0.285714  0.250000      4.000000
 -0.428571  0.285714  0.250000      4.000000
 -0.285714  0.285714  0.250000      4.000000
 -0.142857  0.285714  0.250000      4.000000
  0.428571  0.428571  0.250000      2.000000
 -0.428571  0.428571  0.250000      4.000000
 -0.285714  0.428571  0.250000      4.000000
 -0.142857  0.428571  0.250000      4.000000
 -0.428571 -0.428571  0.250000      2.000000
 -0.285714 -0.428571  0.250000      4.000000
 -0.142857 -0.428571  0.250000      4.000000
 -0.285714 -0.285714  0.250000      2.000000
 -0.142857 -0.285714  0.250000      4.000000
 -0.142857 -0.142857  0.250000      2.000000
 -0.000000 -0.000000  0.375000      2.000000
  0.142857 -0.000000  0.375000      4.000000
  0.285714 -0.000000  0.375000      4.000000
  0.428571 -0.000000  0.375000      4.000000
 -0.428571  0.000000  0.375000      4.000000
 -0.285714  0.000000  0.375000      4.000000
 -0.142857  0.000000  0.375000      4.000000
  0.142857  0.142857  0.375000      2.000000
  0.285714  0.142857  0.375000      4.000000
  0.428571  0.142857  0.375000      4.000000
 -0.428571  0.142857  0.375000      4.000000
 -0.285714  0.142857  0.375000      4.000000
 -0.142857  0.142857  0.375000      4.000000
  0.285714  0.285714  0.375000      2.000000
  0.428571  0.285714  0.375000      4.000000
 -0.428571  0.285714  0.375000      4.000000
 -0.285714  0.285714  0.375000      4.000000
 -0.142857  0.285714  0.375000      4.000000
  0.428571  0.428571  0.375000      2.000000
 -0.428571  0.428571  0.375000      4.000000
 -0.285714  0.428571  0.375000      4.000000
 -0.142857  0.428571  0.375000      4.000000
 -0.428571 -0.428571  0.375000      2.000000
 -0.285714 -0.428571  0.375000      4.000000
 -0.142857 -0.428571  0.375000      4.000000
 -0.285714 -0.285714  0.375000      2.000000
 -0.142857 -0.285714  0.375000      4.000000
 -0.142857 -0.142857  0.375000      2.000000
 -0.000000 -0.000000  0.500000      1.000000
  0.142857 -0.000000  0.500000      4.000000
  0.285714 -0.000000  0.500000      4.000000
  0.428571 -0.000000  0.500000      4.000000
  0.142857  0.142857  0.500000      2.000000
  0.285714  0.142857  0.500000      4.000000
  0.428571  0.142857  0.500000      4.000000
 -0.428571  0.142857  0.500000      4.000000
 -0.285714  0.142857  0.500000      4.000000
 -0.142857  0.142857  0.500000      2.000000
  0.285714  0.285714  0.500000      2.000000
  0.428571  0.285714  0.500000      4.000000
 -0.428571  0.285714  0.500000      4.000000
 -0.285714  0.285714  0.500000      2.000000
  0.428571  0.428571  0.500000      2.000000
 -0.428571  0.428571  0.500000      2.000000
 
 Following cartesian coordinates:
            Coordinates               Weight
  0.000000  0.000000  0.000000      1.000000
  0.026441  0.009737  0.000000      4.000000
  0.052882  0.019473  0.000000      4.000000
  0.079324  0.029210  0.000000      4.000000
  0.026441  0.037914  0.000000      2.000000
  0.052882  0.047650  0.000000      4.000000
  0.079324  0.057387  0.000000      4.000000
 -0.079324 -0.001033  0.000000      4.000000
 -0.052882  0.008704  0.000000      4.000000
 -0.026441  0.018440  0.000000      2.000000
  0.052882  0.075827  0.000000      2.000000
  0.079324  0.085564  0.000000      4.000000
 -0.079324  0.027144  0.000000      4.000000
 -0.052882  0.036881  0.000000      2.000000
  0.079324  0.113741  0.000000      2.000000
 -0.079324  0.055321  0.000000      2.000000
  0.011253  0.016135  0.020215      2.000000
  0.037694  0.025872  0.020215      4.000000
  0.064135  0.035609  0.020215      4.000000
  0.090577  0.045345  0.020215      4.000000
 -0.068071 -0.013074  0.020215      4.000000
 -0.041629 -0.003338  0.020215      4.000000
 -0.015188  0.006399  0.020215      4.000000
  0.037694  0.054049  0.020215      2.000000
  0.064135  0.063785  0.020215      4.000000
  0.090577  0.073522  0.020215      4.000000
 -0.068071  0.015102  0.020215      4.000000
 -0.041629  0.024839  0.020215      4.000000
 -0.015188  0.034576  0.020215      4.000000
  0.064135  0.091962  0.020215      2.000000
  0.090577  0.101699  0.020215      4.000000
 -0.068071  0.043279  0.020215      4.000000
 -0.041629  0.053016  0.020215      4.000000
 -0.015188  0.062753  0.020215      4.000000
  0.090577  0.129876  0.020215      2.000000
 -0.068071  0.071456  0.020215      4.000000
 -0.041629  0.081193  0.020215      4.000000
 -0.015188  0.090930  0.020215      4.000000
 -0.068071 -0.097605  0.020215      2.000000
 -0.041629 -0.087869  0.020215      4.000000
 -0.015188 -0.078132  0.020215      4.000000
 -0.041629 -0.059692  0.020215      2.000000
 -0.015188 -0.049955  0.020215      4.000000
 -0.015188 -0.021778  0.020215      2.000000
  0.022506  0.032271  0.040430      2.000000
  0.048947  0.042007  0.040430      4.000000
  0.075388  0.051744  0.040430      4.000000
  0.101830  0.061481  0.040430      4.000000
 -0.056818  0.003061  0.040430      4.000000
 -0.030377  0.012798  0.040430      4.000000
 -0.003935  0.022534  0.040430      4.000000
  0.048947  0.070184  0.040430      2.000000
  0.075388  0.079921  0.040430      4.000000
  0.101830  0.089657  0.040430      4.000000
 -0.056818  0.031238  0.040430      4.000000
 -0.030377  0.040974  0.040430      4.000000
 -0.003935  0.050711  0.040430      4.000000
  0.075388  0.108098  0.040430      2.000000
  0.101830  0.117834  0.040430      4.000000
 -0.056818  0.059415  0.040430      4.000000
 -0.030377  0.069151  0.040430      4.000000
 -0.003935  0.078888  0.040430      4.000000
  0.101830  0.146011  0.040430      2.000000
 -0.056818  0.087592  0.040430      4.000000
 -0.030377  0.097328  0.040430      4.000000
 -0.003935  0.107065  0.040430      4.000000
 -0.056818 -0.081470  0.040430      2.000000
 -0.030377 -0.071733  0.040430      4.000000
 -0.003935 -0.061997  0.040430      4.000000
 -0.030377 -0.043556  0.040430      2.000000
 -0.003935 -0.033820  0.040430      4.000000
 -0.003935 -0.005643  0.040430      2.000000
  0.033759  0.048406  0.060645      2.000000
  0.060200  0.058143  0.060645      4.000000
  0.086641  0.067879  0.060645      4.000000
  0.113082  0.077616  0.060645      4.000000
 -0.045565  0.019196  0.060645      4.000000
 -0.019124  0.028933  0.060645      4.000000
  0.007318  0.038670  0.060645      4.000000
  0.060200  0.086320  0.060645      2.000000
  0.086641  0.096056  0.060645      4.000000
  0.113082  0.105793  0.060645      4.000000
 -0.045565  0.047373  0.060645      4.000000
 -0.019124  0.057110  0.060645      4.000000
  0.007318  0.066846  0.060645      4.000000
  0.086641  0.124233  0.060645      2.000000
  0.113082  0.133970  0.060645      4.000000
 -0.045565  0.075550  0.060645      4.000000
 -0.019124  0.085287  0.060645      4.000000
  0.007318  0.095023  0.060645      4.000000
  0.113082  0.162147  0.060645      2.000000
 -0.045565  0.103727  0.060645      4.000000
 -0.019124  0.113464  0.060645      4.000000
  0.007318  0.123200  0.060645      4.000000
 -0.045565 -0.065334  0.060645      2.000000
 -0.019124 -0.055598  0.060645      4.000000
  0.007318 -0.045861  0.060645      4.000000
 -0.019124 -0.027421  0.060645      2.000000
  0.007318 -0.017684  0.060645      4.000000
  0.007318  0.010493  0.060645      2.000000
  0.045012  0.064541  0.080860      1.000000
  0.071453  0.074278  0.080860      4.000000
  0.097894  0.084015  0.080860      4.000000
  0.124335  0.093751  0.080860      4.000000
  0.071453  0.102455  0.080860      2.000000
  0.097894  0.112192  0.080860      4.000000
  0.124335  0.121928  0.080860      4.000000
 -0.034312  0.063509  0.080860      4.000000
 -0.007871  0.073245  0.080860      4.000000
  0.018571  0.082982  0.080860      2.000000
  0.097894  0.140369  0.080860      2.000000
  0.124335  0.150105  0.080860      4.000000
 -0.034312  0.091686  0.080860      4.000000
 -0.007871  0.101422  0.080860      2.000000
  0.124335  0.178282  0.080860      2.000000
 -0.034312  0.119862  0.080860      2.000000
 


--------------------------------------------------------------------------------------------------------




 Dimension of arrays:
   k-points           NKPTS =    116   k-points in BZ     NKDIM =    116   number of bands    NBANDS=     60
   number of dos      NEDOS =    301   number of ions     NIONS =     10
   non local maximal  LDIM  =      6   non local SUM 2l+1 LMDIM =     18
   total plane-waves  NPLWV = 125000
   max r-space proj   IRMAX =      1   max aug-charges    IRDMAX= 258354
   dimension x,y,z NGX =    50 NGY =   50 NGZ =   50
   dimension x,y,z NGXF=   100 NGYF=  100 NGZF=  100
   support grid    NGXF=   200 NGYF=  200 NGZF=  200
   ions per type =               2   6   2
   NGX,Y,Z   is equivalent  to a cutoff of  13.44, 13.44, 13.44 a.u.
   NGXF,Y,Z  is equivalent  to a cutoff of  26.89, 26.89, 26.89 a.u.

 SYSTEM =  routine with relax: pwdword             
 POSCAR =  EA90                                    

 Startparameter for this run:
   NWRITE =      2    write-flag & timer
   PREC   = acc       normal or accurate (medium, high low for compatibility)
   ISTART =      0    job   : 0-new  1-cont  2-samecut
   ICHARG =      2    charge: 1-file 2-atom 10-const
   ISPIN  =      1    spin polarized calculation?
   LNONCOLLINEAR =      F non collinear calculations
   LSORBIT =      F    spin-orbit coupling
   INIWAV =      1    electr: 0-lowe 1-rand  2-diag
   LASPH  =      T    aspherical Exc in radial PAW
   METAGGA=      F    non-selfconsistent MetaGGA calc.

 Electronic Relaxation 1
   ENCUT  =  600.0 eV  44.10 Ry    6.64 a.u.  12.35 12.35 12.35*2*pi/ulx,y,z
   ENINI  =  600.0     initial cutoff
   ENAUG  =  535.5 eV  augmentation charge cutoff
   NELM   =    100;   NELMIN=  6; NELMDL= -5     # of ELM steps 
   EDIFF  = 0.1E-08   stopping-criterion for ELM
   LREAL  =      F    real-space projection
   NLSPLINE    = F    spline interpolate recip. space projectors
   LCOMPAT=      F    compatible to vasp.4.4
   GGA_COMPAT  = T    GGA compatible to vasp.4.4-vasp.4.6
   LMAXPAW     = -100 max onsite density
   LMAXMIX     =    2 max onsite mixed and CHGCAR
   VOSKOWN=      0    Vosko Wilk Nusair interpolation
   ROPT   =    0.00000   0.00000   0.00000
 Ionic relaxation
   EDIFFG = 0.1E-07   stopping-criterion for IOM
   NSW    =      0    number of steps for IOM
   NBLOCK =      1;   KBLOCK =      1    inner block; outer block 
   IBRION =     -1    ionic relax: 0-MD 1-quasi-New 2-CG
   NFREE  =      0    steps in history (QN), initial steepest desc. (CG)
   ISIF   =     -1    stress and relaxation
   IWAVPR =     10    prediction:  0-non 1-charg 2-wave 3-comb
   ISYM   =      2    0-nonsym 1-usesym 2-fastsym
   LCORR  =      T    Harris-Foulkes like correction to forces

   POTIM  = 0.5000    time-step for ionic-motion
   TEIN   =    0.0    initial temperature
   TEBEG  =    0.0;   TEEND  =   0.0 temperature during run
   SMASS  =  -3.00    Nose mass-parameter (am)
   estimated Nose-frequenzy (Omega)   =  0.10E-29 period in steps = 0.13E+47 mass=  -0.874E-27a.u.
   SCALEE = 1.0000    scale energy and forces
   NPACO  =    256;   APACO  = 16.0  distance and # of slots for P.C.
   PSTRESS=    0.0 pullay stress

  Mass of Ions in am
   POMASS =  10.81 95.94 28.09
  Ionic Valenz
   ZVAL   =   3.00 14.00  4.00
  Atomic Wigner-Seitz radii
   RWIGS  =  -1.00 -1.00 -1.00
  virtual crystal weights 
   VCA    =   1.00  1.00  1.00
   NELECT =      98.0000    total number of electrons
   NUPDOWN=      -1.0000    fix difference up-down

 DOS related values:
   EMIN   =  10.00;   EMAX   =-10.00  energy-range for DOS
   EFERMI =   0.00
   ISMEAR =     0;   SIGMA  =   0.02  broadening in eV -4-tet -1-fermi 0-gaus

 Electronic relaxation 2 (details)
   IALGO  =     58    algorithm
   LDIAG  =      T    sub-space diagonalisation (order eigenvalues)
   LSUBROT=      F    optimize rotation matrix (better conditioning)
   TURBO    =      0    0=normal 1=particle mesh
   IRESTART =      0    0=no restart 2=restart with 2 vectors
   NREBOOT  =      0    no. of reboots
   NMIN     =      0    reboot dimension
   EREF     =   0.00    reference energy to select bands
   IMIX   =      4    mixing-type and parameters
     AMIX     =   0.40;   BMIX     =  1.00
     AMIX_MAG =   1.60;   BMIX_MAG =  1.00
     AMIN     =   0.10
     WC   =   100.;   INIMIX=   1;  MIXPRE=   1;  MAXMIX= -45

 Intra band minimization:
   WEIMIN = 0.0000     energy-eigenvalue tresh-hold
   EBREAK =  0.42E-11  absolut break condition
   DEPER  =   0.30     relativ break condition  

   TIME   =   0.40     timestep for ELM

  volume/ion in A,a.u.               =      16.94       114.30
  Fermi-wavevector in a.u.,A,eV,Ry     =   1.364150  2.577870 25.319154  1.860905
  Thomas-Fermi vector in A             =   2.490491
 
 Write flags
   LWAVE        =      T    write WAVECAR
   LDOWNSAMPLE  =      F    k-point downsampling of WAVECAR
   LCHARG       =      T    write CHGCAR
   LVTOT        =      F    write LOCPOT, total local potential
   LVHAR        =      F    write LOCPOT, Hartree potential only
   LELF         =      F    write electronic localiz. function (ELF)
   LORBIT       =      0    0 simple, 1 ext, 2 COOP (PROOUT), +10 PAW based schemes


 Dipole corrections
   LMONO  =      F    monopole corrections only (constant potential shift)
   LDIPOL =      F    correct potential (dipole corrections)
   IDIPOL =      0    1-x, 2-y, 3-z, 4-all directions 
   EPSILON=  1.0000000 bulk dielectric constant

 Exchange correlation treatment:
   GGA     =    --    GGA type
   LEXCH   =     8    internal setting for exchange type
   VOSKOWN=      0    Vosko Wilk Nusair interpolation
   LHFCALC =     F    Hartree Fock is set to
   LHFONE  =     F    Hartree Fock one center treatment
   AEXX    =    0.0000 exact exchange contribution

 Linear response parameters
   LEPSILON=     F    determine dielectric tensor
   LRPA    =     F    only Hartree local field effects (RPA)
   LNABLA  =     F    use nabla operator in PAW spheres
   LVEL    =     F    velocity operator in full k-point grid
   LINTERFAST=   F  fast interpolation
   KINTER  =     0    interpolate to denser k-point grid
   CSHIFT  =0.1000    complex shift for real part using Kramers Kronig
   OMEGAMAX=  -1.0    maximum frequency
   DEG_THRESHOLD= 0.2000000E-02 threshold for treating states as degnerate
   RTIME   =   -0.100 relaxation time in fs
  (WPLASMAI=    0.000 imaginary part of plasma frequency in eV, 0.658/RTIME)
   DFIELD  = 0.0000000 0.0000000 0.0000000 field for delta impulse in time
 
 Orbital magnetization related:
   ORBITALMAG=     F  switch on orbital magnetization
   LCHIMAG   =     F  perturbation theory with respect to B field
   DQ        =  0.001000  dq finite difference perturbation B field
   LLRAUG    =     F  two centre corrections for induced B field



--------------------------------------------------------------------------------------------------------


 Static calculation
 charge density and potential will be updated during run
 non-spin polarized calculation
 Conjugate gradient for all bands (Freysoldt, et al. PRB 79, 241103 (2009))
 preconditioned conjugated gradient                                        
 perform sub-space diagonalisation
    before iterative eigenvector-optimisation
 modified Broyden-mixing scheme, WC =      100.0
 initial mixing is a Kerker type mixing with AMIX =  0.4000 and BMIX =      1.0000
 Hartree-type preconditioning will be used
 using additional bands           11
 reciprocal scheme for non local part
 use partial core corrections
 no Harris-corrections to forces 
 use gradient corrections 
 use of overlap-Matrix (Vanderbilt PP)
 Gauss-broadening in eV      SIGMA  =   0.02


--------------------------------------------------------------------------------------------------------


  energy-cutoff  :      600.00
  volume of cell :      169.38
      direct lattice vectors                 reciprocal lattice vectors
     5.402821812  0.000000000 -3.007542583     0.185088466  0.068156176  0.000000000
    -1.866956886  5.070005475 -3.007542583     0.000000000  0.197238446  0.000000000
     0.000000000  0.000000000  6.183510000     0.090023537  0.129082936  0.161720447

  length of vectors
     6.183510000  6.183510000  6.183510000     0.197238446  0.197238446  0.225654924


 
 k-points in units of 2pi/SCALE and weight: EA                                      
   0.00000000  0.00000000  0.00000000       0.003
   0.02644121  0.00973660  0.00000000       0.010
   0.05288242  0.01947319  0.00000000       0.010
   0.07932363  0.02920979  0.00000000       0.010
   0.02644121  0.03791352  0.00000000       0.005
   0.05288242  0.04765011  0.00000000       0.010
   0.07932363  0.05738671  0.00000000       0.010
  -0.07932363 -0.00103287  0.00000000       0.010
  -0.05288242  0.00870373  0.00000000       0.010
  -0.02644121  0.01844032  0.00000000       0.005
   0.05288242  0.07582703  0.00000000       0.005
   0.07932363  0.08556363  0.00000000       0.010
  -0.07932363  0.02714405  0.00000000       0.010
  -0.05288242  0.03688065  0.00000000       0.005
   0.07932363  0.11374055  0.00000000       0.005
  -0.07932363  0.05532097  0.00000000       0.005
   0.01125294  0.01613537  0.02021506       0.005
   0.03769415  0.02587196  0.02021506       0.010
   0.06413536  0.03560856  0.02021506       0.010
   0.09057657  0.04534516  0.02021506       0.010
  -0.06807069 -0.01307442  0.02021506       0.010
  -0.04162948 -0.00333783  0.02021506       0.010
  -0.01518827  0.00639877  0.02021506       0.010
   0.03769415  0.05404888  0.02021506       0.005
   0.06413536  0.06378548  0.02021506       0.010
   0.09057657  0.07352208  0.02021506       0.010
  -0.06807069  0.01510250  0.02021506       0.010
  -0.04162948  0.02483909  0.02021506       0.010
  -0.01518827  0.03457569  0.02021506       0.010
   0.06413536  0.09196240  0.02021506       0.005
   0.09057657  0.10169900  0.02021506       0.010
  -0.06807069  0.04327942  0.02021506       0.010
  -0.04162948  0.05301602  0.02021506       0.010
  -0.01518827  0.06275261  0.02021506       0.010
   0.09057657  0.12987592  0.02021506       0.005
  -0.06807069  0.07145634  0.02021506       0.010
  -0.04162948  0.08119294  0.02021506       0.010
  -0.01518827  0.09092953  0.02021506       0.010
  -0.06807069 -0.09760519  0.02021506       0.005
  -0.04162948 -0.08786859  0.02021506       0.010
  -0.01518827 -0.07813199  0.02021506       0.010
  -0.04162948 -0.05969167  0.02021506       0.005
  -0.01518827 -0.04995507  0.02021506       0.010
  -0.01518827 -0.02177815  0.02021506       0.005
   0.02250588  0.03227073  0.04043011       0.005
   0.04894709  0.04200733  0.04043011       0.010
   0.07538830  0.05174393  0.04043011       0.010
   0.10182951  0.06148052  0.04043011       0.010
  -0.05681774  0.00306094  0.04043011       0.010
  -0.03037653  0.01279754  0.04043011       0.010
  -0.00393533  0.02253414  0.04043011       0.010
   0.04894709  0.07018425  0.04043011       0.005
   0.07538830  0.07992085  0.04043011       0.010
   0.10182951  0.08965744  0.04043011       0.010
  -0.05681774  0.03123787  0.04043011       0.010
  -0.03037653  0.04097446  0.04043011       0.010
  -0.00393533  0.05071106  0.04043011       0.010
   0.07538830  0.10809777  0.04043011       0.005
   0.10182951  0.11783437  0.04043011       0.010
  -0.05681774  0.05941479  0.04043011       0.010
  -0.03037653  0.06915138  0.04043011       0.010
  -0.00393533  0.07888798  0.04043011       0.010
   0.10182951  0.14601129  0.04043011       0.005
  -0.05681774  0.08759171  0.04043011       0.010
  -0.03037653  0.09732830  0.04043011       0.010
  -0.00393533  0.10706490  0.04043011       0.010
  -0.05681774 -0.08146982  0.04043011       0.005
  -0.03037653 -0.07173322  0.04043011       0.010
  -0.00393533 -0.06199663  0.04043011       0.010
  -0.03037653 -0.04355630  0.04043011       0.005
  -0.00393533 -0.03381970  0.04043011       0.010
  -0.00393533 -0.00564278  0.04043011       0.005
   0.03375883  0.04840610  0.06064517       0.005
   0.06020004  0.05814270  0.06064517       0.010
   0.08664125  0.06787929  0.06064517       0.010
   0.11308245  0.07761589  0.06064517       0.010
  -0.04556480  0.01919631  0.06064517       0.010
  -0.01912359  0.02893291  0.06064517       0.010
   0.00731762  0.03866950  0.06064517       0.010
   0.06020004  0.08631962  0.06064517       0.005
   0.08664125  0.09605622  0.06064517       0.010
   0.11308245  0.10579281  0.06064517       0.010
  -0.04556480  0.04737323  0.06064517       0.010
  -0.01912359  0.05710983  0.06064517       0.010
   0.00731762  0.06684643  0.06064517       0.010
   0.08664125  0.12423314  0.06064517       0.005
   0.11308245  0.13396973  0.06064517       0.010
  -0.04556480  0.07555015  0.06064517       0.010
  -0.01912359  0.08528675  0.06064517       0.010
   0.00731762  0.09502335  0.06064517       0.010
   0.11308245  0.16214665  0.06064517       0.005
  -0.04556480  0.10372707  0.06064517       0.010
  -0.01912359  0.11346367  0.06064517       0.010
   0.00731762  0.12320027  0.06064517       0.010
  -0.04556480 -0.06533445  0.06064517       0.005
  -0.01912359 -0.05559785  0.06064517       0.010
   0.00731762 -0.04586126  0.06064517       0.010
  -0.01912359 -0.02742093  0.06064517       0.005
   0.00731762 -0.01768434  0.06064517       0.010
   0.00731762  0.01049258  0.06064517       0.005
   0.04501177  0.06454147  0.08086022       0.003
   0.07145298  0.07427806  0.08086022       0.010
   0.09789419  0.08401466  0.08086022       0.010
   0.12433540  0.09375126  0.08086022       0.010
   0.07145298  0.10245499  0.08086022       0.005
   0.09789419  0.11219158  0.08086022       0.010
   0.12433540  0.12192818  0.08086022       0.010
  -0.03431186  0.06350860  0.08086022       0.010
  -0.00787065  0.07324520  0.08086022       0.010
   0.01857056  0.08298179  0.08086022       0.005
   0.09789419  0.14036850  0.08086022       0.005
   0.12433540  0.15010510  0.08086022       0.010
  -0.03431186  0.09168552  0.08086022       0.010
  -0.00787065  0.10142212  0.08086022       0.005
   0.12433540  0.17828202  0.08086022       0.005
  -0.03431186  0.11986244  0.08086022       0.005
 
 k-points in reciprocal lattice and weights: EA                                      
   0.00000000  0.00000000  0.00000000       0.003
   0.14285714 -0.00000000  0.00000000       0.010
   0.28571429 -0.00000000  0.00000000       0.010
   0.42857143 -0.00000000  0.00000000       0.010
   0.14285714  0.14285714  0.00000000       0.005
   0.28571429  0.14285714  0.00000000       0.010
   0.42857143  0.14285714  0.00000000       0.010
  -0.42857143  0.14285714  0.00000000       0.010
  -0.28571429  0.14285714  0.00000000       0.010
  -0.14285714  0.14285714  0.00000000       0.005
   0.28571429  0.28571429  0.00000000       0.005
   0.42857143  0.28571429  0.00000000       0.010
  -0.42857143  0.28571429  0.00000000       0.010
  -0.28571429  0.28571429  0.00000000       0.005
   0.42857143  0.42857143  0.00000000       0.005
  -0.42857143  0.42857143  0.00000000       0.005
  -0.00000000 -0.00000000  0.12500000       0.005
   0.14285714 -0.00000000  0.12500000       0.010
   0.28571429 -0.00000000  0.12500000       0.010
   0.42857143 -0.00000000  0.12500000       0.010
  -0.42857143  0.00000000  0.12500000       0.010
  -0.28571429 -0.00000000  0.12500000       0.010
  -0.14285714 -0.00000000  0.12500000       0.010
   0.14285714  0.14285714  0.12500000       0.005
   0.28571429  0.14285714  0.12500000       0.010
   0.42857143  0.14285714  0.12500000       0.010
  -0.42857143  0.14285714  0.12500000       0.010
  -0.28571429  0.14285714  0.12500000       0.010
  -0.14285714  0.14285714  0.12500000       0.010
   0.28571429  0.28571429  0.12500000       0.005
   0.42857143  0.28571429  0.12500000       0.010
  -0.42857143  0.28571429  0.12500000       0.010
  -0.28571429  0.28571429  0.12500000       0.010
  -0.14285714  0.28571429  0.12500000       0.010
   0.42857143  0.42857143  0.12500000       0.005
  -0.42857143  0.42857143  0.12500000       0.010
  -0.28571429  0.42857143  0.12500000       0.010
  -0.14285714  0.42857143  0.12500000       0.010
  -0.42857143 -0.42857143  0.12500000       0.005
  -0.28571429 -0.42857143  0.12500000       0.010
  -0.14285714 -0.42857143  0.12500000       0.010
  -0.28571429 -0.28571429  0.12500000       0.005
  -0.14285714 -0.28571429  0.12500000       0.010
  -0.14285714 -0.14285714  0.12500000       0.005
  -0.00000000 -0.00000000  0.25000000       0.005
   0.14285714 -0.00000000  0.25000000       0.010
   0.28571429 -0.00000000  0.25000000       0.010
   0.42857143 -0.00000000  0.25000000       0.010
  -0.42857143 -0.00000000  0.25000000       0.010
  -0.28571429 -0.00000000  0.25000000       0.010
  -0.14285714 -0.00000000  0.25000000       0.010
   0.14285714  0.14285714  0.25000000       0.005
   0.28571429  0.14285714  0.25000000       0.010
   0.42857143  0.14285714  0.25000000       0.010
  -0.42857143  0.14285714  0.25000000       0.010
  -0.28571429  0.14285714  0.25000000       0.010
  -0.14285714  0.14285714  0.25000000       0.010
   0.28571429  0.28571429  0.25000000       0.005
   0.42857143  0.28571429  0.25000000       0.010
  -0.42857143  0.28571429  0.25000000       0.010
  -0.28571429  0.28571429  0.25000000       0.010
  -0.14285714  0.28571429  0.25000000       0.010
   0.42857143  0.42857143  0.25000000       0.005
  -0.42857143  0.42857143  0.25000000       0.010
  -0.28571429  0.42857143  0.25000000       0.010
  -0.14285714  0.42857143  0.25000000       0.010
  -0.42857143 -0.42857143  0.25000000       0.005
  -0.28571429 -0.42857143  0.25000000       0.010
  -0.14285714 -0.42857143  0.25000000       0.010
  -0.28571429 -0.28571429  0.25000000       0.005
  -0.14285714 -0.28571429  0.25000000       0.010
  -0.14285714 -0.14285714  0.25000000       0.005
  -0.00000000 -0.00000000  0.37500000       0.005
   0.14285714 -0.00000000  0.37500000       0.010
   0.28571429 -0.00000000  0.37500000       0.010
   0.42857143 -0.00000000  0.37500000       0.010
  -0.42857143  0.00000000  0.37500000       0.010
  -0.28571429  0.00000000  0.37500000       0.010
  -0.14285714  0.00000000  0.37500000       0.010
   0.14285714  0.14285714  0.37500000       0.005
   0.28571429  0.14285714  0.37500000       0.010
   0.42857143  0.14285714  0.37500000       0.010
  -0.42857143  0.14285714  0.37500000       0.010
  -0.28571429  0.14285714  0.37500000       0.010
  -0.14285714  0.14285714  0.37500000       0.010
   0.28571429  0.28571429  0.37500000       0.005
   0.42857143  0.28571429  0.37500000       0.010
  -0.42857143  0.28571429  0.37500000       0.010
  -0.28571429  0.28571429  0.37500000       0.010
  -0.14285714  0.28571429  0.37500000       0.010
   0.42857143  0.42857143  0.37500000       0.005
  -0.42857143  0.42857143  0.37500000       0.010
  -0.28571429  0.42857143  0.37500000       0.010
  -0.14285714  0.42857143  0.37500000       0.010
  -0.42857143 -0.42857143  0.37500000       0.005
  -0.28571429 -0.42857143  0.37500000       0.010
  -0.14285714 -0.42857143  0.37500000       0.010
  -0.28571429 -0.28571429  0.37500000       0.005
  -0.14285714 -0.28571429  0.37500000       0.010
  -0.14285714 -0.14285714  0.37500000       0.005
  -0.00000000 -0.00000000  0.50000000       0.003
   0.14285714 -0.00000000  0.50000000       0.010
   0.28571429 -0.00000000  0.50000000       0.010
   0.42857143 -0.00000000  0.50000000       0.010
   0.14285714  0.14285714  0.50000000       0.005
   0.28571429  0.14285714  0.50000000       0.010
   0.42857143  0.14285714  0.50000000       0.010
  -0.42857143  0.14285714  0.50000000       0.010
  -0.28571429  0.14285714  0.50000000       0.010
  -0.14285714  0.14285714  0.50000000       0.005
   0.28571429  0.28571429  0.50000000       0.005
   0.42857143  0.28571429  0.50000000       0.010
  -0.42857143  0.28571429  0.50000000       0.010
  -0.28571429  0.28571429  0.50000000       0.005
   0.42857143  0.42857143  0.50000000       0.005
  -0.42857143  0.42857143  0.50000000       0.005
 
 position of ions in fractional coordinates (direct lattice) 
   0.50000000  0.00000000  0.50000000
   0.00000000  0.50000000  0.50000000
   0.73609000  0.23609000  0.97217000
   0.50000000  0.50000000  0.00000000
   0.26391000  0.76391000  0.02783000
   0.23609000  0.26391000  0.50000000
   0.76391000  0.73609000  0.50000000
   0.00000000  0.00000000  0.00000000
   0.25000000  0.25000000  0.00000000
   0.75000000  0.75000000  0.00000000
 
 position of ions in cartesian coordinates  (Angst):
   2.70141091  0.00000000  1.58798371
  -0.93347844  2.53500274  1.58798371
   3.53619326  1.19697759  3.08755017
   1.76793246  2.53500274 -3.00754258
  -0.00032833  3.87302788 -2.91912533
   0.78284361  1.33802514  1.58798371
   2.75302132  3.73198033 -1.41955888
   0.00000000  0.00000000  0.00000000
   0.88396623  1.26750137 -1.50377129
   2.65189869  3.80250411 -4.51131388
 


--------------------------------------------------------------------------------------------------------


 k-point   1 :   0.0000 0.0000 0.0000  plane waves:    5697
 k-point   2 :   0.1429-0.0000 0.0000  plane waves:    5684
 k-point   3 :   0.2857-0.0000 0.0000  plane waves:    5664
 k-point   4 :   0.4286-0.0000 0.0000  plane waves:    5647
 k-point   5 :   0.1429 0.1429 0.0000  plane waves:    5667
 k-point   6 :   0.2857 0.1429 0.0000  plane waves:    5650
 k-point   7 :   0.4286 0.1429 0.0000  plane waves:    5650
 k-point   8 :  -0.4286 0.1429 0.0000  plane waves:    5653
 k-point   9 :  -0.2857 0.1429 0.0000  plane waves:    5666
 k-point  10 :  -0.1429 0.1429 0.0000  plane waves:    5679
 k-point  11 :   0.2857 0.2857 0.0000  plane waves:    5654
 k-point  12 :   0.4286 0.2857 0.0000  plane waves:    5644
 k-point  13 :  -0.4286 0.2857 0.0000  plane waves:    5631
 k-point  14 :  -0.2857 0.2857 0.0000  plane waves:    5642
 k-point  15 :   0.4286 0.4286 0.0000  plane waves:    5656
 k-point  16 :  -0.4286 0.4286 0.0000  plane waves:    5640
 k-point  17 :  -0.0000-0.0000 0.1250  plane waves:    5687
 k-point  18 :   0.1429-0.0000 0.1250  plane waves:    5665
 k-point  19 :   0.2857-0.0000 0.1250  plane waves:    5652
 k-point  20 :   0.4286-0.0000 0.1250  plane waves:    5654
 k-point  21 :  -0.4286 0.0000 0.1250  plane waves:    5646
 k-point  22 :  -0.2857-0.0000 0.1250  plane waves:    5661
 k-point  23 :  -0.1429-0.0000 0.1250  plane waves:    5684
 k-point  24 :   0.1429 0.1429 0.1250  plane waves:    5653
 k-point  25 :   0.2857 0.1429 0.1250  plane waves:    5650
 k-point  26 :   0.4286 0.1429 0.1250  plane waves:    5651
 k-point  27 :  -0.4286 0.1429 0.1250  plane waves:    5654
 k-point  28 :  -0.2857 0.1429 0.1250  plane waves:    5666
 k-point  29 :  -0.1429 0.1429 0.1250  plane waves:    5663
 k-point  30 :   0.2857 0.2857 0.1250  plane waves:    5637
 k-point  31 :   0.4286 0.2857 0.1250  plane waves:    5644
 k-point  32 :  -0.4286 0.2857 0.1250  plane waves:    5634
 k-point  33 :  -0.2857 0.2857 0.1250  plane waves:    5650
 k-point  34 :  -0.1429 0.2857 0.1250  plane waves:    5645
 k-point  35 :   0.4286 0.4286 0.1250  plane waves:    5644
 k-point  36 :  -0.4286 0.4286 0.1250  plane waves:    5651
 k-point  37 :  -0.2857 0.4286 0.1250  plane waves:    5644
 k-point  38 :  -0.1429 0.4286 0.1250  plane waves:    5652
 k-point  39 :  -0.4286-0.4286 0.1250  plane waves:    5673
 k-point  40 :  -0.2857-0.4286 0.1250  plane waves:    5652
 k-point  41 :  -0.1429-0.4286 0.1250  plane waves:    5657
 k-point  42 :  -0.2857-0.2857 0.1250  plane waves:    5656
 k-point  43 :  -0.1429-0.2857 0.1250  plane waves:    5660
 k-point  44 :  -0.1429-0.1429 0.1250  plane waves:    5663
 k-point  45 :  -0.0000-0.0000 0.2500  plane waves:    5652
 k-point  46 :   0.1429-0.0000 0.2500  plane waves:    5642
 k-point  47 :   0.2857-0.0000 0.2500  plane waves:    5640
 k-point  48 :   0.4286-0.0000 0.2500  plane waves:    5664
 k-point  49 :  -0.4286-0.0000 0.2500  plane waves:    5655
 k-point  50 :  -0.2857-0.0000 0.2500  plane waves:    5662
 k-point  51 :  -0.1429-0.0000 0.2500  plane waves:    5676
 k-point  52 :   0.1429 0.1429 0.2500  plane waves:    5646
 k-point  53 :   0.2857 0.1429 0.2500  plane waves:    5648
 k-point  54 :   0.4286 0.1429 0.2500  plane waves:    5647
 k-point  55 :  -0.4286 0.1429 0.2500  plane waves:    5653
 k-point  56 :  -0.2857 0.1429 0.2500  plane waves:    5644
 k-point  57 :  -0.1429 0.1429 0.2500  plane waves:    5655
 k-point  58 :   0.2857 0.2857 0.2500  plane waves:    5641
 k-point  59 :   0.4286 0.2857 0.2500  plane waves:    5646
 k-point  60 :  -0.4286 0.2857 0.2500  plane waves:    5644
 k-point  61 :  -0.2857 0.2857 0.2500  plane waves:    5667
 k-point  62 :  -0.1429 0.2857 0.2500  plane waves:    5648
 k-point  63 :   0.4286 0.4286 0.2500  plane waves:    5669
 k-point  64 :  -0.4286 0.4286 0.2500  plane waves:    5658
 k-point  65 :  -0.2857 0.4286 0.2500  plane waves:    5649
 k-point  66 :  -0.1429 0.4286 0.2500  plane waves:    5657
 k-point  67 :  -0.4286-0.4286 0.2500  plane waves:    5636
 k-point  68 :  -0.2857-0.4286 0.2500  plane waves:    5658
 k-point  69 :  -0.1429-0.4286 0.2500  plane waves:    5657
 k-point  70 :  -0.2857-0.2857 0.2500  plane waves:    5661
 k-point  71 :  -0.1429-0.2857 0.2500  plane waves:    5661
 k-point  72 :  -0.1429-0.1429 0.2500  plane waves:    5670
 k-point  73 :  -0.0000-0.0000 0.3750  plane waves:    5606
 k-point  74 :   0.1429-0.0000 0.3750  plane waves:    5649
 k-point  75 :   0.2857-0.0000 0.3750  plane waves:    5653
 k-point  76 :   0.4286-0.0000 0.3750  plane waves:    5655
 k-point  77 :  -0.4286 0.0000 0.3750  plane waves:    5652
 k-point  78 :  -0.2857 0.0000 0.3750  plane waves:    5660
 k-point  79 :  -0.1429 0.0000 0.3750  plane waves:    5644
 k-point  80 :   0.1429 0.1429 0.3750  plane waves:    5645
 k-point  81 :   0.2857 0.1429 0.3750  plane waves:    5648
 k-point  82 :   0.4286 0.1429 0.3750  plane waves:    5655
 k-point  83 :  -0.4286 0.1429 0.3750  plane waves:    5646
 k-point  84 :  -0.2857 0.1429 0.3750  plane waves:    5653
 k-point  85 :  -0.1429 0.1429 0.3750  plane waves:    5639
 k-point  86 :   0.2857 0.2857 0.3750  plane waves:    5650
 k-point  87 :   0.4286 0.2857 0.3750  plane waves:    5648
 k-point  88 :  -0.4286 0.2857 0.3750  plane waves:    5649
 k-point  89 :  -0.2857 0.2857 0.3750  plane waves:    5654
 k-point  90 :  -0.1429 0.2857 0.3750  plane waves:    5655
 k-point  91 :   0.4286 0.4286 0.3750  plane waves:    5646
 k-point  92 :  -0.4286 0.4286 0.3750  plane waves:    5650
 k-point  93 :  -0.2857 0.4286 0.3750  plane waves:    5648
 k-point  94 :  -0.1429 0.4286 0.3750  plane waves:    5650
 k-point  95 :  -0.4286-0.4286 0.3750  plane waves:    5646
 k-point  96 :  -0.2857-0.4286 0.3750  plane waves:    5653
 k-point  97 :  -0.1429-0.4286 0.3750  plane waves:    5660
 k-point  98 :  -0.2857-0.2857 0.3750  plane waves:    5659
 k-point  99 :  -0.1429-0.2857 0.3750  plane waves:    5652
 k-point 100 :  -0.1429-0.1429 0.3750  plane waves:    5663
 k-point 101 :  -0.0000-0.0000 0.5000  plane waves:    5650
 k-point 102 :   0.1429-0.0000 0.5000  plane waves:    5643
 k-point 103 :   0.2857-0.0000 0.5000  plane waves:    5640
 k-point 104 :   0.4286-0.0000 0.5000  plane waves:    5651
 k-point 105 :   0.1429 0.1429 0.5000  plane waves:    5640
 k-point 106 :   0.2857 0.1429 0.5000  plane waves:    5659
 k-point 107 :   0.4286 0.1429 0.5000  plane waves:    5655
 k-point 108 :  -0.4286 0.1429 0.5000  plane waves:    5647
 k-point 109 :  -0.2857 0.1429 0.5000  plane waves:    5651
 k-point 110 :  -0.1429 0.1429 0.5000  plane waves:    5670
 k-point 111 :   0.2857 0.2857 0.5000  plane waves:    5664
 k-point 112 :   0.4286 0.2857 0.5000  plane waves:    5647
 k-point 113 :  -0.4286 0.2857 0.5000  plane waves:    5651
 k-point 114 :  -0.2857 0.2857 0.5000  plane waves:    5638
 k-point 115 :   0.4286 0.4286 0.5000  plane waves:    5643
 k-point 116 :  -0.4286 0.4286 0.5000  plane waves:    5642

 maximum and minimum number of plane-waves per node :      2871     2792

 maximum number of plane-waves:      5697
 maximum index in each direction: 
   IXMAX=   12   IYMAX=   12   IZMAX=   12
   IXMIN=  -12   IYMIN=  -12   IZMIN=  -12


 parallel 3D FFT for wavefunctions:
    minimum data exchange during FFTs selected (reduces bandwidth)
 parallel 3D FFT for charge:
    minimum data exchange during FFTs selected (reduces bandwidth)


 total amount of memory used by VASP MPI-rank0   360249. kBytes
=======================================================================

   base      :      30000. kBytes
   nonl-proj :     142671. kBytes
   fftplans  :      14374. kBytes
   grid      :      11100. kBytes
   one-center:         77. kBytes
   wavefun   :     162027. kBytes
 
     INWAV:  cpu time    0.0001: real time    0.0001
 Broyden mixing: mesh for mixing (old mesh)
   NGX = 25   NGY = 25   NGZ = 25
  (NGX  =100   NGY  =100   NGZ  =100)
  gives a total of  15625 points

 initial charge density was supplied:
 charge density of overlapping atoms calculated
 number of electron      98.0000000 magnetization 
 keeping initial charge density in first step


--------------------------------------------------------------------------------------------------------


 Maximum index for augmentation-charges        22349 (set IRDMAX)


--------------------------------------------------------------------------------------------------------


 First call to EWALD:  gamma=   0.320
 Maximum number of real-space cells 3x 3x 3
 Maximum number of reciprocal cells 3x 3x 3

    FEWALD:  cpu time    0.0171: real time    0.0172


--------------------------------------- Iteration      1(   1)  ---------------------------------------


    POTLOK:  cpu time    0.1449: real time    0.1463
    SETDIJ:  cpu time    0.6032: real time    0.6077
    TRIAL :  cpu time   19.4419: real time   19.6408
    CORREC:  cpu time    0.0020: real time    0.0020
    --------------------------------------------
      LOOP:  cpu time   20.2718: real time   20.4826

 eigenvalue-minimisations  : 14136
 total energy-change (2. order) : 0.1089803E+04  (-0.6647408E+04)
 number of electron      98.0000000 magnetization 
 augmentation part       98.0000000 magnetization 

 Free energy of the ion-electron system (eV)
  ---------------------------------------------------
  alpha Z        PSCENC =       493.23449439
  Ewald energy   TEWEN  =     -7537.56792411
  -Hartree energ DENC   =     -3727.83194777
  -exchange      EXHF   =         0.00000000
  -V(xc)+E(xc)   XCENC  =       467.79489954
  PAW double counting   =      9166.97638771    -9126.13493418
  entropy T*S    EENTRO =        -0.00044070
  eigenvalues    EBANDS =      -168.83468826
  atomic energy  EATOM  =     11522.16744521
  ---------------------------------------------------
  free energy    TOTEN  =      1089.80329183 eV

  energy without entropy =     1089.80373253  energy(sigma->0) =     1089.80351218


--------------------------------------------------------------------------------------------------------




--------------------------------------- Iteration      1(   2)  ---------------------------------------


    TRIAL :  cpu time   20.2365: real time   20.4394
    CORREC:  cpu time    0.0019: real time    0.0019
    --------------------------------------------
      LOOP:  cpu time   20.2405: real time   20.4442

 eigenvalue-minimisations  : 15384
 total energy-change (2. order) :-0.1250281E+04  (-0.1214846E+04)
 number of electron      98.0000000 magnetization 
 augmentation part       98.0000000 magnetization 

 Free energy of the ion-electron system (eV)
  ---------------------------------------------------
  alpha Z        PSCENC =       493.23449439
  Ewald energy   TEWEN  =     -7537.56792411
  -Hartree energ DENC   =     -3727.83194777
  -exchange      EXHF   =         0.00000000
  -V(xc)+E(xc)   XCENC  =       467.79489954
  PAW double counting   =      9166.97638771    -9126.13493418
  entropy T*S    EENTRO =        -0.00196692
  eigenvalues    EBANDS =     -1419.11373995
  atomic energy  EATOM  =     11522.16744521
  ---------------------------------------------------
  free energy    TOTEN  =      -160.47728608 eV

  energy without entropy =     -160.47531916  energy(sigma->0) =     -160.47630262


--------------------------------------------------------------------------------------------------------




--------------------------------------- Iteration      1(   3)  ---------------------------------------


    TRIAL :  cpu time   22.5595: real time   22.7900
    CORREC:  cpu time    0.0019: real time    0.0019
    --------------------------------------------
      LOOP:  cpu time   22.5638: real time   22.7946

 eigenvalue-minimisations  : 18336
 total energy-change (2. order) :-0.4891643E+02  (-0.4713151E+02)
 number of electron      98.0000000 magnetization 
 augmentation part       98.0000000 magnetization 

 Free energy of the ion-electron system (eV)
  ---------------------------------------------------
  alpha Z        PSCENC =       493.23449439
  Ewald energy   TEWEN  =     -7537.56792411
  -Hartree energ DENC   =     -3727.83194777
  -exchange      EXHF   =         0.00000000
  -V(xc)+E(xc)   XCENC  =       467.79489954
  PAW double counting   =      9166.97638771    -9126.13493418
  entropy T*S    EENTRO =        -0.00193981
  eigenvalues    EBANDS =     -1468.03019576
  atomic energy  EATOM  =     11522.16744521
  ---------------------------------------------------
  free energy    TOTEN  =      -209.39371478 eV

  energy without entropy =     -209.39177497  energy(sigma->0) =     -209.39274488


--------------------------------------------------------------------------------------------------------




--------------------------------------- Iteration      1(   4)  ---------------------------------------


    TRIAL :  cpu time   21.8283: real time   22.0474
    CORREC:  cpu time    0.0019: real time    0.0019
    --------------------------------------------
      LOOP:  cpu time   21.8323: real time   22.0521

 eigenvalue-minimisations  : 17088
 total energy-change (2. order) :-0.1031206E+01  (-0.1018039E+01)
 number of electron      98.0000000 magnetization 
 augmentation part       98.0000000 magnetization 

 Free energy of the ion-electron system (eV)
  ---------------------------------------------------
  alpha Z        PSCENC =       493.23449439
  Ewald energy   TEWEN  =     -7537.56792411
  -Hartree energ DENC   =     -3727.83194777
  -exchange      EXHF   =         0.00000000
  -V(xc)+E(xc)   XCENC  =       467.79489954
  PAW double counting   =      9166.97638771    -9126.13493418
  entropy T*S    EENTRO =        -0.00189308
  eigenvalues    EBANDS =     -1469.06144859
  atomic energy  EATOM  =     11522.16744521
  ---------------------------------------------------
  free energy    TOTEN  =      -210.42492087 eV

  energy without entropy =     -210.42302780  energy(sigma->0) =     -210.42397434


--------------------------------------------------------------------------------------------------------




--------------------------------------- Iteration      1(   5)  ---------------------------------------


    TRIAL :  cpu time   22.1167: real time   22.3408
    CORREC:  cpu time    0.0018: real time    0.0018
    CHARGE:  cpu time    1.7132: real time    1.7260
    --------------------------------------------
      LOOP:  cpu time   23.8323: real time   24.0716

 eigenvalue-minimisations  : 17880
 total energy-change (2. order) :-0.2688954E-01  (-0.2683153E-01)
 number of electron      98.0000001 magnetization 
 augmentation part       13.2031970 magnetization 

 Free energy of the ion-electron system (eV)
  ---------------------------------------------------
  alpha Z        PSCENC =       493.23449439
  Ewald energy   TEWEN  =     -7537.56792411
  -Hartree energ DENC   =     -3727.83194777
  -exchange      EXHF   =         0.00000000
  -V(xc)+E(xc)   XCENC  =       467.79489954
  PAW double counting   =      9166.97638771    -9126.13493418
  entropy T*S    EENTRO =        -0.00185637
  eigenvalues    EBANDS =     -1469.08837483
  atomic energy  EATOM  =     11522.16744521
  ---------------------------------------------------
  free energy    TOTEN  =      -210.45181041 eV

  energy without entropy =     -210.44995404  energy(sigma->0) =     -210.45088222


--------------------------------------------------------------------------------------------------------




--------------------------------------- Iteration      1(   6)  ---------------------------------------


    POTLOK:  cpu time    0.1211: real time    0.1218
    SETDIJ:  cpu time    0.5861: real time    0.5905
    TRIAL :  cpu time   15.1172: real time   15.2515
    CORREC:  cpu time    5.6549: real time    5.7007
    CHARGE:  cpu time    1.6626: real time    1.6738
    --------------------------------------------
      LOOP:  cpu time   23.1431: real time   23.3404

 eigenvalue-minimisations  :     0
 total energy-change (2. order) : 0.6540228E+02  (-0.1727993E+02)
 number of electron      98.0000001 magnetization 
 augmentation part       14.3924670 magnetization 

 Free energy of the ion-electron system (eV)
  ---------------------------------------------------
  alpha Z        PSCENC =       493.23449439
  Ewald energy   TEWEN  =     -7537.56792411
  -Hartree energ DENC   =     -3583.17003308
  -exchange      EXHF   =         0.00000000
  -V(xc)+E(xc)   XCENC  =       474.91314931
  PAW double counting   =     16039.75760247   -16032.14748289
  entropy T*S    EENTRO =        -0.00156670
  eigenvalues    EBANDS =     -1522.23492526
  atomic energy  EATOM  =     11522.16744521
  ---------------------------------------------------
  free energy    TOTEN  =      -145.04953034 eV

  energy without entropy =     -145.04796364  energy(sigma->0) =     -145.04874699


--------------------------------------------------------------------------------------------------------




--------------------------------------- Iteration      1(   7)  ---------------------------------------


    POTLOK:  cpu time    0.1138: real time    0.1144
    SETDIJ:  cpu time    0.5802: real time    0.5844
    TRIAL :  cpu time   14.7733: real time   14.9077
    CORREC:  cpu time    5.6503: real time    5.6965
    CHARGE:  cpu time    1.6419: real time    1.6532
    --------------------------------------------
      LOOP:  cpu time   22.7603: real time   22.9581

 eigenvalue-minimisations  :     0
 total energy-change (2. order) :-0.1748792E+02  (-0.3096593E+01)
 number of electron      98.0000001 magnetization 
 augmentation part       14.4437810 magnetization 

 Free energy of the ion-electron system (eV)
  ---------------------------------------------------
  alpha Z        PSCENC =       493.23449439
  Ewald energy   TEWEN  =     -7537.56792411
  -Hartree energ DENC   =     -3664.86636686
  -exchange      EXHF   =         0.00000000
  -V(xc)+E(xc)   XCENC  =       479.40811128
  PAW double counting   =     15423.52846528   -15406.98667861
  entropy T*S    EENTRO =        -0.00149806
  eigenvalues    EBANDS =     -1471.45342630
  atomic energy  EATOM  =     11522.16744521
  ---------------------------------------------------
  free energy    TOTEN  =      -162.53744642 eV

  energy without entropy =     -162.53594836  energy(sigma->0) =     -162.53669739


--------------------------------------------------------------------------------------------------------




--------------------------------------- Iteration      1(   8)  ---------------------------------------


    POTLOK:  cpu time    0.1152: real time    0.1160
    SETDIJ:  cpu time    0.5795: real time    0.5837
    TRIAL :  cpu time   15.0539: real time   15.1923
    CORREC:  cpu time    5.6373: real time    5.6820
    CHARGE:  cpu time    1.6791: real time    1.6909
    --------------------------------------------
      LOOP:  cpu time   23.0664: real time   23.2666

 eigenvalue-minimisations  :     0
 total energy-change (2. order) :-0.3097827E+01  (-0.7326028E+00)
 number of electron      98.0000001 magnetization 
 augmentation part       14.4752196 magnetization 

 Free energy of the ion-electron system (eV)
  ---------------------------------------------------
  alpha Z        PSCENC =       493.23449439
  Ewald energy   TEWEN  =     -7537.56792411
  -Hartree energ DENC   =     -3683.34419241
  -exchange      EXHF   =         0.00000000
  -V(xc)+E(xc)   XCENC  =       480.19188881
  PAW double counting   =     15009.00642034   -14988.99670431
  entropy T*S    EENTRO =        -0.00158411
  eigenvalues    EBANDS =     -1460.32520345
  atomic energy  EATOM  =     11522.16744521
  ---------------------------------------------------
  free energy    TOTEN  =      -165.63527360 eV

  energy without entropy =     -165.63368949  energy(sigma->0) =     -165.63448154


--------------------------------------------------------------------------------------------------------




--------------------------------------- Iteration      1(   9)  ---------------------------------------


    POTLOK:  cpu time    0.1154: real time    0.1161
    SETDIJ:  cpu time    0.5790: real time    0.5833
    TRIAL :  cpu time   14.8765: real time   15.0109
    CORREC:  cpu time    5.7688: real time    5.8139
    CHARGE:  cpu time    1.6739: real time    1.6852
    --------------------------------------------
      LOOP:  cpu time   23.0141: real time   23.2112

 eigenvalue-minimisations  :     0
 total energy-change (2. order) :-0.7312840E+00  (-0.3158126E+00)
 number of electron      98.0000001 magnetization 
 augmentation part       14.4555050 magnetization 

 Free energy of the ion-electron system (eV)
  ---------------------------------------------------
  alpha Z        PSCENC =       493.23449439
  Ewald energy   TEWEN  =     -7537.56792411
  -Hartree energ DENC   =     -3690.88441463
  -exchange      EXHF   =         0.00000000
  -V(xc)+E(xc)   XCENC  =       480.47099551
  PAW double counting   =     14801.42788595   -14779.79601007
  entropy T*S    EENTRO =        -0.00186609
  eigenvalues    EBANDS =     -1455.41744579
  atomic energy  EATOM  =     11522.16744521
  ---------------------------------------------------
  free energy    TOTEN  =      -166.36655764 eV

  energy without entropy =     -166.36469155  energy(sigma->0) =     -166.36562460


--------------------------------------------------------------------------------------------------------




--------------------------------------- Iteration      1(  10)  ---------------------------------------


    POTLOK:  cpu time    0.1119: real time    0.1126
    SETDIJ:  cpu time    0.5903: real time    0.5950
    TRIAL :  cpu time   14.4033: real time   14.5408
    CORREC:  cpu time    5.1173: real time    5.1617
    CHARGE:  cpu time    1.5447: real time    1.5584
    --------------------------------------------
      LOOP:  cpu time   21.7689: real time   21.9703

 eigenvalue-minimisations  :     0
 total energy-change (2. order) :-0.3158956E+00  (-0.1345540E+00)
 number of electron      98.0000001 magnetization 
 augmentation part       14.4397934 magnetization 

 Free energy of the ion-electron system (eV)
  ---------------------------------------------------
  alpha Z        PSCENC =       493.23449439
  Ewald energy   TEWEN  =     -7537.56792411
  -Hartree energ DENC   =     -3691.03858948
  -exchange      EXHF   =         0.00000000
  -V(xc)+E(xc)   XCENC  =       480.54382857
  PAW double counting   =     14675.48273198   -14652.97151751
  entropy T*S    EENTRO =        -0.00196597
  eigenvalues    EBANDS =     -1456.53105620
  atomic energy  EATOM  =     11522.16744521
  ---------------------------------------------------
  free energy    TOTEN  =      -166.68245326 eV

  energy without entropy =     -166.68048729  energy(sigma->0) =     -166.68147027


--------------------------------------------------------------------------------------------------------




--------------------------------------- Iteration      1(  11)  ---------------------------------------


    POTLOK:  cpu time    0.1123: real time    0.1133
    SETDIJ:  cpu time    0.5687: real time    0.5733
    TRIAL :  cpu time   15.2352: real time   15.3802
    CORREC:  cpu time    5.5926: real time    5.6365
    CHARGE:  cpu time    1.6968: real time    1.7094
    --------------------------------------------
      LOOP:  cpu time   23.2066: real time   23.4142

 eigenvalue-minimisations  :     0
 total energy-change (2. order) :-0.1345554E+00  (-0.4631311E-01)
 number of electron      98.0000001 magnetization 
[...]
     10     -29.1182      2.00000
     11     -28.5541      2.00000
     12     -28.4053      2.00000
     13     -28.2726      2.00000
     14     -28.1257      2.00000
     15     -28.1170      2.00000
     16     -28.1093      2.00000
     17     -28.0681      2.00000
     18     -28.0163      2.00000
     19     -27.8012      2.00000
     20     -27.7060      2.00000
     21     -27.6877      2.00000
     22     -26.8303      2.00000
     23     -26.4375      2.00000
     24     -25.8690      2.00000
     25      -1.1363      2.00000
     26       0.2391      2.00000
     27       0.6643      2.00000
     28       1.0493      2.00000
     29       2.3076      2.00000
     30       2.3620      2.00000
     31       2.7416      2.00000
     32       2.8447      2.00000
     33       3.0335      2.00000
     34       3.3655      2.00000
     35       3.6313      2.00000
     36       3.8249      2.00000
     37       4.1016      2.00000
     38       4.5312      2.00000
     39       4.9595      2.00000
     40       5.3113      2.00000
     41       5.8001      2.00000
     42       6.0208      2.00000
     43       6.0946      2.00000
     44       6.6720      2.00000
     45       6.8457      2.00000
     46       7.1724      2.00000
     47       7.3398      2.00000
     48       7.8161      2.00000
     49       7.9616      2.00000
     50       8.3222      0.00000
     51       8.7915      0.00000
     52       8.8342      0.00000
     53       9.3501      0.00000
     54       9.4399      0.00000
     55       9.6158      0.00000
     56      10.0092      0.00000
     57      10.5539      0.00000
     58      10.6182      0.00000
     59      10.9123      0.00000
     60      11.5301      0.00000

 k-point   110 :      -0.1429    0.1429    0.5000
  band No.  band energies     occupation 
      1     -55.1784      2.00000
      2     -55.0918      2.00000
      3     -54.7973      2.00000
      4     -54.7873      2.00000
      5     -54.1063      2.00000
      6     -54.0086      2.00000
      7     -30.8227      2.00000
      8     -30.6080      2.00000
      9     -29.6115      2.00000
     10     -28.7137      2.00000
     11     -28.5628      2.00000
     12     -28.5273      2.00000
     13     -28.4337      2.00000
     14     -28.1389      2.00000
     15     -28.1198      2.00000
     16     -28.1190      2.00000
     17     -28.0808      2.00000
     18     -28.0781      2.00000
     19     -27.7968      2.00000
     20     -27.7644      2.00000
     21     -27.7104      2.00000
     22     -27.2843      2.00000
     23     -26.0985      2.00000
     24     -25.7987      2.00000
     25      -1.2377      2.00000
     26       0.6389      2.00000
     27       0.7764      2.00000
     28       0.8988      2.00000
     29       2.3239      2.00000
     30       2.5085      2.00000
     31       2.7129      2.00000
     32       2.8844      2.00000
     33       2.9491      2.00000
     34       3.1785      2.00000
     35       3.4702      2.00000
     36       3.4950      2.00000
     37       3.9565      2.00000
     38       4.8213      2.00000
     39       4.8545      2.00000
     40       4.9351      2.00000
     41       5.9623      2.00000
     42       6.0865      2.00000
     43       6.7420      2.00000
     44       6.7963      2.00000
     45       6.8803      2.00000
     46       7.0156      2.00000
     47       7.4056      2.00000
     48       7.6569      2.00000
     49       8.3529      0.00000
     50       8.4524      0.00000
     51       8.5384      0.00000
     52       8.7235      0.00000
     53       9.0714      0.00000
     54       9.2249      0.00000
     55       9.6636      0.00000
     56       9.9352      0.00000
     57      10.5413      0.00000
     58      10.5946      0.00000
     59      10.8718      0.00000
     60      11.7190      0.00000

 k-point   111 :       0.2857    0.2857    0.5000
  band No.  band energies     occupation 
      1     -55.2678      2.00000
      2     -54.9712      2.00000
      3     -54.8017      2.00000
      4     -54.7670      2.00000
      5     -54.2429      2.00000
      6     -53.9192      2.00000
      7     -30.8413      2.00000
      8     -30.3755      2.00000
      9     -29.9903      2.00000
     10     -28.7194      2.00000
     11     -28.5893      2.00000
     12     -28.4918      2.00000
     13     -28.3413      2.00000
     14     -28.1757      2.00000
     15     -28.1270      2.00000
     16     -28.0981      2.00000
     17     -28.0678      2.00000
     18     -28.0221      2.00000
     19     -27.8770      2.00000
     20     -27.8413      2.00000
     21     -27.6420      2.00000
     22     -26.8709      2.00000
     23     -26.4029      2.00000
     24     -25.7954      2.00000
     25      -0.7547      2.00000
     26      -0.5617      2.00000
     27       0.3277      2.00000
     28       1.4874      2.00000
     29       2.0079      2.00000
     30       2.5234      2.00000
     31       2.7533      2.00000
     32       2.8082      2.00000
     33       3.1885      2.00000
     34       3.2903      2.00000
     35       3.7499      2.00000
     36       4.0181      2.00000
     37       4.1693      2.00000
     38       4.8037      2.00000
     39       4.9940      2.00000
     40       5.2874      2.00000
     41       5.6116      2.00000
     42       6.4539      2.00000
     43       6.5629      2.00000
     44       6.7497      2.00000
     45       7.2555      2.00000
     46       7.3681      2.00000
     47       7.5663      2.00000
     48       7.9263      2.00000
     49       7.9355      2.00000
     50       8.0713      2.00000
     51       8.3710      0.00000
     52       8.7261      0.00000
     53       8.8906      0.00000
     54       8.9439      0.00000
     55       9.1575      0.00000
     56      10.3079      0.00000
     57      10.5542      0.00000
     58      10.5799      0.00000
     59      11.0285      0.00000
     60      11.1072      0.00000

 k-point   112 :       0.4286    0.2857    0.5000
  band No.  band energies     occupation 
      1     -55.2950      2.00000
      2     -54.9204      2.00000
      3     -54.7975      2.00000
      4     -54.7624      2.00000
      5     -54.3059      2.00000
      6     -53.8885      2.00000
      7     -30.7933      2.00000
      8     -30.6328      2.00000
      9     -29.5664      2.00000
     10     -29.1026      2.00000
     11     -28.6162      2.00000
     12     -28.2903      2.00000
     13     -28.2767      2.00000
     14     -28.1216      2.00000
     15     -28.1174      2.00000
     16     -28.0954      2.00000
     17     -28.0643      2.00000
     18     -27.9551      2.00000
     19     -27.9272      2.00000
     20     -27.7839      2.00000
     21     -27.6239      2.00000
     22     -27.3630      2.00000
     23     -26.0710      2.00000
     24     -25.8652      2.00000
     25      -0.8015      2.00000
     26      -0.4791      2.00000
     27       0.3575      2.00000
     28       1.6531      2.00000
     29       1.8682      2.00000
     30       2.3645      2.00000
     31       2.4687      2.00000
     32       2.7328      2.00000
     33       3.1227      2.00000
     34       3.2702      2.00000
     35       3.5965      2.00000
     36       4.1232      2.00000
     37       4.4099      2.00000
     38       4.4792      2.00000
     39       5.1589      2.00000
     40       5.4768      2.00000
     41       5.8821      2.00000
     42       6.1860      2.00000
     43       6.4775      2.00000
     44       6.8786      2.00000
     45       7.2340      2.00000
     46       7.2421      2.00000
     47       7.5179      2.00000
     48       7.8896      2.00000
     49       8.2155      0.02117
     50       8.3909      0.00000
     51       8.6198      0.00000
     52       8.7977      0.00000
     53       8.8686      0.00000
     54       9.1081      0.00000
     55       9.2707      0.00000
     56      10.1230      0.00000
     57      10.4348      0.00000
     58      10.6240      0.00000
     59      10.7831      0.00000
     60      11.2127      0.00000

 k-point   113 :      -0.4286    0.2857    0.5000
  band No.  band energies     occupation 
      1     -55.2946      2.00000
      2     -54.9225      2.00000
      3     -54.7950      2.00000
      4     -54.7627      2.00000
      5     -54.3066      2.00000
      6     -53.8882      2.00000
      7     -30.7880      2.00000
      8     -30.6378      2.00000
      9     -29.5718      2.00000
     10     -29.0972      2.00000
     11     -28.6195      2.00000
     12     -28.2889      2.00000
     13     -28.2764      2.00000
     14     -28.1178      2.00000
     15     -28.1155      2.00000
     16     -28.0966      2.00000
     17     -28.0656      2.00000
     18     -27.9540      2.00000
     19     -27.9259      2.00000
     20     -27.7817      2.00000
     21     -27.6259      2.00000
     22     -27.3676      2.00000
     23     -26.0758      2.00000
     24     -25.8604      2.00000
     25      -0.9784      2.00000
     26      -0.2134      2.00000
     27       0.5577      2.00000
     28       1.6200      2.00000
     29       1.8754      2.00000
     30       2.2693      2.00000
     31       2.3663      2.00000
     32       2.7313      2.00000
     33       3.1046      2.00000
     34       3.1326      2.00000
     35       3.2620      2.00000
     36       4.2041      2.00000
     37       4.3750      2.00000
     38       4.7802      2.00000
     39       5.2514      2.00000
     40       5.3726      2.00000
     41       5.6369      2.00000
     42       6.0599      2.00000
     43       6.4525      2.00000
     44       6.8659      2.00000
     45       7.1542      2.00000
     46       7.2214      2.00000
     47       7.5268      2.00000
     48       7.9874      2.00000
     49       8.2240      0.00362
     50       8.5827      0.00000
     51       8.7699      0.00000
     52       8.8424      0.00000
     53       8.9168      0.00000
     54       9.1838      0.00000
     55       9.4083      0.00000
     56       9.9100      0.00000
     57      10.4829      0.00000
     58      10.6855      0.00000
     59      10.7947      0.00000
     60      11.0472      0.00000

 k-point   114 :      -0.2857    0.2857    0.5000
  band No.  band energies     occupation 
      1     -55.2668      2.00000
      2     -54.9748      2.00000
      3     -54.7974      2.00000
      4     -54.7679      2.00000
      5     -54.2445      2.00000
      6     -53.9184      2.00000
      7     -30.8358      2.00000
      8     -30.3803      2.00000
      9     -29.9958      2.00000
     10     -28.7131      2.00000
     11     -28.5983      2.00000
     12     -28.4900      2.00000
     13     -28.3355      2.00000
     14     -28.1746      2.00000
     15     -28.1194      2.00000
     16     -28.1016      2.00000
     17     -28.0694      2.00000
     18     -28.0206      2.00000
     19     -27.8720      2.00000
     20     -27.8411      2.00000
     21     -27.6477      2.00000
     22     -26.8757      2.00000
     23     -26.4076      2.00000
     24     -25.7906      2.00000
     25      -1.0910      2.00000
     26       0.0425      2.00000
     27       0.7136      2.00000
     28       1.3849      2.00000
     29       2.0290      2.00000
     30       2.2364      2.00000
     31       2.4983      2.00000
     32       2.7106      2.00000
     33       3.0094      2.00000
     34       3.1382      2.00000
     35       3.3659      2.00000
     36       4.1469      2.00000
     37       4.5224      2.00000
     38       4.9120      2.00000
     39       4.9414      2.00000
     40       5.0580      2.00000
     41       5.6499      2.00000
     42       5.9571      2.00000
     43       6.2891      2.00000
     44       6.5791      2.00000
     45       7.0305      2.00000
     46       7.5504      2.00000
     47       7.7653      2.00000
     48       7.8954      2.00000
     49       7.9427      2.00000
     50       8.2928      0.00000
     51       8.8536      0.00000
     52       8.9466      0.00000
     53       8.9738      0.00000
     54       9.3782      0.00000
     55       9.5700      0.00000
     56       9.7726      0.00000
     57      10.3981      0.00000
     58      10.7103      0.00000
     59      11.0851      0.00000
     60      11.1807      0.00000

 k-point   115 :       0.4286    0.4286    0.5000
  band No.  band energies     occupation 
      1     -55.3266      2.00000
      2     -54.8285      2.00000
      3     -54.8018      2.00000
      4     -54.7583      2.00000
      5     -54.4032      2.00000
      6     -53.8512      2.00000
      7     -30.8513      2.00000
      8     -30.7938      2.00000
      9     -29.0881      2.00000
     10     -28.7190      2.00000
     11     -28.6452      2.00000
     12     -28.3953      2.00000
     13     -28.2563      2.00000
     14     -28.1895      2.00000
     15     -28.1245      2.00000
     16     -28.1109      2.00000
     17     -28.0927      2.00000
     18     -28.0225      2.00000
     19     -27.9950      2.00000
     20     -27.8807      2.00000
     21     -27.8492      2.00000
     22     -27.5999      2.00000
     23     -25.8565      2.00000
     24     -25.7888      2.00000
     25      -0.9017      2.00000
     26      -0.3893      2.00000
     27       0.5250      2.00000
     28       1.7066      2.00000
     29       2.0481      2.00000
     30       2.2005      2.00000
     31       2.2358      2.00000
     32       2.4907      2.00000
     33       2.9939      2.00000
     34       3.0323      2.00000
     35       3.0619      2.00000
     36       3.9727      2.00000
     37       4.7873      2.00000
     38       4.8597      2.00000
     39       5.1737      2.00000
     40       5.2551      2.00000
     41       5.9595      2.00000
     42       5.9935      2.00000
     43       6.9990      2.00000
     44       7.0496      2.00000
     45       7.6868      2.00000
     46       7.7990      2.00000
     47       8.0939      2.00000
     48       8.1530      1.96562
     49       8.1938      0.43992
     50       8.2371      0.00013
     51       8.4710      0.00000
     52       8.5576      0.00000
     53       8.7886      0.00000
     54       8.8694      0.00000
     55       9.3539      0.00000
     56       9.7634      0.00000
     57      10.2317      0.00000
     58      10.3626      0.00000
     59      10.6255      0.00000
     60      11.4070      0.00000

 k-point   116 :      -0.4286    0.4286    0.5000
  band No.  band energies     occupation 
      1     -55.3264      2.00000
      2     -54.8326      2.00000
      3     -54.7974      2.00000
      4     -54.7584      2.00000
      5     -54.4036      2.00000
      6     -53.8511      2.00000
      7     -30.8461      2.00000
      8     -30.7989      2.00000
      9     -29.0936      2.00000
     10     -28.7125      2.00000
     11     -28.6464      2.00000
     12     -28.3927      2.00000
     13     -28.2557      2.00000
     14     -28.1916      2.00000
     15     -28.1190      2.00000
     16     -28.1134      2.00000
     17     -28.0931      2.00000
     18     -28.0235      2.00000
     19     -27.9932      2.00000
     20     -27.8807      2.00000
     21     -27.8528      2.00000
     22     -27.6006      2.00000
     23     -25.8613      2.00000
     24     -25.7840      2.00000
     25      -0.9605      2.00000
     26      -0.3163      2.00000
     27       0.6726      2.00000
     28       1.7090      2.00000
     29       2.0361      2.00000
     30       2.1696      2.00000
     31       2.1994      2.00000
     32       2.4913      2.00000
     33       2.8176      2.00000
     34       2.9855      2.00000
     35       3.0320      2.00000
     36       3.9134      2.00000
     37       4.9891      2.00000
     38       5.0348      2.00000
     39       5.1008      2.00000
     40       5.2156      2.00000
     41       5.8600      2.00000
     42       5.8666      2.00000
     43       6.9959      2.00000
     44       7.0408      2.00000
     45       7.6653      2.00000
     46       7.7962      2.00000
     47       8.1330      1.99958
     48       8.1635      1.82963
     49       8.1767      1.34076
     50       8.2460      0.00001
     51       8.4654      0.00000
     52       8.5555      0.00000
     53       8.7944      0.00000
     54       8.9908      0.00000
     55       9.4859      0.00000
     56       9.6610      0.00000
     57      10.2249      0.00000
     58      10.3719      0.00000
     59      10.6543      0.00000
     60      11.3775      0.00000


--------------------------------------------------------------------------------------------------------


 soft charge-density along one line, spin component           1
         0         1         2         3         4         5         6         7         8         9
 total charge-density along one line
 
 pseudopotential strength for first ion, spin component:           1
  5.999   9.093  -0.000   0.000   0.000  -0.000   0.000   0.000
  9.093  13.772  -0.000   0.000   0.000  -0.000   0.000   0.000
 -0.000  -0.000  -1.982  -0.009  -0.003  -3.309  -0.018  -0.006
  0.000   0.000  -0.009  -1.985  -0.007  -0.018  -3.315  -0.013
  0.000   0.000  -0.003  -0.007  -1.980  -0.006  -0.013  -3.305
 -0.000  -0.000  -3.309  -0.018  -0.006  -5.313  -0.034  -0.011
  0.000   0.000  -0.018  -3.315  -0.013  -0.034  -5.323  -0.024
  0.000   0.000  -0.006  -0.013  -3.305  -0.011  -0.024  -5.305
 total augmentation occupancy for first ion, spin component:           1
  3.316  -0.713   0.000   0.000   0.000   0.000   0.000   0.000
 -0.713   0.171   0.000   0.000   0.000   0.000   0.000   0.000
  0.000   0.000   2.144   0.565  -0.022  -0.521  -0.144   0.018
  0.000   0.000   0.565   2.169   0.394  -0.144  -0.518  -0.100
  0.000   0.000  -0.022   0.394   2.160   0.018  -0.100  -0.534
  0.000   0.000  -0.521  -0.144   0.018   0.132   0.041  -0.007
  0.000   0.000  -0.144  -0.518  -0.100   0.041   0.130   0.028
  0.000   0.000   0.018  -0.100  -0.534  -0.007   0.028   0.137


------------------------ aborting loop because EDIFF is reached ----------------------------------------




--------------------------------------------------------------------------------------------------------



  FREE ENERGIE OF THE ION-ELECTRON SYSTEM (eV)
  ---------------------------------------------------
  free  energy   TOTEN  =      -166.90772299 eV

  energy  without entropy=     -166.90545409  energy(sigma->0) =     -166.90658854
 


--------------------------------------------------------------------------------------------------------


    POTLOK:  cpu time    0.7152: real time    0.7218


--------------------------------------------------------------------------------------------------------


 writing wavefunctions
     LOOP+:  cpu time  881.1159: real time  888.8675
    4ORBIT:  cpu time    0.0000: real time    0.0000

 total amount of memory used by VASP MPI-rank0   360249. kBytes
=======================================================================

   base      :      30000. kBytes
   nonl-proj :     142671. kBytes
   fftplans  :      14374. kBytes
   grid      :      11100. kBytes
   one-center:         77. kBytes
   wavefun   :     162027. kBytes
 
  
  
 General timing and accounting informations for this job:
 ========================================================
  
                  Total CPU time used (sec):      885.657
                            User time (sec):      881.837
                          System time (sec):        3.820
                         Elapsed time (sec):      896.174
  
                   Maximum memory used (kb):      566492.
                   Average memory used (kb):          N/A
  
                          Minor page faults:      1153575
                          Major page faults:           22
                 Voluntary context switches:         1225
