<?xml version="1.0" encoding="ISO-8859-1"?>
<modeling>
 <generator>
  <i name="program" type="string">vasp </i>
  <i name="version" type="string">6.2.0  </i>
  <i name="subversion" type="string">18Jan21 (build Jan 05 2022 15:41:44) complex                          parallel </i>
  <i name="platform" type="string">LinuxIFC </i>
  <i name="date" type="string">2025 05 07 </i>
  <i name="time" type="string">18:13:13 </i>
 </generator>
 <incar>
  <i type="string" name="SYSTEM">routine with relax: pwdword</i>
  <i type="string" name="PREC">Acc</i>
  <i type="int" name="IALGO">    38</i>
  <i type="string" name="ALGO">A</i>
  <i type="logical" name="ADDGRID"> T  </i>
  <i type="int" name="ICHARG">     2</i>
  <i type="int" name="NELM">   100</i>
  <i type="int" name="NELMIN">     6</i>
  <i name="EDIFF">      0.00000000</i>
  <i type="int" name="NSW">     0</i>
  <i type="int" name="ISIF">    -1</i>
  <i name="ENCUT">    600.00000000</i>
  <i type="logical" name="LREAL"> F  </i>
  <i type="int" name="ISMEAR">     0</i>
  <i name="SIGMA">      0.02000000</i>
  <i type="logical" name="LASPH"> T  </i>
  <i type="string" name="METAGGA">R2SCAN</i>
  <i type="logical" name="LMIXTAU"> F  </i>
 </incar>
 <primitive_cell>
  <structure name="primitive_cell" >
   <crystal>
    <varray name="basis" >
     <v>       5.47719441       0.00000000      -3.17284772 </v>
     <v>      -1.81959295       5.16611460      -3.17284772 </v>
     <v>       0.00000000       0.00000000       6.32982000 </v>
    </varray>
    <i name="volume">    179.10740946 </i>
    <varray name="rec_basis" >
     <v>       0.18257522       0.06430608       0.00000000 </v>
     <v>       0.00000000       0.19356907       0.00000000 </v>
     <v>       0.09151657       0.12926096       0.15798238 </v>
    </varray>
   </crystal>
   <varray name="positions" >
    <v>       0.74258000       0.24258000       0.98516000 </v>
    <v>       0.25742000       0.75742000       0.01484000 </v>
    <v>       0.24258000       0.25742000       0.50000000 </v>
    <v>       0.75742000       0.74258000       0.50000000 </v>
    <v>       0.50000000       0.00000000       0.50000000 </v>
    <v>       0.00000000       0.00000000       0.00000000 </v>
    <v>       0.00000000       0.50000000       0.50000000 </v>
    <v>       0.50000000       0.50000000       0.00000000 </v>
    <v>       0.25000000       0.25000000       0.00000000 </v>
    <v>       0.75000000       0.75000000       0.00000000 </v>
   </varray>
  </structure>
  <varray name="primitive_index" >
   <v type="int" >        1 </v>
   <v type="int" >        2 </v>
   <v type="int" >        3 </v>
   <v type="int" >        4 </v>
   <v type="int" >        5 </v>
   <v type="int" >        6 </v>
   <v type="int" >        7 </v>
   <v type="int" >        8 </v>
   <v type="int" >        9 </v>
   <v type="int" >       10 </v>
  </varray>
 </primitive_cell>
 <kpoints>
  <generation param="Gamma">
   <v type="int" name="divisions">       7        7        8 </v>
   <v name="usershift">      0.00000000       0.00000000       0.00000000 </v>
   <v name="genvec1">      0.14285714      -0.00000000       0.00000000 </v>
   <v name="genvec2">      0.00000000       0.14285714       0.00000000 </v>
   <v name="genvec3">      0.00000000       0.00000000       0.12500000 </v>
   <v name="shift">      0.00000000       0.00000000       0.00000000 </v>
  </generation>
  <varray name="kpointlist" >
   <v>       0.00000000       0.00000000       0.00000000 </v>
   <v>       0.14285714      -0.00000000       0.00000000 </v>
   <v>       0.28571429      -0.00000000       0.00000000 </v>
   <v>       0.42857143      -0.00000000       0.00000000 </v>
   <v>       0.14285714       0.14285714       0.00000000 </v>
   <v>       0.28571429       0.14285714       0.00000000 </v>
   <v>       0.42857143       0.14285714       0.00000000 </v>
   <v>      -0.42857143       0.14285714       0.00000000 </v>
   <v>      -0.28571429       0.14285714       0.00000000 </v>
   <v>      -0.14285714       0.14285714       0.00000000 </v>
   <v>       0.28571429       0.28571429       0.00000000 </v>
   <v>       0.42857143       0.28571429       0.00000000 </v>
   <v>      -0.42857143       0.28571429       0.00000000 </v>
   <v>      -0.28571429       0.28571429       0.00000000 </v>
   <v>       0.42857143       0.42857143       0.00000000 </v>
   <v>      -0.42857143       0.42857143       0.00000000 </v>
   <v>       0.00000000       0.00000000       0.12500000 </v>
   <v>       0.14285714       0.00000000       0.12500000 </v>
   <v>       0.28571429      -0.00000000       0.12500000 </v>
   <v>       0.42857143       0.00000000       0.12500000 </v>
   <v>      -0.42857143       0.00000000       0.12500000 </v>
   <v>      -0.28571429       0.00000000       0.12500000 </v>
   <v>      -0.14285714       0.00000000       0.12500000 </v>
   <v>       0.14285714       0.14285714       0.12500000 </v>
   <v>       0.28571429       0.14285714       0.12500000 </v>
   <v>       0.42857143       0.14285714       0.12500000 </v>
   <v>      -0.42857143       0.14285714       0.12500000 </v>
   <v>      -0.28571429       0.14285714       0.12500000 </v>
   <v>      -0.14285714       0.14285714       0.12500000 </v>
   <v>       0.28571429       0.28571429       0.12500000 </v>
   <v>       0.42857143       0.28571429       0.12500000 </v>
   <v>      -0.42857143       0.28571429       0.12500000 </v>
   <v>      -0.28571429       0.28571429       0.12500000 </v>
   <v>      -0.14285714       0.28571429       0.12500000 </v>
   <v>       0.42857143       0.42857143       0.12500000 </v>
   <v>      -0.42857143       0.42857143       0.12500000 </v>
   <v>      -0.28571429       0.42857143       0.12500000 </v>
   <v>      -0.14285714       0.42857143       0.12500000 </v>
   <v>      -0.42857143      -0.42857143       0.12500000 </v>
   <v>      -0.28571429      -0.42857143       0.12500000 </v>
   <v>      -0.14285714      -0.42857143       0.12500000 </v>
   <v>      -0.28571429      -0.28571429       0.12500000 </v>
   <v>      -0.14285714      -0.28571429       0.12500000 </v>
   <v>      -0.14285714      -0.14285714       0.12500000 </v>
   <v>       0.00000000       0.00000000       0.25000000 </v>
   <v>       0.14285714       0.00000000       0.25000000 </v>
   <v>       0.28571429       0.00000000       0.25000000 </v>
   <v>       0.42857143       0.00000000       0.25000000 </v>
   <v>      -0.42857143       0.00000000       0.25000000 </v>
   <v>      -0.28571429       0.00000000       0.25000000 </v>
   <v>      -0.14285714       0.00000000       0.25000000 </v>
   <v>       0.14285714       0.14285714       0.25000000 </v>
   <v>       0.28571429       0.14285714       0.25000000 </v>
   <v>       0.42857143       0.14285714       0.25000000 </v>
   <v>      -0.42857143       0.14285714       0.25000000 </v>
   <v>      -0.28571429       0.14285714       0.25000000 </v>
   <v>      -0.14285714       0.14285714       0.25000000 </v>
   <v>       0.28571429       0.28571429       0.25000000 </v>
   <v>       0.42857143       0.28571429       0.25000000 </v>
   <v>      -0.42857143       0.28571429       0.25000000 </v>
   <v>      -0.28571429       0.28571429       0.25000000 </v>
   <v>      -0.14285714       0.28571429       0.25000000 </v>
   <v>       0.42857143       0.42857143       0.25000000 </v>
   <v>      -0.42857143       0.42857143       0.25000000 </v>
   <v>      -0.28571429       0.42857143       0.25000000 </v>
   <v>      -0.14285714       0.42857143       0.25000000 </v>
   <v>      -0.42857143      -0.42857143       0.25000000 </v>
   <v>      -0.28571429      -0.42857143       0.25000000 </v>
   <v>      -0.14285714      -0.42857143       0.25000000 </v>
   <v>      -0.28571429      -0.28571429       0.25000000 </v>
   <v>      -0.14285714      -0.28571429       0.25000000 </v>
   <v>      -0.14285714      -0.14285714       0.25000000 </v>
   <v>       0.00000000       0.00000000       0.37500000 </v>
   <v>       0.14285714       0.00000000       0.37500000 </v>
   <v>       0.28571429       0.00000000       0.37500000 </v>
   <v>       0.42857143      -0.00000000       0.37500000 </v>
   <v>      -0.42857143       0.00000000       0.37500000 </v>
   <v>      -0.28571429       0.00000000       0.37500000 </v>
   <v>      -0.14285714       0.00000000       0.37500000 </v>
   <v>       0.14285714       0.14285714       0.37500000 </v>
   <v>       0.28571429       0.14285714       0.37500000 </v>
   <v>       0.42857143       0.14285714       0.37500000 </v>
   <v>      -0.42857143       0.14285714       0.37500000 </v>
   <v>      -0.28571429       0.14285714       0.37500000 </v>
   <v>      -0.14285714       0.14285714       0.37500000 </v>
   <v>       0.28571429       0.28571429       0.37500000 </v>
   <v>       0.42857143       0.28571429       0.37500000 </v>
   <v>      -0.42857143       0.28571429       0.37500000 </v>
   <v>      -0.28571429       0.28571429       0.37500000 </v>
   <v>      -0.14285714       0.28571429       0.37500000 </v>
   <v>       0.42857143       0.42857143       0.37500000 </v>
   <v>      -0.42857143       0.42857143       0.37500000 </v>
   <v>      -0.28571429       0.42857143       0.37500000 </v>
   <v>      -0.14285714       0.42857143       0.37500000 </v>
   <v>      -0.42857143      -0.42857143       0.37500000 </v>
   <v>      -0.28571429      -0.42857143       0.37500000 </v>
   <v>      -0.14285714      -0.42857143       0.37500000 </v>
   <v>      -0.28571429      -0.28571429       0.37500000 </v>
   <v>      -0.14285714      -0.28571429       0.37500000 </v>
   <v>      -0.14285714      -0.14285714       0.37500000 </v>
   <v>       0.00000000       0.00000000       0.50000000 </v>
   <v>       0.14285714       0.00000000       0.50000000 </v>
   <v>       0.28571429       0.00000000       0.50000000 </v>
   <v>       0.42857143       0.00000000       0.50000000 </v>
   <v>       0.14285714       0.14285714       0.50000000 </v>
   <v>       0.28571429       0.14285714       0.50000000 </v>
   <v>       0.42857143       0.14285714       0.50000000 </v>
   <v>      -0.42857143       0.14285714       0.50000000 </v>
   <v>      -0.28571429       0.14285714       0.50000000 </v>
   <v>      -0.14285714       0.14285714       0.50000000 </v>
   <v>       0.28571429       0.28571429       0.50000000 </v>
   <v>       0.42857143       0.28571429       0.50000000 </v>
   <v>      -0.42857143       0.28571429       0.50000000 </v>
   <v>      -0.28571429       0.28571429       0.50000000 </v>
   <v>       0.42857143       0.42857143       0.50000000 </v>
   <v>      -0.42857143       0.42857143       0.50000000 </v>
  </varray>
  <varray name="weights" >
   <v>       0.00255102 </v>
   <v>       0.01020408 </v>
   <v>       0.01020408 </v>
   <v>       0.01020408 </v>
   <v>       0.00510204 </v>
   <v>       0.01020408 </v>
   <v>       0.01020408 </v>
   <v>       0.01020408 </v>
   <v>       0.01020408 </v>
   <v>       0.00510204 </v>
   <v>       0.00510204 </v>
   <v>       0.01020408 </v>
   <v>       0.01020408 </v>
   <v>       0.00510204 </v>
   <v>       0.00510204 </v>
   <v>       0.00510204 </v>
   <v>       0.00510204 </v>
   <v>       0.01020408 </v>
   <v>       0.01020408 </v>
   <v>       0.01020408 </v>
   <v>       0.01020408 </v>
   <v>       0.01020408 </v>
   <v>       0.01020408 </v>
   <v>       0.00510204 </v>
   <v>       0.01020408 </v>
   <v>       0.01020408 </v>
   <v>       0.01020408 </v>
   <v>       0.01020408 </v>
   <v>       0.01020408 </v>
   <v>       0.00510204 </v>
   <v>       0.01020408 </v>
   <v>       0.01020408 </v>
   <v>       0.01020408 </v>
   <v>       0.01020408 </v>
   <v>       0.00510204 </v>
   <v>       0.01020408 </v>
   <v>       0.01020408 </v>
   <v>       0.01020408 </v>
   <v>       0.00510204 </v>
   <v>       0.01020408 </v>
   <v>       0.01020408 </v>
   <v>       0.00510204 </v>
   <v>       0.01020408 </v>
   <v>       0.00510204 </v>
   <v>       0.00510204 </v>
   <v>       0.01020408 </v>
   <v>       0.01020408 </v>
   <v>       0.01020408 </v>
   <v>       0.01020408 </v>
   <v>       0.01020408 </v>
   <v>       0.01020408 </v>
   <v>       0.00510204 </v>
   <v>       0.01020408 </v>
   <v>       0.01020408 </v>
   <v>       0.01020408 </v>
   <v>       0.01020408 </v>
   <v>       0.01020408 </v>
   <v>       0.00510204 </v>
   <v>       0.01020408 </v>
   <v>       0.01020408 </v>
   <v>       0.01020408 </v>
   <v>       0.01020408 </v>
   <v>       0.00510204 </v>
   <v>       0.01020408 </v>
   <v>       0.01020408 </v>
   <v>       0.01020408 </v>
   <v>       0.00510204 </v>
   <v>       0.01020408 </v>
   <v>       0.01020408 </v>
   <v>       0.00510204 </v>
   <v>       0.01020408 </v>
   <v>       0.00510204 </v>
   <v>       0.00510204 </v>
   <v>       0.01020408 </v>
   <v>       0.01020408 </v>
   <v>       0.01020408 </v>
   <v>       0.01020408 </v>
   <v>       0.01020408 </v>
   <v>       0.01020408 </v>
   <v>       0.00510204 </v>
   <v>       0.01020408 </v>
   <v>       0.01020408 </v>
   <v>       0.01020408 </v>
   <v>       0.01020408 </v>
   <v>       0.01020408 </v>
   <v>       0.00510204 </v>
   <v>       0.01020408 </v>
   <v>       0.01020408 </v>
   <v>       0.01020408 </v>
   <v>       0.01020408 </v>
   <v>       0.00510204 </v>
   <v>       0.01020408 </v>
   <v>       0.01020408 </v>
   <v>       0.01020408 </v>
   <v>       0.00510204 </v>
   <v>       0.01020408 </v>
   <v>       0.01020408 </v>
   <v>       0.00510204 </v>
   <v>       0.01020408 </v>
   <v>       0.00510204 </v>
   <v>       0.00255102 </v>
   <v>       0.01020408 </v>
   <v>       0.01020408 </v>
   <v>       0.01020408 </v>
   <v>       0.00510204 </v>
   <v>       0.01020408 </v>
   <v>       0.01020408 </v>
   <v>       0.01020408 </v>
   <v>       0.01020408 </v>
   <v>       0.00510204 </v>
   <v>       0.00510204 </v>
   <v>       0.01020408 </v>
   <v>       0.01020408 </v>
   <v>       0.00510204 </v>
   <v>       0.00510204 </v>
   <v>       0.00510204 </v>
  </varray>
 </kpoints>
 <parameters>
  <separator name="general" >
   <i type="string" name="SYSTEM">routine with relax: pwdword</i>
   <i type="logical" name="LCOMPAT"> F  </i>
  </separator>
  <separator name="electronic" >
   <i type="string" name="PREC">acc</i>
   <i name="ENMAX">    600.00000000</i>
   <i name="ENAUG">    535.51400000</i>
   <i name="EDIFF">      0.00000000</i>
   <i type="int" name="IALGO">    58</i>
   <i type="int" name="IWAVPR">    10</i>
   <i type="int" name="NBANDS">    48</i>
   <i type="int" name="NBANDSLOW">    -1</i>
   <i type="int" name="NBANDSHIGH">    -1</i>
   <i name="NELECT">     76.00000000</i>
   <i type="int" name="TURBO">     0</i>
   <i type="int" name="IRESTART">     0</i>
   <i type="int" name="NREBOOT">     0</i>
   <i type="int" name="NMIN">     0</i>
   <i name="EREF">      0.00000000</i>
   <separator name="electronic smearing" >
    <i type="int" name="ISMEAR">     0</i>
    <i name="SIGMA">      0.02000000</i>
    <i name="KSPACING">      0.50000000</i>
    <i type="logical" name="KGAMMA"> T  </i>
    <i type="logical" name="KBLOWUP"> F  </i>
   </separator>
   <separator name="electronic projectors" >
    <i type="logical" name="LREAL"> F  </i>
    <v name="ROPT">      0.00000000      0.00000000      0.00000000</v>
    <i type="int" name="LMAXPAW">  -100</i>
    <i type="int" name="LMAXMIX">     2</i>
    <i type="logical" name="NLSPLINE"> F  </i>
   </separator>
   <separator name="electronic startup" >
    <i type="int" name="ISTART">     0</i>
    <i type="int" name="ICHARG">     2</i>
    <i type="int" name="INIWAV">     1</i>
   </separator>
   <separator name="electronic spin" >
    <i type="int" name="ISPIN">     1</i>
    <i type="logical" name="LNONCOLLINEAR"> F  </i>
    <v name="MAGMOM">      1.00000000      1.00000000      1.00000000      1.00000000      1.00000000      1.00000000      1.00000000      1.00000000      1.00000000      1.00000000</v>
    <i name="NUPDOWN">     -1.00000000</i>
    <i type="logical" name="LSORBIT"> F  </i>
    <v name="SAXIS">      0.00000000      0.00000000      1.00000000</v>
    <i type="logical" name="LSPIRAL"> F  </i>
    <v name="QSPIRAL">      0.00000000      0.00000000      0.00000000</v>
    <i type="logical" name="LZEROZ"> F  </i>
   </separator>
   <separator name="electronic exchange-correlation" >
    <i type="logical" name="LASPH"> T  </i>
    <i type="logical" name="LMETAGGA"> F  </i>
   </separator>
   <separator name="electronic convergence" >
    <i type="int" name="NELM">   100</i>
    <i type="int" name="NELMDL">    -5</i>
    <i type="int" name="NELMIN">     6</i>
    <i name="ENINI">    600.00000000</i>
    <separator name="electronic convergence detail" >
     <i type="logical" name="LDIAG"> T  </i>
     <i type="logical" name="LSUBROT"> F  </i>
     <i name="WEIMIN">      0.00000000</i>
     <i name="EBREAK">      0.00000000</i>
     <i name="DEPER">      0.30000000</i>
     <i type="int" name="NRMM">     4</i>
     <i name="TIME">      0.40000000</i>
    </separator>
   </separator>
   <separator name="electronic mixer" >
    <i name="AMIX">      0.40000000</i>
    <i name="BMIX">      1.00000000</i>
    <i name="AMIN">      0.10000000</i>
    <i name="AMIX_MAG">      1.60000000</i>
    <i name="BMIX_MAG">      1.00000000</i>
    <separator name="electronic mixer details" >
     <i type="int" name="IMIX">     4</i>
     <i type="logical" name="MIXFIRST"> F  </i>
     <i type="int" name="MAXMIX">   -45</i>
     <i name="WC">    100.00000000</i>
     <i type="int" name="INIMIX">     1</i>
     <i type="int" name="MIXPRE">     1</i>
     <i type="int" name="MREMOVE">     5</i>
    </separator>
   </separator>
   <separator name="electronic dipolcorrection" >
    <i type="logical" name="LDIPOL"> F  </i>
    <i type="logical" name="LMONO"> F  </i>
    <i type="int" name="IDIPOL">     0</i>
    <i name="EPSILON">      1.00000000</i>
    <v name="DIPOL">   -100.00000000   -100.00000000   -100.00000000</v>
    <i name="EFIELD">      0.00000000</i>
   </separator>
  </separator>
  <separator name="grids" >
   <i type="int" name="NGX">    54</i>
   <i type="int" name="NGY">    54</i>
   <i type="int" name="NGZ">    54</i>
   <i type="int" name="NGXF">   108</i>
   <i type="int" name="NGYF">   108</i>
   <i type="int" name="NGZF">   108</i>
   <i type="logical" name="ADDGRID"> T  </i>
  </separator>
  <separator name="ionic" >
   <i type="int" name="NSW">     0</i>
   <i type="int" name="IBRION">    -1</i>
   <i type="int" name="MDALGO">     0</i>
   <i type="int" name="ISIF">    -1</i>
   <i name="PSTRESS">      0.00000000</i>
   <i name="EDIFFG">      0.00000001</i>
   <i type="int" name="NFREE">     0</i>
   <i name="POTIM">      0.50000000</i>
   <i name="SMASS">     -3.00000000</i>
   <i name="SCALEE">      1.00000000</i>
  </separator>
  <separator name="ionic md" >
   <i name="TEBEG">      0.00010000</i>
   <i name="TEEND">      0.00010000</i>
   <i type="int" name="NBLOCK">     1</i>
   <i type="int" name="KBLOCK">     1</i>
   <i type="int" name="NPACO">   256</i>
   <i name="APACO">     16.00000000</i>
  </separator>
  <separator name="symmetry" >
   <i type="int" name="ISYM">     2</i>
   <i name="SYMPREC">      0.00001000</i>
  </separator>
  <separator name="dos" >
   <i type="int" name="LORBIT">     0</i>
   <v name="RWIGS">     -1.00000000     -1.00000000     -1.00000000</v>
   <i type="int" name="NEDOS">   301</i>
   <i name="EMIN">     10.00000000</i>
   <i name="EMAX">    -10.00000000</i>
   <i name="EFERMI">      0.00000000</i>
  </separator>
  <separator name="writing" >
   <i type="int" name="NWRITE">     2</i>
   <i type="logical" name="LWAVE"> T  </i>
   <i type="logical" name="LDOWNSAMPLE"> F  </i>
   <i type="logical" name="LCHARG"> T  </i>
   <i type="logical" name="LPARD"> F  </i>
   <i type="logical" name="LVTOT"> F  </i>
   <i type="logical" name="LVHAR"> F  </i>
   <i type="logical" name="LELF"> F  </i>
   <i type="logical" name="LOPTICS"> F  </i>
   <v name="STM">      0.00000000      0.00000000      0.00000000      0.00000000      0.00000000      0.00000000      0.00000000</v>
  </separator>
  <separator name="performance" >
   <i type="int" name="NPAR">     6</i>
   <i type="int" name="NSIM">     4</i>
   <i type="int" name="NBLK">    -1</i>
   <i type="logical" name="LPLANE"> T  </i>
   <i type="logical" name="LSCALAPACK"> T  </i>
   <i type="logical" name="LSCAAWARE"> F  </i>
   <i type="logical" name="LSCALU"> F  </i>
   <i type="logical" name="LASYNC"> F  </i>
   <i type="logical" name="LORBITALREAL"> F  </i>
  </separator>
  <separator name="miscellaneous" >
   <i type="int" name="IDIOT">     3</i>
   <i type="int" name="PHON_NSTRUCT">    -1</i>
   <i type="logical" name="LMUSIC"> F  </i>
   <v name="POMASS">     10.81100000     95.94000000     28.08500000</v>
   <v name="DARWINR">      0.00000000      0.00000000      0.00000000</v>
   <v name="DARWINV">      1.00000000      1.00000000      1.00000000</v>
   <i type="logical" name="LCORR"> T  </i>
  </separator>
  <i type="logical" name="GGA_COMPAT"> T  </i>
  <i type="logical" name="LBERRY"> F  </i>
  <i type="int" name="ICORELEVEL">     0</i>
  <i type="logical" name="LDAU"> F  </i>
  <i type="int" name="I_CONSTRAINED_M">     0</i>
  <separator name="electronic exchange-correlation" >
   <i type="string" name="GGA">--</i>
   <i type="int" name="VOSKOWN">     0</i>
   <i type="logical" name="LHFCALC"> F  </i>
   <i type="string" name="PRECFOCK"></i>
   <i type="logical" name="LSYMGRAD"> F  </i>
   <i type="logical" name="LHFONE"> F  </i>
   <i type="logical" name="LRHFCALC"> F  </i>
   <i type="logical" name="LTHOMAS"> F  </i>
   <i type="logical" name="LMODELHF"> F  </i>
   <i type="logical" name="LFOCKACE"> F  </i>
   <i name="ENCUT4O">     -1.00000000</i>
   <i type="int" name="EXXOEP">     0</i>
   <i type="int" name="FOURORBIT">     0</i>
   <i name="AEXX">      0.00000000</i>
   <i name="HFALPHA">      0.00000000</i>
   <i name="MCALPHA">      0.00000000</i>
   <i name="ALDAX">      1.00000000</i>
   <i name="AGGAX">      1.00000000</i>
   <i name="ALDAC">      1.00000000</i>
   <i name="AGGAC">      1.00000000</i>
   <i type="int" name="NKREDX">     1</i>
   <i type="int" name="NKREDY">     1</i>
   <i type="int" name="NKREDZ">     1</i>
   <i type="logical" name="SHIFTRED"> F  </i>
   <i type="logical" name="ODDONLY"> F  </i>
   <i type="logical" name="EVENONLY"> F  </i>
   <i type="int" name="LMAXFOCK">     0</i>
   <i type="int" name="NMAXFOCKAE">     0</i>
   <i type="logical" name="LFOCKAEDFT"> F  </i>
   <i name="HFSCREEN">      0.00000000</i>
   <i name="HFSCREENC">      0.00000000</i>
   <i type="int" name="NBANDSGWLOW">     0</i>
  </separator>
  <separator name="vdW DFT" >
   <i type="logical" name="LUSE_VDW"> F  </i>
   <i name="Zab_VDW">     -0.84910000</i>
   <i name="PARAM1">      0.12340000</i>
   <i name="PARAM2">      1.00000000</i>
   <i name="PARAM3">      0.00000000</i>
  </separator>
  <separator name="model GW" >
   <i type="int" name="MODEL_GW">     0</i>
   <i name="MODEL_EPS0">     10.74644457</i>
   <i name="MODEL_ALPHA">      1.00000000</i>
  </separator>
  <separator name="linear response parameters" >
   <i type="logical" name="LEPSILON"> F  </i>
   <i type="logical" name="LRPA"> F  </i>
   <i type="logical" name="LNABLA"> F  </i>
   <i type="logical" name="LVEL"> F  </i>
   <i type="int" name="KINTER">     0</i>
   <i name="CSHIFT">      0.10000000</i>
   <i name="OMEGAMAX">     -1.00000000</i>
   <i name="DEG_THRESHOLD">      0.00200000</i>
   <i name="RTIME">     -0.10000000</i>
   <i name="WPLASMAI">      0.00000000</i>
   <v name="DFIELD">      0.00000000      0.00000000      0.00000000</v>
   <v name="WPLASMA">      0.00000000      0.00000000      0.00000000      0.00000000      0.00000000      0.00000000      0.00000000      0.00000000      0.00000000</v>
  </separator>
  <separator name="orbital magnetization" >
   <i type="logical" name="NUCIND"> F  </i>
   <v name="MAGPOS">      0.00000000      0.00000000      0.00000000</v>
   <i type="logical" name="LNICSALL"> T  </i>
   <i type="logical" name="ORBITALMAG"> F  </i>
   <i type="logical" name="LMAGBLOCH"> F  </i>
   <i type="logical" name="LCHIMAG"> F  </i>
   <i type="logical" name="LGAUGE"> T  </i>
   <i type="int" name="MAGATOM">     0</i>
   <v name="MAGDIPOL">      0.00000000      0.00000000      0.00000000</v>
   <v name="AVECCONST">      0.00000000      0.00000000      0.00000000</v>
  </separator>
  <separator name="response functions" >
   <i type="logical" name="LFINITE_TEMPERATURE"> F  </i>
   <i type="logical" name="LADDER"> F  </i>
   <i type="logical" name="LRPAFORCE"> F  </i>
   <i type="logical" name="LFXC"> F  </i>
   <i type="logical" name="LHARTREE"> T  </i>
   <i type="int" name="IBSE">     0</i>
   <v type="int" name="KPOINT">    -1     0     0     0</v>
   <i type="logical" name="LTCTC"> F  </i>
   <i type="logical" name="LTCTE"> F  </i>
   <i type="logical" name="LTETE"> F  </i>
   <i type="logical" name="LTRIPLET"> F  </i>
   <i type="logical" name="LFXCEPS"> F  </i>
   <i type="logical" name="LFXHEG"> F  </i>
   <i type="int" name="NATURALO">     2</i>
   <i type="logical" name="LHOLEGF"> F  </i>
   <i type="logical" name="L2ORDER"> F  </i>
   <i type="logical" name="LDMP1"> F  </i>
   <i type="logical" name="LMP2LT"> F  </i>
   <i type="logical" name="LSMP2LT"> F  </i>
   <i type="logical" name="LGWLF"> F  </i>
   <i name="ENCUTGW">     -2.00000000</i>
   <i name="ENCUTGWSOFT">     -2.00000000</i>
   <i name="ENCUTLF">     -1.00000000</i>
   <i type="logical" name="LESF_SPLINES"> F  </i>
   <i type="int" name="LMAXMP2">    -1</i>
   <i name="SCISSOR">      0.00000000</i>
   <i type="int" name="NOMEGA">     0</i>
   <i type="int" name="NOMEGAR">     0</i>
   <i type="int" name="NBANDSGW">    -1</i>
   <i type="int" name="NBANDSO">    -1</i>
   <i type="int" name="NBANDSV">    -1</i>
   <i type="int" name="NELM">   100</i>
   <i type="int" name="NELMHF">     1</i>
   <i type="int" name="DIM">     3</i>
   <i type="int" name="IESPILON">     4</i>
   <i type="int" name="ANTIRES">     0</i>
   <i name="OMEGAMAX">    -30.00000000</i>
   <i name="OMEGAMIN">    -30.00000000</i>
   <i name="OMEGATL">   -200.00000000</i>
   <i type="int" name="OMEGAGRID">     0</i>
   <i name="CSHIFT">     -0.10000000</i>
   <i type="logical" name="LSELFENERGY"> F  </i>
   <i type="logical" name="LSPECTRAL"> F  </i>
   <i type="logical" name="LSPECTRALGW"> F  </i>
   <i type="logical" name="LSINGLES"> F  </i>
   <i type="logical" name="LFERMIGW"> F  </i>
   <i type="logical" name="ODDONLYGW"> F  </i>
   <i type="logical" name="EVENONLYGW"> F  </i>
   <i type="int" name="NKREDLFX">     1</i>
   <i type="int" name="NKREDLFY">     1</i>
   <i type="int" name="NKREDLFZ">     1</i>
   <i type="int" name="MAXMEM">  2800</i>
   <i type="int" name="TELESCOPE">     0</i>
   <i type="int" name="NTAUPAR">    -1</i>
   <i type="int" name="NOMEGAPAR">    -1</i>
   <i name="DAMP_NEWTON">      0.80000001</i>
   <i name="LAMBDA">      1.00000000</i>
  </separator>
  <separator name="External order field" >
   <i name="OFIELD_KAPPA">      0.00000000</i>
   <v name="OFIELD_K">      0.00000000      0.00000000      0.00000000</v>
   <i name="OFIELD_Q6_NEAR">      0.00000000</i>
   <i name="OFIELD_Q6_FAR">      0.00000000</i>
   <i name="OFIELD_A">      0.00000000</i>
  </separator>
 </parameters>
 <atominfo>
  <atoms>      10 </atoms>
  <types>       3 </types>
  <array name="atoms" >
   <dimension dim="1">ion</dimension>
   <field type="string">element</field>
   <field type="int">atomtype</field>
   <set>
    <rc><c>B </c><c>   1</c></rc>
    <rc><c>B </c><c>   1</c></rc>
    <rc><c>B </c><c>   1</c></rc>
    <rc><c>B </c><c>   1</c></rc>
    <rc><c>Mo</c><c>   2</c></rc>
    <rc><c>Mo</c><c>   2</c></rc>
    <rc><c>Mo</c><c>   2</c></rc>
    <rc><c>Mo</c><c>   2</c></rc>
    <rc><c>Si</c><c>   3</c></rc>
    <rc><c>Si</c><c>   3</c></rc>
   </set>
  </array>
  <array name="atomtypes" >
   <dimension dim="1">type</dimension>
   <field type="int">atomspertype</field>
   <field type="string">element</field>
   <field>mass</field>
   <field>valence</field>
   <field type="string">pseudopotential</field>
   <set>
    <rc><c>   4</c><c>B </c><c>     10.81100000</c><c>      3.00000000</c><c>  PAW_PBE B 06Sep2000                   </c></rc>
    <rc><c>   4</c><c>Mo</c><c>     95.94000000</c><c>     14.00000000</c><c>  PAW_PBE Mo_sv 02Feb2006               </c></rc>
    <rc><c>   2</c><c>Si</c><c>     28.08500000</c><c>      4.00000000</c><c>  PAW_PBE Si 05Jan2001                  </c></rc>
   </set>
  </array>
 </atominfo>
 <structure name="initialpos" >
  <crystal>
   <varray name="basis" >
    <v>       5.47719441       0.00000000      -3.17284772 </v>
    <v>      -1.81959295       5.16611460      -3.17284772 </v>
    <v>       0.00000000       0.00000000       6.32982000 </v>
   </varray>
   <i name="volume">    179.10740946 </i>
   <varray name="rec_basis" >
    <v>       0.18257522       0.06430608       0.00000000 </v>
    <v>       0.00000000       0.19356907       0.00000000 </v>
    <v>       0.09151657       0.12926096       0.15798238 </v>
   </varray>
  </crystal>
  <varray name="positions" >
   <v>       0.74258000       0.24258000       0.98516000 </v>
   <v>       0.25742000       0.75742000       0.01484000 </v>
   <v>       0.24258000       0.25742000       0.50000000 </v>
   <v>       0.75742000       0.74258000       0.50000000 </v>
   <v>       0.50000000       0.00000000       0.50000000 </v>
   <v>       0.00000000       0.00000000       0.00000000 </v>
   <v>       0.00000000       0.50000000       0.50000000 </v>
   <v>       0.50000000       0.50000000       0.00000000 </v>
   <v>       0.25000000       0.25000000       0.00000000 </v>
   <v>       0.75000000       0.75000000       0.00000000 </v>
  </varray>
 </structure>
 <calculation>
  <scstep>
   <time name="total">   21.43   21.60</time>
   <energy>
    <i name="alphaZ">    269.48598906 </i>
    <i name="ewald">  -5171.16250509 </i>
    <i name="hartreedc">  -2469.65962693 </i>
    <i name="XCdc">    324.56469517 </i>
    <i name="pawpsdc">   6278.15209018 </i>
    <i name="pawaedc">  -6244.81064237 </i>
    <i name="eentropy">     -0.00070320 </i>
    <i name="bandstr">   -310.21434244 </i>
    <i name="atom">   7939.94160518 </i>
    <i name="e_fr_energy">    616.29655956 </i>
    <i name="e_wo_entrp">    616.29726277 </i>
    <i name="e_0_energy">    616.29691116 </i>
   </energy>
  </scstep>
  <scstep>
   <time name="total">   20.97   21.13</time>
   <energy>
    <i name="e_fr_energy">   -143.03537546 </i>
    <i name="e_wo_entrp">   -143.03431162 </i>
    <i name="e_0_energy">   -143.03484354 </i>
   </energy>
  </scstep>
  <scstep>
   <time name="total">   23.32   23.50</time>
   <energy>
    <i name="e_fr_energy">   -176.14628360 </i>
    <i name="e_wo_entrp">   -176.14471548 </i>
    <i name="e_0_energy">   -176.14549954 </i>
   </energy>
  </scstep>
  <scstep>
   <time name="total">   22.14   22.31</time>
   <energy>
    <i name="e_fr_energy">   -176.76617429 </i>
    <i name="e_wo_entrp">   -176.76490761 </i>
    <i name="e_0_energy">   -176.76554095 </i>
   </energy>
  </scstep>
  <scstep>
   <time name="total">   24.80   24.99</time>
   <energy>
    <i name="e_fr_energy">   -176.78365444 </i>
    <i name="e_wo_entrp">   -176.78239591 </i>
    <i name="e_0_energy">   -176.78302518 </i>
   </energy>
  </scstep>
  <scstep>
   <time name="total">   23.52   23.70</time>
   <energy>
    <i name="e_fr_energy">   -115.18857358 </i>
    <i name="e_wo_entrp">   -115.18726889 </i>
    <i name="e_0_energy">   -115.18792124 </i>
   </energy>
  </scstep>
  <scstep>
   <time name="total">   23.50   23.68</time>
   <energy>
    <i name="e_fr_energy">   -136.15112516 </i>
    <i name="e_wo_entrp">   -136.14962199 </i>
    <i name="e_0_energy">   -136.15037357 </i>
   </energy>
  </scstep>
  <scstep>
   <time name="total">   23.45   23.64</time>
   <energy>
    <i name="e_fr_energy">   -140.06087866 </i>
    <i name="e_wo_entrp">   -140.05940913 </i>
    <i name="e_0_energy">   -140.06014390 </i>
   </energy>
  </scstep>
  <scstep>
   <time name="total">   23.56   23.73</time>
   <energy>
    <i name="e_fr_energy">   -141.20410470 </i>
    <i name="e_wo_entrp">   -141.20266848 </i>
    <i name="e_0_energy">   -141.20338659 </i>
   </energy>
  </scstep>
  <scstep>
   <time name="total">   23.57   23.74</time>
   <energy>
    <i name="e_fr_energy">   -141.62831390 </i>
    <i name="e_wo_entrp">   -141.62695317 </i>
    <i name="e_0_energy">   -141.62763354 </i>
   </energy>
  </scstep>
  <scstep>
   <time name="total">   23.43   23.61</time>
   <energy>
    <i name="e_fr_energy">   -141.83142049 </i>
    <i name="e_wo_entrp">   -141.82985020 </i>
    <i name="e_0_energy">   -141.83063535 </i>
   </energy>
  </scstep>
  <scstep>
   <time name="total">   23.55   23.73</time>
   <energy>
    <i name="e_fr_energy">   -141.91396475 </i>
    <i name="e_wo_entrp">   -141.91229249 </i>
    <i name="e_0_energy">   -141.91312862 </i>
   </energy>
  </scstep>
  <scstep>
   <time name="total">   23.50   23.68</time>
   <energy>
    <i name="e_fr_energy">   -141.95177731 </i>
    <i name="e_wo_entrp">   -141.95029807 </i>
    <i name="e_0_energy">   -141.95103769 </i>
   </energy>
  </scstep>
  <scstep>
   <time name="total">   23.46   23.64</time>
   <energy>
    <i name="e_fr_energy">   -141.97235890 </i>
    <i name="e_wo_entrp">   -141.97105812 </i>
    <i name="e_0_energy">   -141.97170851 </i>
   </energy>
  </scstep>
  <scstep>
   <time name="total">   23.54   23.72</time>
   <energy>
    <i name="e_fr_energy">   -141.98309612 </i>
    <i name="e_wo_entrp">   -141.98192123 </i>
    <i name="e_0_energy">   -141.98250867 </i>
   </energy>
  </scstep>
  <scstep>
   <time name="total">   23.51   23.69</time>
   <energy>
    <i name="e_fr_energy">   -141.98805425 </i>
    <i name="e_wo_entrp">   -141.98689554 </i>
    <i name="e_0_energy">   -141.98747489 </i>
   </energy>
  </scstep>
  <scstep>
   <time name="total">   23.53   23.71</time>
   <energy>
    <i name="e_fr_energy">   -141.98999107 </i>
    <i name="e_wo_entrp">   -141.98884524 </i>
    <i name="e_0_energy">   -141.98941815 </i>
   </energy>
  </scstep>
  <scstep>
   <time name="total">   23.59   23.77</time>
   <energy>
    <i name="e_fr_energy">   -141.99075889 </i>
    <i name="e_wo_entrp">   -141.98964863 </i>
    <i name="e_0_energy">   -141.99020376 </i>
   </energy>
  </scstep>
  <scstep>
   <time name="total">   23.49   23.67</time>
   <energy>
    <i name="e_fr_energy">   -141.99112877 </i>
    <i name="e_wo_entrp">   -141.99005701 </i>
    <i name="e_0_energy">   -141.99059289 </i>
   </energy>
  </scstep>
  <scstep>
   <time name="total">   23.43   23.61</time>
   <energy>
    <i name="e_fr_energy">   -141.99130943 </i>
    <i name="e_wo_entrp">   -141.99026473 </i>
    <i name="e_0_energy">   -141.99078708 </i>
   </energy>
  </scstep>
  <scstep>
   <time name="total">   23.57   23.74</time>
   <energy>
    <i name="e_fr_energy">   -141.99138825 </i>
    <i name="e_wo_entrp">   -141.99035950 </i>
    <i name="e_0_energy">   -141.99087387 </i>
   </energy>
  </scstep>
  <scstep>
   <time name="total">   23.48   23.66</time>
   <energy>
    <i name="e_fr_energy">   -141.99142011 </i>
    <i name="e_wo_entrp">   -141.99040015 </i>
    <i name="e_0_energy">   -141.99091013 </i>
   </energy>
  </scstep>
  <scstep>
   <time name="total">   23.40   23.58</time>
   <energy>
    <i name="e_fr_energy">   -141.99143222 </i>
    <i name="e_wo_entrp">   -141.99041565 </i>
    <i name="e_0_energy">   -141.99092393 </i>
   </energy>
  </scstep>
  <scstep>
   <time name="total">   23.48   23.66</time>
   <energy>
    <i name="e_fr_energy">   -141.99143651 </i>
    <i name="e_wo_entrp">   -141.99042090 </i>
    <i name="e_0_energy">   -141.99092871 </i>
   </energy>
  </scstep>
  <scstep>
   <time name="total">   23.46   23.64</time>
   <energy>
    <i name="e_fr_energy">   -141.99143892 </i>
    <i name="e_wo_entrp">   -141.99042225 </i>
    <i name="e_0_energy">   -141.99093059 </i>
   </energy>
  </scstep>
  <scstep>
   <time name="total">   23.46   23.64</time>
   <energy>
    <i name="e_fr_energy">   -141.99144006 </i>
    <i name="e_wo_entrp">   -141.99042192 </i>
    <i name="e_0_energy">   -141.99093099 </i>
   </energy>
  </scstep>
  <scstep>
   <time name="total">   23.47   23.64</time>
   <energy>
    <i name="e_fr_energy">   -141.99144047 </i>
    <i name="e_wo_entrp">   -141.99042075 </i>
    <i name="e_0_energy">   -141.99093061 </i>
   </energy>
  </scstep>
  <scstep>
   <time name="total">   23.42   23.59</time>
   <energy>
    <i name="e_fr_energy">   -141.99144068 </i>
    <i name="e_wo_entrp">   -141.99041935 </i>
    <i name="e_0_energy">   -141.99093002 </i>
   </energy>
  </scstep>
  <scstep>
   <time name="total">   23.55   23.73</time>
   <energy>
    <i name="e_fr_energy">   -141.99144078 </i>
    <i name="e_wo_entrp">   -141.99041900 </i>
    <i name="e_0_energy">   -141.99092989 </i>
   </energy>
  </scstep>
  <scstep>
   <time name="total">   23.50   23.68</time>
   <energy>
    <i name="e_fr_energy">   -141.99144079 </i>
    <i name="e_wo_entrp">   -141.99041877 </i>
    <i name="e_0_energy">   -141.99092978 </i>
   </energy>
  </scstep>
  <scstep>
   <time name="total">   23.35   23.52</time>
   <energy>
    <i name="e_fr_energy">   -141.99144080 </i>
    <i name="e_wo_entrp">   -141.99041865 </i>
    <i name="e_0_energy">   -141.99092972 </i>
   </energy>
  </scstep>
  <scstep>
   <time name="total">   23.65   23.83</time>
   <energy>
    <i name="e_fr_energy">   -141.99144080 </i>
    <i name="e_wo_entrp">   -141.99041864 </i>
    <i name="e_0_energy">   -141.99092972 </i>
   </energy>
  </scstep>
  <scstep>
   <time name="total">   23.52   23.70</time>
   <energy>
    <i name="e_fr_energy">   -141.99144083 </i>
    <i name="e_wo_entrp">   -141.99041866 </i>
    <i name="e_0_energy">   -141.99092974 </i>
   </energy>
  </scstep>
  <scstep>
   <time name="total">   27.14   27.34</time>
   <energy>
    <i name="alphaZ">    269.48598906 </i>
    <i name="ewald">  -5171.16250509 </i>
    <i name="hartreedc">  -2411.81023664 </i>
    <i name="XCdc">    331.38151589 </i>
    <i name="pawpsdc">   8168.57641378 </i>
    <i name="pawaedc">  -8149.47460083 </i>
    <i name="eentropy">     -0.00102219 </i>
    <i name="bandstr">  -1118.92860000 </i>
    <i name="atom">   7939.94160518 </i>
    <i name="e_fr_energy">   -141.99144083 </i>
    <i name="e_wo_entrp">   -141.99041864 </i>
    <i name="e_0_energy">   -141.99092974 </i>
   </energy>
  </scstep>
  <structure>
   <crystal>
    <varray name="basis" >
     <v>       5.47719441       0.00000000      -3.17284772 </v>
     <v>      -1.81959295       5.16611460      -3.17284772 </v>
     <v>       0.00000000       0.00000000       6.32982000 </v>
    </varray>
    <i name="volume">    179.10740946 </i>
    <varray name="rec_basis" >
     <v>       0.18257522       0.06430608       0.00000000 </v>
     <v>       0.00000000       0.19356907       0.00000000 </v>
     <v>       0.09151657       0.12926096       0.15798238 </v>
    </varray>
   </crystal>
   <varray name="positions" >
    <v>       0.74258000       0.24258000       0.98516000 </v>
    <v>       0.25742000       0.75742000       0.01484000 </v>
    <v>       0.24258000       0.25742000       0.50000000 </v>
    <v>       0.75742000       0.74258000       0.50000000 </v>
    <v>       0.50000000       0.00000000       0.50000000 </v>
    <v>       0.00000000       0.00000000       0.00000000 </v>
    <v>       0.00000000       0.50000000       0.50000000 </v>
    <v>       0.50000000       0.50000000       0.00000000 </v>
    <v>       0.25000000       0.25000000       0.00000000 </v>
    <v>       0.75000000       0.75000000       0.00000000 </v>
   </varray>
  </structure>
  <varray name="forces" >
   <v>       0.00000000       0.00000000       0.00000000 </v>
   <v>       0.00000000       0.00000000       0.00000000 </v>
   <v>       0.00000000       0.00000000       0.00000000 </v>
   <v>       0.00000000       0.00000000       0.00000000 </v>
   <v>       0.00000000       0.00000000       0.00000000 </v>
   <v>       0.00000000       0.00000000       0.00000000 </v>
   <v>       0.00000000       0.00000000       0.00000000 </v>
   <v>       0.00000000       0.00000000       0.00000000 </v>
   <v>       0.00000000       0.00000000       0.00000000 </v>
   <v>       0.00000000       0.00000000       0.00000000 </v>
  </varray>
  <varray name="stress" >
   <v>       0.00000000       0.00000000       0.00000000 </v>
   <v>       0.00000000       0.00000000       0.00000000 </v>
   <v>       0.00000000       0.00000000       0.00000000 </v>
  </varray>
  <energy>
   <i name="e_fr_energy">   -141.99144083 </i>
   <i name="e_wo_entrp">   -141.99041864 </i>
   <i name="e_0_energy">   -141.99092974 </i>
  </energy>
  <time name="totalsc">  800.68  806.80</time>
  <eigenvalues>
   <array>
    <dimension dim="1">band</dimension>
    <dimension dim="2">kpoint</dimension>
    <dimension dim="3">spin</dimension>
    <field>eigene</field>
    <field>occ</field>
    <set>
     <set comment="spin 1">
      <set comment="kpoint 1">
       <r>  -57.6346    1.0000 </r>
       <r>  -57.6341    1.0000 </r>
       <r>  -56.8091    1.0000 </r>
       <r>  -56.8089    1.0000 </r>
       <r>  -31.1056    1.0000 </r>
       <r>  -31.1050    1.0000 </r>
       <r>  -30.9706    1.0000 </r>
       <r>  -30.9705    1.0000 </r>
       <r>  -30.9484    1.0000 </r>
       <r>  -30.9483    1.0000 </r>
       <r>  -30.6034    1.0000 </r>
       <r>  -30.5835    1.0000 </r>
       <r>  -30.1472    1.0000 </r>
       <r>  -30.1471    1.0000 </r>
       <r>  -30.1334    1.0000 </r>
       <r>  -30.1334    1.0000 </r>
       <r>   -4.5286    1.0000 </r>
       <r>   -2.0270    1.0000 </r>
       <r>   -1.8141    1.0000 </r>
       <r>   -0.9900    1.0000 </r>
       <r>    0.1224    1.0000 </r>
       <r>    0.1224    1.0000 </r>
       <r>    0.3079    1.0000 </r>
       <r>    0.5278    1.0000 </r>
       <r>    0.8989    1.0000 </r>
       <r>    0.8990    1.0000 </r>
       <r>    1.5559    1.0000 </r>
       <r>    2.2172    1.0000 </r>
       <r>    2.4799    1.0000 </r>
       <r>    3.1404    1.0000 </r>
       <r>    3.7625    1.0000 </r>
       <r>    3.7625    1.0000 </r>
       <r>    3.7750    1.0000 </r>
       <r>    4.0885    1.0000 </r>
       <r>    4.0885    1.0000 </r>
       <r>    4.6128    1.0000 </r>
       <r>    5.9659    0.0000 </r>
       <r>    5.9660    0.0000 </r>
       <r>    6.0484    0.0000 </r>
       <r>    6.1089    0.0000 </r>
       <r>    6.1090    0.0000 </r>
       <r>    6.3430    0.0000 </r>
       <r>    7.4833    0.0000 </r>
       <r>    7.5530    0.0000 </r>
       <r>    7.5530    0.0000 </r>
       <r>    7.9416    0.0000 </r>
       <r>    8.9645    0.0000 </r>
       <r>    8.9660    0.0000 </r>
      </set>
      <set comment="kpoint 2">
       <r>  -57.6346    1.0000 </r>
       <r>  -57.6341    1.0000 </r>
       <r>  -56.8091    1.0000 </r>
       <r>  -56.8090    1.0000 </r>
       <r>  -31.1055    1.0000 </r>
       <r>  -31.1050    1.0000 </r>
       <r>  -30.9693    1.0000 </r>
       <r>  -30.9668    1.0000 </r>
       <r>  -30.9474    1.0000 </r>
       <r>  -30.9448    1.0000 </r>
       <r>  -30.6025    1.0000 </r>
       <r>  -30.5845    1.0000 </r>
       <r>  -30.1519    1.0000 </r>
       <r>  -30.1467    1.0000 </r>
       <r>  -30.1392    1.0000 </r>
       <r>  -30.1342    1.0000 </r>
       <r>   -4.4149    1.0000 </r>
       <r>   -1.9626    1.0000 </r>
       <r>   -1.7870    1.0000 </r>
       <r>   -1.3309    1.0000 </r>
       <r>   -0.4756    1.0000 </r>
       <r>   -0.1014    1.0000 </r>
       <r>    0.5916    1.0000 </r>
       <r>    0.9625    1.0000 </r>
       <r>    1.0340    1.0000 </r>
       <r>    1.2348    1.0000 </r>
       <r>    1.7555    1.0000 </r>
       <r>    2.3664    1.0000 </r>
       <r>    2.6045    1.0000 </r>
       <r>    3.1223    1.0000 </r>
       <r>    3.4272    1.0000 </r>
       <r>    3.5299    1.0000 </r>
       <r>    3.5951    1.0000 </r>
       <r>    4.0887    1.0000 </r>
       <r>    4.1889    1.0000 </r>
       <r>    4.6560    1.0000 </r>
       <r>    5.7209    0.0000 </r>
       <r>    5.7385    0.0000 </r>
       <r>    5.9553    0.0000 </r>
       <r>    5.9636    0.0000 </r>
       <r>    6.0806    0.0000 </r>
       <r>    6.1119    0.0000 </r>
       <r>    7.4459    0.0000 </r>
       <r>    7.7284    0.0000 </r>
       <r>    7.9128    0.0000 </r>
       <r>    8.1174    0.0000 </r>
       <r>    8.4957    0.0000 </r>
       <r>    8.5265    0.0000 </r>
      </set>
      <set comment="kpoint 3">
       <r>  -57.6344    1.0000 </r>
       <r>  -57.6341    1.0000 </r>
       <r>  -56.8091    1.0000 </r>
       <r>  -56.8091    1.0000 </r>
       <r>  -31.1053    1.0000 </r>
       <r>  -31.1049    1.0000 </r>
       <r>  -30.9665    1.0000 </r>
       <r>  -30.9614    1.0000 </r>
       <r>  -30.9420    1.0000 </r>
       <r>  -30.9365    1.0000 </r>
       <r>  -30.5999    1.0000 </r>
       <r>  -30.5875    1.0000 </r>
       <r>  -30.1622    1.0000 </r>
       <r>  -30.1534    1.0000 </r>
       <r>  -30.1447    1.0000 </r>
       <r>  -30.1363    1.0000 </r>
       <r>   -4.0813    1.0000 </r>
       <r>   -2.0777    1.0000 </r>
       <r>   -1.7639    1.0000 </r>
       <r>   -1.7036    1.0000 </r>
       <r>   -0.9582    1.0000 </r>
       <r>   -0.5503    1.0000 </r>
       <r>    0.9758    1.0000 </r>
       <r>    1.3516    1.0000 </r>
       <r>    1.3808    1.0000 </r>
       <r>    1.8742    1.0000 </r>
       <r>    2.4260    1.0000 </r>
       <r>    2.6245    1.0000 </r>
       <r>    2.7578    1.0000 </r>
       <r>    2.9225    1.0000 </r>
       <r>    3.0050    1.0000 </r>
       <r>    3.1443    1.0000 </r>
       <r>    3.2776    1.0000 </r>
       <r>    4.0108    1.0000 </r>
       <r>    4.1017    1.0000 </r>
       <r>    4.7671    1.0000 </r>
       <r>    4.7999    1.0000 </r>
       <r>    5.3016    0.9979 </r>
       <r>    5.7664    0.0000 </r>
       <r>    5.8229    0.0000 </r>
       <r>    6.0026    0.0000 </r>
       <r>    6.0379    0.0000 </r>
       <r>    7.4652    0.0000 </r>
       <r>    8.0303    0.0000 </r>
       <r>    8.1915    0.0000 </r>
       <r>    8.2451    0.0000 </r>
       <r>    8.3674    0.0000 </r>
       <r>    8.5383    0.0000 </r>
      </set>
      <set comment="kpoint 4">
       <r>  -57.6343    1.0000 </r>
       <r>  -57.6342    1.0000 </r>
       <r>  -56.8092    1.0000 </r>
       <r>  -56.8091    1.0000 </r>
       <r>  -31.1051    1.0000 </r>
       <r>  -31.1049    1.0000 </r>
       <r>  -30.9635    1.0000 </r>
       <r>  -30.9611    1.0000 </r>
       <r>  -30.9332    1.0000 </r>
       <r>  -30.9306    1.0000 </r>
       <r>  -30.5960    1.0000 </r>
       <r>  -30.5916    1.0000 </r>
       <r>  -30.1693    1.0000 </r>
       <r>  -30.1661    1.0000 </r>
       <r>  -30.1422    1.0000 </r>
       <r>  -30.1392    1.0000 </r>
       <r>   -3.5502    1.0000 </r>
       <r>   -2.8601    1.0000 </r>
       <r>   -1.5593    1.0000 </r>
       <r>   -1.4892    1.0000 </r>
       <r>   -1.2617    1.0000 </r>
       <r>   -1.0146    1.0000 </r>
       <r>    1.4745    1.0000 </r>
       <r>    1.8099    1.0000 </r>
       <r>    1.9201    1.0000 </r>
       <r>    2.0606    1.0000 </r>
       <r>    2.3802    1.0000 </r>
       <r>    2.4130    1.0000 </r>
       <r>    2.5486    1.0000 </r>
       <r>    2.8090    1.0000 </r>
       <r>    3.2508    1.0000 </r>
       <r>    3.2560    1.0000 </r>
       <r>    3.5224    1.0000 </r>
       <r>    3.7955    1.0000 </r>
       <r>    3.8240    1.0000 </r>
       <r>    3.9844    1.0000 </r>
       <r>    4.9612    1.0000 </r>
       <r>    5.0283    1.0000 </r>
       <r>    5.4325    0.0000 </r>
       <r>    5.5061    0.0000 </r>
       <r>    5.9788    0.0000 </r>
       <r>    5.9971    0.0000 </r>
       <r>    7.6043    0.0000 </r>
       <r>    7.7753    0.0000 </r>
       <r>    8.3401    0.0000 </r>
       <r>    8.4429    0.0000 </r>
       <r>    8.7154    0.0000 </r>
       <r>    8.8230    0.0000 </r>
      </set>
      <set comment="kpoint 5">
       <r>  -57.6345    1.0000 </r>
       <r>  -57.6341    1.0000 </r>
       <r>  -56.8091    1.0000 </r>
       <r>  -56.8090    1.0000 </r>
       <r>  -31.1052    1.0000 </r>
       <r>  -31.1051    1.0000 </r>
       <r>  -30.9654    1.0000 </r>
       <r>  -30.9652    1.0000 </r>
       <r>  -30.9441    1.0000 </r>
       <r>  -30.9441    1.0000 </r>
       <r>  -30.5998    1.0000 </r>
       <r>  -30.5874    1.0000 </r>
       <r>  -30.1515    1.0000 </r>
       <r>  -30.1512    1.0000 </r>
       <r>  -30.1403    1.0000 </r>
       <r>  -30.1398    1.0000 </r>
       <r>   -4.2210    1.0000 </r>
       <r>   -1.9068    1.0000 </r>
       <r>   -1.8509    1.0000 </r>
       <r>   -1.7389    1.0000 </r>
       <r>   -0.6418    1.0000 </r>
       <r>   -0.3905    1.0000 </r>
       <r>    0.9363    1.0000 </r>
       <r>    1.0145    1.0000 </r>
       <r>    1.2690    1.0000 </r>
       <r>    1.4624    1.0000 </r>
       <r>    2.3451    1.0000 </r>
       <r>    2.5344    1.0000 </r>
       <r>    2.7032    1.0000 </r>
       <r>    2.9159    1.0000 </r>
       <r>    3.1324    1.0000 </r>
       <r>    3.2418    1.0000 </r>
       <r>    3.4608    1.0000 </r>
       <r>    3.9645    1.0000 </r>
       <r>    4.3348    1.0000 </r>
       <r>    4.7848    1.0000 </r>
       <r>    5.2808    1.0000 </r>
       <r>    5.4589    0.0000 </r>
       <r>    5.8070    0.0000 </r>
       <r>    5.9233    0.0000 </r>
       <r>    5.9471    0.0000 </r>
       <r>    6.0464    0.0000 </r>
       <r>    7.6689    0.0000 </r>
       <r>    7.8527    0.0000 </r>
       <r>    8.1125    0.0000 </r>
       <r>    8.2930    0.0000 </r>
       <r>    8.3814    0.0000 </r>
       <r>    8.4641    0.0000 </r>
      </set>
      <set comment="kpoint 6">
       <r>  -57.6344    1.0000 </r>
       <r>  -57.6341    1.0000 </r>
       <r>  -56.8092    1.0000 </r>
       <r>  -56.8090    1.0000 </r>
       <r>  -31.1054    1.0000 </r>
       <r>  -31.1047    1.0000 </r>
       <r>  -30.9622    1.0000 </r>
       <r>  -30.9586    1.0000 </r>
       <r>  -30.9400    1.0000 </r>
       <r>  -30.9361    1.0000 </r>
       <r>  -30.5960    1.0000 </r>
       <r>  -30.5915    1.0000 </r>
       <r>  -30.1618    1.0000 </r>
       <r>  -30.1540    1.0000 </r>
       <r>  -30.1495    1.0000 </r>
       <r>  -30.1420    1.0000 </r>
       <r>   -3.8132    1.0000 </r>
       <r>   -2.4870    1.0000 </r>
       <r>   -1.7754    1.0000 </r>
       <r>   -1.6017    1.0000 </r>
       <r>   -1.0872    1.0000 </r>
       <r>   -0.6520    1.0000 </r>
       <r>    1.1873    1.0000 </r>
       <r>    1.4524    1.0000 </r>
       <r>    1.6187    1.0000 </r>
       <r>    1.8991    1.0000 </r>
       <r>    2.3199    1.0000 </r>
       <r>    2.7469    1.0000 </r>
       <r>    2.7961    1.0000 </r>
       <r>    2.9119    1.0000 </r>
       <r>    3.0609    1.0000 </r>
       <r>    3.2222    1.0000 </r>
       <r>    3.3163    1.0000 </r>
       <r>    3.6346    1.0000 </r>
       <r>    4.2318    1.0000 </r>
       <r>    4.4117    1.0000 </r>
       <r>    5.0348    1.0000 </r>
       <r>    5.0875    1.0000 </r>
       <r>    5.5218    0.0000 </r>
       <r>    5.6753    0.0000 </r>
       <r>    5.8466    0.0000 </r>
       <r>    5.9208    0.0000 </r>
       <r>    7.8380    0.0000 </r>
       <r>    8.0260    0.0000 </r>
       <r>    8.1808    0.0000 </r>
       <r>    8.3749    0.0000 </r>
       <r>    8.4418    0.0000 </r>
       <r>    8.6459    0.0000 </r>
      </set>
      <set comment="kpoint 7">
       <r>  -57.6342    1.0000 </r>
       <r>  -57.6342    1.0000 </r>
       <r>  -56.8094    1.0000 </r>
       <r>  -56.8090    1.0000 </r>
       <r>  -31.1055    1.0000 </r>
       <r>  -31.1043    1.0000 </r>
       <r>  -30.9593    1.0000 </r>
       <r>  -30.9572    1.0000 </r>
       <r>  -30.9323    1.0000 </r>
       <r>  -30.9301    1.0000 </r>
       <r>  -30.5961    1.0000 </r>
       <r>  -30.5917    1.0000 </r>
       <r>  -30.1692    1.0000 </r>
       <r>  -30.1664    1.0000 </r>
       <r>  -30.1473    1.0000 </r>
       <r>  -30.1447    1.0000 </r>
       <r>   -3.2156    1.0000 </r>
       <r>   -3.1385    1.0000 </r>
       <r>   -1.6017    1.0000 </r>
       <r>   -1.4985    1.0000 </r>
       <r>   -1.2688    1.0000 </r>
       <r>   -0.9966    1.0000 </r>
       <r>    1.5810    1.0000 </r>
       <r>    1.7801    1.0000 </r>
       <r>    2.0260    1.0000 </r>
       <r>    2.1215    1.0000 </r>
       <r>    2.2140    1.0000 </r>
       <r>    2.4086    1.0000 </r>
       <r>    2.4452    1.0000 </r>
       <r>    2.7955    1.0000 </r>
       <r>    3.2195    1.0000 </r>
       <r>    3.3661    1.0000 </r>
       <r>    3.4047    1.0000 </r>
       <r>    3.7376    1.0000 </r>
       <r>    3.9245    1.0000 </r>
       <r>    3.9627    1.0000 </r>
       <r>    4.8438    1.0000 </r>
       <r>    5.0659    1.0000 </r>
       <r>    5.2978    0.9991 </r>
       <r>    5.5377    0.0000 </r>
       <r>    5.7854    0.0000 </r>
       <r>    5.9266    0.0000 </r>
       <r>    7.7035    0.0000 </r>
       <r>    7.9565    0.0000 </r>
       <r>    8.1740    0.0000 </r>
       <r>    8.3804    0.0000 </r>
       <r>    8.4646    0.0000 </r>
       <r>    8.6936    0.0000 </r>
      </set>
      <set comment="kpoint 8">
       <r>  -57.6343    1.0000 </r>
       <r>  -57.6341    1.0000 </r>
       <r>  -56.8094    1.0000 </r>
       <r>  -56.8090    1.0000 </r>
       <r>  -31.1056    1.0000 </r>
       <r>  -31.1042    1.0000 </r>
       <r>  -30.9592    1.0000 </r>
       <r>  -30.9573    1.0000 </r>
       <r>  -30.9322    1.0000 </r>
       <r>  -30.9302    1.0000 </r>
       <r>  -30.6001    1.0000 </r>
       <r>  -30.5877    1.0000 </r>
       <r>  -30.1693    1.0000 </r>
       <r>  -30.1663    1.0000 </r>
       <r>  -30.1474    1.0000 </r>
       <r>  -30.1446    1.0000 </r>
       <r>   -3.7137    1.0000 </r>
       <r>   -2.4705    1.0000 </r>
       <r>   -1.6839    1.0000 </r>
       <r>   -1.4379    1.0000 </r>
       <r>   -1.2718    1.0000 </r>
       <r>   -0.9712    1.0000 </r>
       <r>    1.3596    1.0000 </r>
       <r>    1.6333    1.0000 </r>
       <r>    1.8624    1.0000 </r>
       <r>    2.1099    1.0000 </r>
       <r>    2.3026    1.0000 </r>
       <r>    2.6616    1.0000 </r>
       <r>    2.7016    1.0000 </r>
       <r>    2.7138    1.0000 </r>
       <r>    2.8884    1.0000 </r>
       <r>    3.2885    1.0000 </r>
       <r>    3.5554    1.0000 </r>
       <r>    3.6261    1.0000 </r>
       <r>    3.7226    1.0000 </r>
       <r>    4.2230    1.0000 </r>
       <r>    4.6984    1.0000 </r>
       <r>    5.0385    1.0000 </r>
       <r>    5.5481    0.0000 </r>
       <r>    5.7142    0.0000 </r>
       <r>    5.8192    0.0000 </r>
       <r>    6.0694    0.0000 </r>
       <r>    7.4447    0.0000 </r>
       <r>    7.9393    0.0000 </r>
       <r>    8.0308    0.0000 </r>
       <r>    8.2778    0.0000 </r>
       <r>    8.4229    0.0000 </r>
       <r>    8.9907    0.0000 </r>
      </set>
      <set comment="kpoint 9">
       <r>  -57.6344    1.0000 </r>
       <r>  -57.6341    1.0000 </r>
       <r>  -56.8093    1.0000 </r>
       <r>  -56.8089    1.0000 </r>
       <r>  -31.1057    1.0000 </r>
       <r>  -31.1043    1.0000 </r>
       <r>  -30.9621    1.0000 </r>
       <r>  -30.9586    1.0000 </r>
       <r>  -30.9400    1.0000 </r>
       <r>  -30.9362    1.0000 </r>
       <r>  -30.6027    1.0000 </r>
       <r>  -30.5848    1.0000 </r>
       <r>  -30.1619    1.0000 </r>
       <r>  -30.1539    1.0000 </r>
       <r>  -30.1496    1.0000 </r>
       <r>  -30.1419    1.0000 </r>
       <r>   -4.1446    1.0000 </r>
       <r>   -1.8358    1.0000 </r>
       <r>   -1.6660    1.0000 </r>
       <r>   -1.5997    1.0000 </r>
       <r>   -1.0613    1.0000 </r>
       <r>   -0.6804    1.0000 </r>
       <r>    1.0868    1.0000 </r>
       <r>    1.1423    1.0000 </r>
       <r>    1.4936    1.0000 </r>
       <r>    1.7741    1.0000 </r>
       <r>    1.9061    1.0000 </r>
       <r>    2.6714    1.0000 </r>
       <r>    2.9036    1.0000 </r>
       <r>    2.9259    1.0000 </r>
       <r>    3.2224    1.0000 </r>
       <r>    3.2917    1.0000 </r>
       <r>    3.4383    1.0000 </r>
       <r>    3.7329    1.0000 </r>
       <r>    4.2435    1.0000 </r>
       <r>    4.3485    1.0000 </r>
       <r>    4.5912    1.0000 </r>
       <r>    5.3562    0.1586 </r>
       <r>    5.7058    0.0000 </r>
       <r>    5.8962    0.0000 </r>
       <r>    5.9276    0.0000 </r>
       <r>    6.3577    0.0000 </r>
       <r>    7.2908    0.0000 </r>
       <r>    7.8156    0.0000 </r>
       <r>    8.0408    0.0000 </r>
       <r>    8.1886    0.0000 </r>
       <r>    8.5570    0.0000 </r>
       <r>    8.6633    0.0000 </r>
      </set>
      <set comment="kpoint 10">
       <r>  -57.6345    1.0000 </r>
       <r>  -57.6341    1.0000 </r>
       <r>  -56.8092    1.0000 </r>
       <r>  -56.8089    1.0000 </r>
       <r>  -31.1057    1.0000 </r>
       <r>  -31.1046    1.0000 </r>
       <r>  -30.9653    1.0000 </r>
       <r>  -30.9652    1.0000 </r>
       <r>  -30.9443    1.0000 </r>
       <r>  -30.9440    1.0000 </r>
       <r>  -30.6036    1.0000 </r>
       <r>  -30.5836    1.0000 </r>
       <r>  -30.1516    1.0000 </r>
       <r>  -30.1511    1.0000 </r>
       <r>  -30.1401    1.0000 </r>
       <r>  -30.1398    1.0000 </r>
       <r>   -4.3867    1.0000 </r>
       <r>   -1.9286    1.0000 </r>
       <r>   -1.7540    1.0000 </r>
       <r>   -1.1356    1.0000 </r>
       <r>   -0.5938    1.0000 </r>
       <r>   -0.5380    1.0000 </r>
       <r>    0.9459    1.0000 </r>
       <r>    0.9675    1.0000 </r>
       <r>    1.1154    1.0000 </r>
       <r>    1.2309    1.0000 </r>
       <r>    1.5771    1.0000 </r>
       <r>    2.5383    1.0000 </r>
       <r>    2.7016    1.0000 </r>
       <r>    3.1364    1.0000 </r>
       <r>    3.2992    1.0000 </r>
       <r>    3.5993    1.0000 </r>
       <r>    3.7299    1.0000 </r>
       <r>    3.8853    1.0000 </r>
       <r>    4.1599    1.0000 </r>
       <r>    4.4907    1.0000 </r>
       <r>    5.2644    1.0000 </r>
       <r>    5.7436    0.0000 </r>
       <r>    5.7919    0.0000 </r>
       <r>    5.9968    0.0000 </r>
       <r>    6.0210    0.0000 </r>
       <r>    6.3091    0.0000 </r>
       <r>    7.3590    0.0000 </r>
       <r>    7.7776    0.0000 </r>
       <r>    7.7831    0.0000 </r>
       <r>    8.2670    0.0000 </r>
       <r>    8.3657    0.0000 </r>
       <r>    8.7332    0.0000 </r>
      </set>
      <set comment="kpoint 11">
       <r>  -57.6343    1.0000 </r>
       <r>  -57.6341    1.0000 </r>
       <r>  -56.8095    1.0000 </r>
       <r>  -56.8089    1.0000 </r>
       <r>  -31.1057    1.0000 </r>
       <r>  -31.1041    1.0000 </r>
       <r>  -30.9537    1.0000 </r>
       <r>  -30.9534    1.0000 </r>
       <r>  -30.9340    1.0000 </r>
       <r>  -30.9338    1.0000 </r>
       <r>  -30.5961    1.0000 </r>
       <r>  -30.5917    1.0000 </r>
       <r>  -30.1613    1.0000 </r>
       <r>  -30.1602    1.0000 </r>
       <r>  -30.1560    1.0000 </r>
       <r>  -30.1547    1.0000 </r>
       <r>   -3.3508    1.0000 </r>
       <r>   -2.9008    1.0000 </r>
       <r>   -1.7302    1.0000 </r>
       <r>   -1.5200    1.0000 </r>
       <r>   -1.3196    1.0000 </r>
       <r>   -0.7476    1.0000 </r>
       <r>    1.5795    1.0000 </r>
       <r>    1.5877    1.0000 </r>
       <r>    1.8475    1.0000 </r>
       <r>    1.8947    1.0000 </r>
       <r>    2.1971    1.0000 </r>
       <r>    2.3719    1.0000 </r>
       <r>    2.8606    1.0000 </r>
       <r>    2.9140    1.0000 </r>
       <r>    3.1384    1.0000 </r>
       <r>    3.2074    1.0000 </r>
       <r>    3.3554    1.0000 </r>
       <r>    3.7095    1.0000 </r>
       <r>    4.0351    1.0000 </r>
       <r>    4.1613    1.0000 </r>
       <r>    4.7738    1.0000 </r>
       <r>    5.0837    1.0000 </r>
       <r>    5.3238    0.9011 </r>
       <r>    5.4507    0.0000 </r>
       <r>    5.7317    0.0000 </r>
       <r>    5.7681    0.0000 </r>
       <r>    7.7465    0.0000 </r>
       <r>    8.1977    0.0000 </r>
       <r>    8.3800    0.0000 </r>
       <r>    8.3934    0.0000 </r>
       <r>    8.5431    0.0000 </r>
       <r>    8.7170    0.0000 </r>
      </set>
      <set comment="kpoint 12">
       <r>  -57.6341    1.0000 </r>
       <r>  -57.6341    1.0000 </r>
       <r>  -56.8096    1.0000 </r>
       <r>  -56.8089    1.0000 </r>
       <r>  -31.1059    1.0000 </r>
       <r>  -31.1036    1.0000 </r>
       <r>  -30.9503    1.0000 </r>
       <r>  -30.9494    1.0000 </r>
       <r>  -30.9291    1.0000 </r>
       <r>  -30.9282    1.0000 </r>
       <r>  -30.6002    1.0000 </r>
       <r>  -30.5879    1.0000 </r>
       <r>  -30.1690    1.0000 </r>
       <r>  -30.1672    1.0000 </r>
       <r>  -30.1590    1.0000 </r>
       <r>  -30.1573    1.0000 </r>
       <r>   -3.3269    1.0000 </r>
       <r>   -2.7260    1.0000 </r>
       <r>   -1.7131    1.0000 </r>
       <r>   -1.6167    1.0000 </r>
       <r>   -1.2049    1.0000 </r>
       <r>   -0.9247    1.0000 </r>
       <r>    1.4855    1.0000 </r>
       <r>    1.7279    1.0000 </r>
       <r>    1.9016    1.0000 </r>
       <r>    2.1128    1.0000 </r>
       <r>    2.2583    1.0000 </r>
       <r>    2.4218    1.0000 </r>
       <r>    2.6550    1.0000 </r>
       <r>    2.7864    1.0000 </r>
       <r>    3.0859    1.0000 </r>
       <r>    3.1537    1.0000 </r>
       <r>    3.3562    1.0000 </r>
       <r>    3.4140    1.0000 </r>
       <r>    3.8798    1.0000 </r>
       <r>    4.3962    1.0000 </r>
       <r>    4.5745    1.0000 </r>
       <r>    4.7246    1.0000 </r>
       <r>    5.2968    0.9993 </r>
       <r>    5.5831    0.0000 </r>
       <r>    5.6118    0.0000 </r>
       <r>    6.0921    0.0000 </r>
       <r>    7.3958    0.0000 </r>
       <r>    7.8505    0.0000 </r>
       <r>    8.3416    0.0000 </r>
       <r>    8.6767    0.0000 </r>
       <r>    8.7858    0.0000 </r>
       <r>    9.0536    0.0000 </r>
      </set>
      <set comment="kpoint 13">
       <r>  -57.6342    1.0000 </r>
       <r>  -57.6341    1.0000 </r>
       <r>  -56.8096    1.0000 </r>
       <r>  -56.8089    1.0000 </r>
       <r>  -31.1060    1.0000 </r>
       <r>  -31.1036    1.0000 </r>
       <r>  -30.9502    1.0000 </r>
       <r>  -30.9494    1.0000 </r>
       <r>  -30.9291    1.0000 </r>
       <r>  -30.9283    1.0000 </r>
       <r>  -30.6030    1.0000 </r>
       <r>  -30.5851    1.0000 </r>
       <r>  -30.1692    1.0000 </r>
       <r>  -30.1670    1.0000 </r>
       <r>  -30.1592    1.0000 </r>
       <r>  -30.1570    1.0000 </r>
       <r>   -3.7220    1.0000 </r>
       <r>   -2.0014    1.0000 </r>
       <r>   -1.8287    1.0000 </r>
       <r>   -1.4714    1.0000 </r>
       <r>   -1.1736    1.0000 </r>
       <r>   -1.1014    1.0000 </r>
       <r>    1.2224    1.0000 </r>
       <r>    1.4901    1.0000 </r>
       <r>    1.8644    1.0000 </r>
       <r>    2.0342    1.0000 </r>
       <r>    2.2151    1.0000 </r>
       <r>    2.5743    1.0000 </r>
       <r>    2.7083    1.0000 </r>
       <r>    2.9620    1.0000 </r>
       <r>    3.1028    1.0000 </r>
       <r>    3.2408    1.0000 </r>
       <r>    3.3315    1.0000 </r>
       <r>    3.5254    1.0000 </r>
       <r>    3.5906    1.0000 </r>
       <r>    4.2291    1.0000 </r>
       <r>    4.5082    1.0000 </r>
       <r>    4.8387    1.0000 </r>
       <r>    5.2743    1.0000 </r>
       <r>    5.5985    0.0000 </r>
       <r>    5.8509    0.0000 </r>
       <r>    6.6372    0.0000 </r>
       <r>    7.1485    0.0000 </r>
       <r>    7.6899    0.0000 </r>
       <r>    8.1686    0.0000 </r>
       <r>    8.5347    0.0000 </r>
       <r>    8.9545    0.0000 </r>
       <r>    9.2282    0.0000 </r>
      </set>
      <set comment="kpoint 14">
       <r>  -57.6343    1.0000 </r>
       <r>  -57.6341    1.0000 </r>
       <r>  -56.8095    1.0000 </r>
       <r>  -56.8089    1.0000 </r>
       <r>  -31.1059    1.0000 </r>
       <r>  -31.1038    1.0000 </r>
       <r>  -30.9536    1.0000 </r>
       <r>  -30.9534    1.0000 </r>
       <r>  -30.9342    1.0000 </r>
       <r>  -30.9338    1.0000 </r>
       <r>  -30.6039    1.0000 </r>
       <r>  -30.5839    1.0000 </r>
       <r>  -30.1616    1.0000 </r>
       <r>  -30.1602    1.0000 </r>
       <r>  -30.1557    1.0000 </r>
       <r>  -30.1546    1.0000 </r>
       <r>   -4.0138    1.0000 </r>
       <r>   -1.8628    1.0000 </r>
       <r>   -1.4564    1.0000 </r>
       <r>   -1.3772    1.0000 </r>
       <r>   -1.2205    1.0000 </r>
       <r>   -1.1495    1.0000 </r>
       <r>    1.0566    1.0000 </r>
       <r>    1.3775    1.0000 </r>
       <r>    1.6245    1.0000 </r>
       <r>    1.7861    1.0000 </r>
       <r>    2.0109    1.0000 </r>
       <r>    2.4251    1.0000 </r>
       <r>    2.9075    1.0000 </r>
       <r>    3.2309    1.0000 </r>
       <r>    3.2960    1.0000 </r>
       <r>    3.2980    1.0000 </r>
       <r>    3.5066    1.0000 </r>
       <r>    3.6309    1.0000 </r>
       <r>    3.6350    1.0000 </r>
       <r>    4.2628    1.0000 </r>
       <r>    4.3557    1.0000 </r>
       <r>    5.2405    1.0000 </r>
       <r>    5.3452    0.4106 </r>
       <r>    5.7218    0.0000 </r>
       <r>    5.9597    0.0000 </r>
       <r>    6.7595    0.0000 </r>
       <r>    7.1081    0.0000 </r>
       <r>    7.6513    0.0000 </r>
       <r>    8.0679    0.0000 </r>
       <r>    8.3716    0.0000 </r>
       <r>    9.0770    0.0000 </r>
       <r>    9.1326    0.0000 </r>
      </set>
      <set comment="kpoint 15">
       <r>  -57.6341    1.0000 </r>
       <r>  -57.6341    1.0000 </r>
       <r>  -56.8098    1.0000 </r>
       <r>  -56.8089    1.0000 </r>
       <r>  -31.1061    1.0000 </r>
       <r>  -31.1032    1.0000 </r>
       <r>  -30.9445    1.0000 </r>
       <r>  -30.9444    1.0000 </r>
       <r>  -30.9249    1.0000 </r>
       <r>  -30.9249    1.0000 </r>
       <r>  -30.6031    1.0000 </r>
       <r>  -30.5852    1.0000 </r>
       <r>  -30.1694    1.0000 </r>
       <r>  -30.1690    1.0000 </r>
       <r>  -30.1675    1.0000 </r>
       <r>  -30.1669    1.0000 </r>
       <r>   -3.4777    1.0000 </r>
       <r>   -2.1348    1.0000 </r>
       <r>   -1.8835    1.0000 </r>
       <r>   -1.5932    1.0000 </r>
       <r>   -1.2601    1.0000 </r>
       <r>   -0.9152    1.0000 </r>
       <r>    1.2747    1.0000 </r>
       <r>    1.5461    1.0000 </r>
       <r>    1.8982    1.0000 </r>
       <r>    2.0707    1.0000 </r>
       <r>    2.1334    1.0000 </r>
       <r>    2.5201    1.0000 </r>
       <r>    2.8318    1.0000 </r>
       <r>    2.9164    1.0000 </r>
       <r>    3.0770    1.0000 </r>
       <r>    3.1233    1.0000 </r>
       <r>    3.3507    1.0000 </r>
       <r>    3.4504    1.0000 </r>
       <r>    3.7311    1.0000 </r>
       <r>    4.1255    1.0000 </r>
       <r>    4.3015    1.0000 </r>
       <r>    4.6368    1.0000 </r>
       <r>    5.1185    1.0000 </r>
       <r>    5.4208    0.0000 </r>
       <r>    5.8295    0.0000 </r>
       <r>    6.7433    0.0000 </r>
       <r>    7.1006    0.0000 </r>
       <r>    7.6603    0.0000 </r>
       <r>    8.2063    0.0000 </r>
       <r>    9.2681    0.0000 </r>
       <r>    9.3479    0.0000 </r>
       <r>    9.5026    0.0000 </r>
      </set>
      <set comment="kpoint 16">
       <r>  -57.6341    1.0000 </r>
       <r>  -57.6340    1.0000 </r>
       <r>  -56.8098    1.0000 </r>
       <r>  -56.8089    1.0000 </r>
       <r>  -31.1061    1.0000 </r>
       <r>  -31.1032    1.0000 </r>
       <r>  -30.9445    1.0000 </r>
       <r>  -30.9444    1.0000 </r>
       <r>  -30.9250    1.0000 </r>
       <r>  -30.9249    1.0000 </r>
       <r>  -30.6041    1.0000 </r>
       <r>  -30.5842    1.0000 </r>
       <r>  -30.1698    1.0000 </r>
       <r>  -30.1686    1.0000 </r>
       <r>  -30.1677    1.0000 </r>
       <r>  -30.1668    1.0000 </r>
       <r>   -3.6215    1.0000 </r>
       <r>   -1.9199    1.0000 </r>
       <r>   -1.5559    1.0000 </r>
       <r>   -1.5469    1.0000 </r>
       <r>   -1.5259    1.0000 </r>
       <r>   -1.0018    1.0000 </r>
       <r>    1.1515    1.0000 </r>
       <r>    1.4377    1.0000 </r>
       <r>    1.9370    1.0000 </r>
       <r>    1.9634    1.0000 </r>
       <r>    2.2041    1.0000 </r>
       <r>    2.4795    1.0000 </r>
       <r>    2.9083    1.0000 </r>
       <r>    2.9260    1.0000 </r>
       <r>    3.1120    1.0000 </r>
       <r>    3.2506    1.0000 </r>
       <r>    3.3388    1.0000 </r>
       <r>    3.5277    1.0000 </r>
       <r>    3.6056    1.0000 </r>
       <r>    3.9378    1.0000 </r>
       <r>    4.4120    1.0000 </r>
       <r>    4.6069    1.0000 </r>
       <r>    5.0955    1.0000 </r>
       <r>    5.4274    0.0000 </r>
       <r>    5.9350    0.0000 </r>
       <r>    6.9972    0.0000 </r>
       <r>    7.0822    0.0000 </r>
       <r>    7.6025    0.0000 </r>
       <r>    8.1256    0.0000 </r>
       <r>    9.0915    0.0000 </r>
       <r>    9.4835    0.0000 </r>
       <r>    9.5677    0.0000 </r>
      </set>
      <set comment="kpoint 17">
       <r>  -57.6346    1.0000 </r>
       <r>  -57.6341    1.0000 </r>
       <r>  -56.8092    1.0000 </r>
       <r>  -56.8089    1.0000 </r>
       <r>  -31.1057    1.0000 </r>
       <r>  -31.1047    1.0000 </r>
       <r>  -30.9665    1.0000 </r>
       <r>  -30.9663    1.0000 </r>
       <r>  -30.9451    1.0000 </r>
       <r>  -30.9450    1.0000 </r>
       <r>  -30.6035    1.0000 </r>
       <r>  -30.5836    1.0000 </r>
       <r>  -30.1506    1.0000 </r>
       <r>  -30.1503    1.0000 </r>
       <r>  -30.1387    1.0000 </r>
       <r>  -30.1383    1.0000 </r>
       <r>   -4.4193    1.0000 </r>
       <r>   -1.9470    1.0000 </r>
       <r>   -1.7713    1.0000 </r>
       <r>   -1.1061    1.0000 </r>
       <r>   -0.4999    1.0000 </r>
       <r>   -0.4433    1.0000 </r>
       <r>    0.8869    1.0000 </r>
       <r>    0.9353    1.0000 </r>
       <r>    1.0372    1.0000 </r>
       <r>    1.1581    1.0000 </r>
       <r>    1.5708    1.0000 </r>
       <r>    2.4673    1.0000 </r>
       <r>    2.6571    1.0000 </r>
       <r>    3.1340    1.0000 </r>
       <r>    3.3947    1.0000 </r>
       <r>    3.6353    1.0000 </r>
       <r>    3.7378    1.0000 </r>
       <r>    3.9282    1.0000 </r>
       <r>    4.1433    1.0000 </r>
       <r>    4.5248    1.0000 </r>
       <r>    5.4491    0.0000 </r>
       <r>    5.7920    0.0000 </r>
       <r>    5.8336    0.0000 </r>
       <r>    6.0219    0.0000 </r>
       <r>    6.0275    0.0000 </r>
       <r>    6.2613    0.0000 </r>
       <r>    7.3954    0.0000 </r>
       <r>    7.7302    0.0000 </r>
       <r>    7.7797    0.0000 </r>
       <r>    8.1915    0.0000 </r>
       <r>    8.6913    0.0000 </r>
       <r>    8.8887    0.0000 </r>
      </set>
      <set comment="kpoint 18">
       <r>  -57.6344    1.0000 </r>
       <r>  -57.6341    1.0000 </r>
       <r>  -56.8093    1.0000 </r>
       <r>  -56.8089    1.0000 </r>
       <r>  -31.1057    1.0000 </r>
       <r>  -31.1044    1.0000 </r>
       <r>  -30.9635    1.0000 </r>
       <r>  -30.9598    1.0000 </r>
       <r>  -30.9413    1.0000 </r>
       <r>  -30.9373    1.0000 </r>
       <r>  -30.6027    1.0000 </r>
       <r>  -30.5847    1.0000 </r>
       <r>  -30.1606    1.0000 </r>
       <r>  -30.1520    1.0000 </r>
       <r>  -30.1487    1.0000 </r>
       <r>  -30.1404    1.0000 </r>
       <r>   -4.1907    1.0000 </r>
       <r>   -1.8440    1.0000 </r>
       <r>   -1.6693    1.0000 </r>
       <r>   -1.5891    1.0000 </r>
       <r>   -1.0000    1.0000 </r>
       <r>   -0.6064    1.0000 </r>
       <r>    1.0334    1.0000 </r>
       <r>    1.1101    1.0000 </r>
       <r>    1.4305    1.0000 </r>
       <r>    1.7205    1.0000 </r>
       <r>    1.8608    1.0000 </r>
       <r>    2.7078    1.0000 </r>
       <r>    2.8582    1.0000 </r>
       <r>    2.9341    1.0000 </r>
       <r>    3.1991    1.0000 </r>
       <r>    3.3327    1.0000 </r>
       <r>    3.4606    1.0000 </r>
       <r>    3.7744    1.0000 </r>
       <r>    4.2531    1.0000 </r>
       <r>    4.4301    1.0000 </r>
       <r>    4.6918    1.0000 </r>
       <r>    5.4089    0.0000 </r>
       <r>    5.7548    0.0000 </r>
       <r>    5.9253    0.0000 </r>
       <r>    5.9420    0.0000 </r>
       <r>    6.3177    0.0000 </r>
       <r>    7.3093    0.0000 </r>
       <r>    7.8397    0.0000 </r>
       <r>    8.0175    0.0000 </r>
       <r>    8.2713    0.0000 </r>
       <r>    8.5126    0.0000 </r>
       <r>    8.5894    0.0000 </r>
      </set>
      <set comment="kpoint 19">
       <r>  -57.6343    1.0000 </r>
       <r>  -57.6341    1.0000 </r>
       <r>  -56.8094    1.0000 </r>
       <r>  -56.8090    1.0000 </r>
       <r>  -31.1056    1.0000 </r>
       <r>  -31.1043    1.0000 </r>
       <r>  -30.9604    1.0000 </r>
       <r>  -30.9580    1.0000 </r>
       <r>  -30.9333    1.0000 </r>
       <r>  -30.9307    1.0000 </r>
       <r>  -30.6001    1.0000 </r>
       <r>  -30.5876    1.0000 </r>
       <r>  -30.1689    1.0000 </r>
       <r>  -30.1651    1.0000 </r>
       <r>  -30.1466    1.0000 </r>
       <r>  -30.1430    1.0000 </r>
       <r>   -3.7672    1.0000 </r>
       <r>   -2.4247    1.0000 </r>
       <r>   -1.6862    1.0000 </r>
       <r>   -1.4551    1.0000 </r>
       <r>   -1.2674    1.0000 </r>
       <r>   -0.9257    1.0000 </r>
       <r>    1.3289    1.0000 </r>
       <r>    1.5801    1.0000 </r>
       <r>    1.8073    1.0000 </r>
       <r>    2.1858    1.0000 </r>
       <r>    2.2509    1.0000 </r>
       <r>    2.6458    1.0000 </r>
       <r>    2.7142    1.0000 </r>
       <r>    2.7647    1.0000 </r>
       <r>    2.9139    1.0000 </r>
       <r>    3.2340    1.0000 </r>
       <r>    3.5101    1.0000 </r>
       <r>    3.6669    1.0000 </r>
       <r>    3.8476    1.0000 </r>
       <r>    4.2048    1.0000 </r>
       <r>    4.7101    1.0000 </r>
       <r>    5.0718    1.0000 </r>
       <r>    5.5825    0.0000 </r>
       <r>    5.7319    0.0000 </r>
       <r>    5.8516    0.0000 </r>
       <r>    6.0656    0.0000 </r>
       <r>    7.4474    0.0000 </r>
       <r>    7.9317    0.0000 </r>
       <r>    8.0130    0.0000 </r>
       <r>    8.3688    0.0000 </r>
       <r>    8.4322    0.0000 </r>
       <r>    8.9764    0.0000 </r>
      </set>
      <set comment="kpoint 20">
       <r>  -57.6342    1.0000 </r>
       <r>  -57.6342    1.0000 </r>
       <r>  -56.8093    1.0000 </r>
       <r>  -56.8090    1.0000 </r>
       <r>  -31.1055    1.0000 </r>
       <r>  -31.1044    1.0000 </r>
       <r>  -30.9599    1.0000 </r>
       <r>  -30.9582    1.0000 </r>
       <r>  -30.9318    1.0000 </r>
       <r>  -30.9300    1.0000 </r>
       <r>  -30.5961    1.0000 </r>
       <r>  -30.5917    1.0000 </r>
       <r>  -30.1695    1.0000 </r>
       <r>  -30.1674    1.0000 </r>
       <r>  -30.1458    1.0000 </r>
       <r>  -30.1438    1.0000 </r>
       <r>   -3.1896    1.0000 </r>
       <r>   -3.1810    1.0000 </r>
       <r>   -1.5716    1.0000 </r>
       <r>   -1.4988    1.0000 </r>
       <r>   -1.2516    1.0000 </r>
       <r>   -1.0499    1.0000 </r>
       <r>    1.6286    1.0000 </r>
       <r>    1.7592    1.0000 </r>
       <r>    2.0686    1.0000 </r>
       <r>    2.1482    1.0000 </r>
       <r>    2.1874    1.0000 </r>
       <r>    2.3792    1.0000 </r>
       <r>    2.4679    1.0000 </r>
       <r>    2.7515    1.0000 </r>
       <r>    3.2529    1.0000 </r>
       <r>    3.3815    1.0000 </r>
       <r>    3.4500    1.0000 </r>
       <r>    3.7101    1.0000 </r>
       <r>    3.8780    1.0000 </r>
       <r>    3.9467    1.0000 </r>
       <r>    4.8584    1.0000 </r>
       <r>    5.0543    1.0000 </r>
       <r>    5.3196    0.9438 </r>
       <r>    5.5228    0.0000 </r>
       <r>    5.8213    0.0000 </r>
       <r>    5.9449    0.0000 </r>
       <r>    7.6880    0.0000 </r>
       <r>    7.8885    0.0000 </r>
       <r>    8.1895    0.0000 </r>
       <r>    8.3568    0.0000 </r>
       <r>    8.4741    0.0000 </r>
       <r>    8.7883    0.0000 </r>
      </set>
      <set comment="kpoint 21">
       <r>  -57.6344    1.0000 </r>
       <r>  -57.6341    1.0000 </r>
       <r>  -56.8092    1.0000 </r>
       <r>  -56.8090    1.0000 </r>
       <r>  -31.1054    1.0000 </r>
       <r>  -31.1047    1.0000 </r>
       <r>  -30.9628    1.0000 </r>
       <r>  -30.9587    1.0000 </r>
       <r>  -30.9395    1.0000 </r>
       <r>  -30.9352    1.0000 </r>
       <r>  -30.5960    1.0000 </r>
       <r>  -30.5915    1.0000 </r>
       <r>  -30.1632    1.0000 </r>
       <r>  -30.1557    1.0000 </r>
       <r>  -30.1483    1.0000 </r>
       <r>  -30.1411    1.0000 </r>
       <r>   -3.7937    1.0000 </r>
       <r>   -2.5216    1.0000 </r>
       <r>   -1.7552    1.0000 </r>
       <r>   -1.5951    1.0000 </r>
       <r>   -1.1030    1.0000 </r>
       <r>   -0.6851    1.0000 </r>
       <r>    1.1917    1.0000 </r>
       <r>    1.4972    1.0000 </r>
       <r>    1.6474    1.0000 </r>
       <r>    1.9517    1.0000 </r>
       <r>    2.3049    1.0000 </r>
       <r>    2.7186    1.0000 </r>
       <r>    2.7860    1.0000 </r>
       <r>    2.9282    1.0000 </r>
       <r>    3.0522    1.0000 </r>
       <r>    3.2011    1.0000 </r>
       <r>    3.3154    1.0000 </r>
       <r>    3.6646    1.0000 </r>
       <r>    4.1905    1.0000 </r>
       <r>    4.3942    1.0000 </r>
       <r>    5.0287    1.0000 </r>
       <r>    5.0800    1.0000 </r>
       <r>    5.4967    0.0000 </r>
       <r>    5.6623    0.0000 </r>
       <r>    5.8717    0.0000 </r>
       <r>    5.9357    0.0000 </r>
       <r>    7.8024    0.0000 </r>
       <r>    7.9937    0.0000 </r>
       <r>    8.2175    0.0000 </r>
       <r>    8.3923    0.0000 </r>
       <r>    8.4539    0.0000 </r>
       <r>    8.5647    0.0000 </r>
      </set>
      <set comment="kpoint 22">
       <r>  -57.6345    1.0000 </r>
       <r>  -57.6341    1.0000 </r>
       <r>  -56.8091    1.0000 </r>
       <r>  -56.8090    1.0000 </r>
       <r>  -31.1052    1.0000 </r>
       <r>  -31.1051    1.0000 </r>
       <r>  -30.9658    1.0000 </r>
       <r>  -30.9647    1.0000 </r>
       <r>  -30.9446    1.0000 </r>
       <r>  -30.9434    1.0000 </r>
       <r>  -30.5998    1.0000 </r>
       <r>  -30.5874    1.0000 </r>
       <r>  -30.1526    1.0000 </r>
       <r>  -30.1501    1.0000 </r>
       <r>  -30.1413    1.0000 </r>
       <r>  -30.1389    1.0000 </r>
       <r>   -4.2188    1.0000 </r>
       <r>   -1.9054    1.0000 </r>
       <r>   -1.8541    1.0000 </r>
       <r>   -1.7383    1.0000 </r>
       <r>   -0.6507    1.0000 </r>
       <r>   -0.3896    1.0000 </r>
       <r>    0.9210    1.0000 </r>
       <r>    1.0334    1.0000 </r>
       <r>    1.2720    1.0000 </r>
       <r>    1.4719    1.0000 </r>
       <r>    2.3462    1.0000 </r>
       <r>    2.5362    1.0000 </r>
       <r>    2.7064    1.0000 </r>
       <r>    2.9138    1.0000 </r>
       <r>    3.1328    1.0000 </r>
       <r>    3.2377    1.0000 </r>
       <r>    3.4557    1.0000 </r>
       <r>    3.9675    1.0000 </r>
[...]
       <r>  -56.8082    1.0000 </r>
       <r>  -31.1079    1.0000 </r>
       <r>  -31.1027    1.0000 </r>
       <r>  -30.9694    1.0000 </r>
       <r>  -30.9693    1.0000 </r>
       <r>  -30.9471    1.0000 </r>
       <r>  -30.9471    1.0000 </r>
       <r>  -30.6024    1.0000 </r>
       <r>  -30.5846    1.0000 </r>
       <r>  -30.1481    1.0000 </r>
       <r>  -30.1480    1.0000 </r>
       <r>  -30.1355    1.0000 </r>
       <r>  -30.1353    1.0000 </r>
       <r>   -3.4354    1.0000 </r>
       <r>   -3.0180    1.0000 </r>
       <r>   -1.9031    1.0000 </r>
       <r>   -1.8812    1.0000 </r>
       <r>   -0.5886    1.0000 </r>
       <r>   -0.4471    1.0000 </r>
       <r>    0.6124    1.0000 </r>
       <r>    0.8053    1.0000 </r>
       <r>    1.5138    1.0000 </r>
       <r>    2.2297    1.0000 </r>
       <r>    2.2958    1.0000 </r>
       <r>    2.3305    1.0000 </r>
       <r>    2.5042    1.0000 </r>
       <r>    2.6572    1.0000 </r>
       <r>    2.7729    1.0000 </r>
       <r>    3.1859    1.0000 </r>
       <r>    4.5753    1.0000 </r>
       <r>    4.6384    1.0000 </r>
       <r>    4.7187    1.0000 </r>
       <r>    5.5285    0.0000 </r>
       <r>    5.7443    0.0000 </r>
       <r>    5.7879    0.0000 </r>
       <r>    5.8088    0.0000 </r>
       <r>    6.0171    0.0000 </r>
       <r>    6.2380    0.0000 </r>
       <r>    6.3164    0.0000 </r>
       <r>    6.6839    0.0000 </r>
       <r>    6.7221    0.0000 </r>
       <r>    6.7491    0.0000 </r>
       <r>    6.7589    0.0000 </r>
       <r>    8.2826    0.0000 </r>
       <r>    8.5505    0.0000 </r>
      </set>
      <set comment="kpoint 116">
       <r>  -57.6345    1.0000 </r>
       <r>  -57.6342    1.0000 </r>
       <r>  -56.8098    1.0000 </r>
       <r>  -56.8082    1.0000 </r>
       <r>  -31.1081    1.0000 </r>
       <r>  -31.1025    1.0000 </r>
       <r>  -30.9694    1.0000 </r>
       <r>  -30.9693    1.0000 </r>
       <r>  -30.9472    1.0000 </r>
       <r>  -30.9470    1.0000 </r>
       <r>  -30.6033    1.0000 </r>
       <r>  -30.5836    1.0000 </r>
       <r>  -30.1481    1.0000 </r>
       <r>  -30.1479    1.0000 </r>
       <r>  -30.1354    1.0000 </r>
       <r>  -30.1354    1.0000 </r>
       <r>   -3.3499    1.0000 </r>
       <r>   -3.0761    1.0000 </r>
       <r>   -1.9100    1.0000 </r>
       <r>   -1.8975    1.0000 </r>
       <r>   -0.6034    1.0000 </r>
       <r>   -0.4618    1.0000 </r>
       <r>    0.6065    1.0000 </r>
       <r>    0.8054    1.0000 </r>
       <r>    1.4182    1.0000 </r>
       <r>    2.2594    1.0000 </r>
       <r>    2.3749    1.0000 </r>
       <r>    2.3816    1.0000 </r>
       <r>    2.4916    1.0000 </r>
       <r>    2.6294    1.0000 </r>
       <r>    2.7456    1.0000 </r>
       <r>    3.1875    1.0000 </r>
       <r>    4.5777    1.0000 </r>
       <r>    4.6030    1.0000 </r>
       <r>    4.7313    1.0000 </r>
       <r>    5.5222    0.0000 </r>
       <r>    5.7491    0.0000 </r>
       <r>    5.8765    0.0000 </r>
       <r>    6.0260    0.0000 </r>
       <r>    6.0778    0.0000 </r>
       <r>    6.3119    0.0000 </r>
       <r>    6.5319    0.0000 </r>
       <r>    6.5350    0.0000 </r>
       <r>    6.5570    0.0000 </r>
       <r>    6.5875    0.0000 </r>
       <r>    6.6674    0.0000 </r>
       <r>    8.2990    0.0000 </r>
       <r>    8.5723    0.0000 </r>
      </set>
     </set>
    </set>
   </array>
  </eigenvalues>
  <separator name="orbital magnetization" >
   <v name="MAGDIPOLOUT">      0.00000000      0.00000000      0.00000000</v>
  </separator>
  <dos>
   <i name="efermi">      5.34200931 </i>
   <total>
    <array>
     <dimension dim="1">gridpoints</dimension>
     <dimension dim="2">spin</dimension>
     <field>energy</field>
     <field>total</field>
     <field>integrated</field>
     <set>
      <set comment="spin 1">
       <r>   -60.9999     0.0000     0.0000 </r>
       <r>   -60.7531     0.0000     0.0000 </r>
       <r>   -60.5063     0.0000     0.0000 </r>
       <r>   -60.2595     0.0000     0.0000 </r>
       <r>   -60.0127     0.0000     0.0000 </r>
       <r>   -59.7659     0.0000     0.0000 </r>
       <r>   -59.5192     0.0000     0.0000 </r>
       <r>   -59.2724     0.0000     0.0000 </r>
       <r>   -59.0256     0.0000     0.0000 </r>
       <r>   -58.7788     0.0000     0.0000 </r>
       <r>   -58.5320     0.0000     0.0000 </r>
       <r>   -58.2852     0.0000     0.0000 </r>
       <r>   -58.0385     0.0000     0.0000 </r>
       <r>   -57.7917     0.0000     0.0000 </r>
       <r>   -57.5449    16.2085     4.0000 </r>
       <r>   -57.2981     0.0000     4.0000 </r>
       <r>   -57.0513     0.0000     4.0000 </r>
       <r>   -56.8045    10.1799     6.5122 </r>
       <r>   -56.5578     0.0000     8.0000 </r>
       <r>   -56.3110     0.0000     8.0000 </r>
       <r>   -56.0642     0.0000     8.0000 </r>
       <r>   -55.8174     0.0000     8.0000 </r>
       <r>   -55.5706     0.0000     8.0000 </r>
       <r>   -55.3238     0.0000     8.0000 </r>
       <r>   -55.0771     0.0000     8.0000 </r>
       <r>   -54.8303     0.0000     8.0000 </r>
       <r>   -54.5835     0.0000     8.0000 </r>
       <r>   -54.3367     0.0000     8.0000 </r>
       <r>   -54.0899     0.0000     8.0000 </r>
       <r>   -53.8431     0.0000     8.0000 </r>
       <r>   -53.5964     0.0000     8.0000 </r>
       <r>   -53.3496     0.0000     8.0000 </r>
       <r>   -53.1028     0.0000     8.0000 </r>
       <r>   -52.8560     0.0000     8.0000 </r>
       <r>   -52.6092     0.0000     8.0000 </r>
       <r>   -52.3624     0.0000     8.0000 </r>
       <r>   -52.1157     0.0000     8.0000 </r>
       <r>   -51.8689     0.0000     8.0000 </r>
       <r>   -51.6221     0.0000     8.0000 </r>
       <r>   -51.3753     0.0000     8.0000 </r>
       <r>   -51.1285     0.0000     8.0000 </r>
       <r>   -50.8817     0.0000     8.0000 </r>
       <r>   -50.6350     0.0000     8.0000 </r>
       <r>   -50.3882     0.0000     8.0000 </r>
       <r>   -50.1414     0.0000     8.0000 </r>
       <r>   -49.8946     0.0000     8.0000 </r>
       <r>   -49.6478     0.0000     8.0000 </r>
       <r>   -49.4010     0.0000     8.0000 </r>
       <r>   -49.1543     0.0000     8.0000 </r>
       <r>   -48.9075     0.0000     8.0000 </r>
       <r>   -48.6607     0.0000     8.0000 </r>
       <r>   -48.4139     0.0000     8.0000 </r>
       <r>   -48.1671     0.0000     8.0000 </r>
       <r>   -47.9203     0.0000     8.0000 </r>
       <r>   -47.6736     0.0000     8.0000 </r>
       <r>   -47.4268     0.0000     8.0000 </r>
       <r>   -47.1800     0.0000     8.0000 </r>
       <r>   -46.9332     0.0000     8.0000 </r>
       <r>   -46.6864     0.0000     8.0000 </r>
       <r>   -46.4396     0.0000     8.0000 </r>
       <r>   -46.1929     0.0000     8.0000 </r>
       <r>   -45.9461     0.0000     8.0000 </r>
       <r>   -45.6993     0.0000     8.0000 </r>
       <r>   -45.4525     0.0000     8.0000 </r>
       <r>   -45.2057     0.0000     8.0000 </r>
       <r>   -44.9589     0.0000     8.0000 </r>
       <r>   -44.7122     0.0000     8.0000 </r>
       <r>   -44.4654     0.0000     8.0000 </r>
       <r>   -44.2186     0.0000     8.0000 </r>
       <r>   -43.9718     0.0000     8.0000 </r>
       <r>   -43.7250     0.0000     8.0000 </r>
       <r>   -43.4782     0.0000     8.0000 </r>
       <r>   -43.2315     0.0000     8.0000 </r>
       <r>   -42.9847     0.0000     8.0000 </r>
       <r>   -42.7379     0.0000     8.0000 </r>
       <r>   -42.4911     0.0000     8.0000 </r>
       <r>   -42.2443     0.0000     8.0000 </r>
       <r>   -41.9975     0.0000     8.0000 </r>
       <r>   -41.7508     0.0000     8.0000 </r>
       <r>   -41.5040     0.0000     8.0000 </r>
       <r>   -41.2572     0.0000     8.0000 </r>
       <r>   -41.0104     0.0000     8.0000 </r>
       <r>   -40.7636     0.0000     8.0000 </r>
       <r>   -40.5168     0.0000     8.0000 </r>
       <r>   -40.2701     0.0000     8.0000 </r>
       <r>   -40.0233     0.0000     8.0000 </r>
       <r>   -39.7765     0.0000     8.0000 </r>
       <r>   -39.5297     0.0000     8.0000 </r>
       <r>   -39.2829     0.0000     8.0000 </r>
       <r>   -39.0361     0.0000     8.0000 </r>
       <r>   -38.7894     0.0000     8.0000 </r>
       <r>   -38.5426     0.0000     8.0000 </r>
       <r>   -38.2958     0.0000     8.0000 </r>
       <r>   -38.0490     0.0000     8.0000 </r>
       <r>   -37.8022     0.0000     8.0000 </r>
       <r>   -37.5554     0.0000     8.0000 </r>
       <r>   -37.3087     0.0000     8.0000 </r>
       <r>   -37.0619     0.0000     8.0000 </r>
       <r>   -36.8151     0.0000     8.0000 </r>
       <r>   -36.5683     0.0000     8.0000 </r>
       <r>   -36.3215     0.0000     8.0000 </r>
       <r>   -36.0747     0.0000     8.0000 </r>
       <r>   -35.8280     0.0000     8.0000 </r>
       <r>   -35.5812     0.0000     8.0000 </r>
       <r>   -35.3344     0.0000     8.0000 </r>
       <r>   -35.0876     0.0000     8.0000 </r>
       <r>   -34.8408     0.0000     8.0000 </r>
       <r>   -34.5940     0.0000     8.0000 </r>
       <r>   -34.3473     0.0000     8.0000 </r>
       <r>   -34.1005     0.0000     8.0000 </r>
       <r>   -33.8537     0.0000     8.0000 </r>
       <r>   -33.6069     0.0000     8.0000 </r>
       <r>   -33.3601     0.0000     8.0000 </r>
       <r>   -33.1133     0.0000     8.0000 </r>
       <r>   -32.8666     0.0000     8.0000 </r>
       <r>   -32.6198     0.0000     8.0000 </r>
       <r>   -32.3730     0.0000     8.0000 </r>
       <r>   -32.1262     0.0000     8.0000 </r>
       <r>   -31.8794     0.0000     8.0000 </r>
       <r>   -31.6326     0.0000     8.0000 </r>
       <r>   -31.3859     0.0000     8.0000 </r>
       <r>   -31.1391     0.1325     8.0327 </r>
       <r>   -30.8923    32.3731    19.9891 </r>
       <r>   -30.6455     0.0071    20.0017 </r>
       <r>   -30.3987     0.0000    24.0000 </r>
       <r>   -30.1519    18.3704    28.5335 </r>
       <r>   -29.9052     0.0000    32.0000 </r>
       <r>   -29.6584     0.0000    32.0000 </r>
       <r>   -29.4116     0.0000    32.0000 </r>
       <r>   -29.1648     0.0000    32.0000 </r>
       <r>   -28.9180     0.0000    32.0000 </r>
       <r>   -28.6712     0.0000    32.0000 </r>
       <r>   -28.4245     0.0000    32.0000 </r>
       <r>   -28.1777     0.0000    32.0000 </r>
       <r>   -27.9309     0.0000    32.0000 </r>
       <r>   -27.6841     0.0000    32.0000 </r>
       <r>   -27.4373     0.0000    32.0000 </r>
       <r>   -27.1905     0.0000    32.0000 </r>
       <r>   -26.9438     0.0000    32.0000 </r>
       <r>   -26.6970     0.0000    32.0000 </r>
       <r>   -26.4502     0.0000    32.0000 </r>
       <r>   -26.2034     0.0000    32.0000 </r>
       <r>   -25.9566     0.0000    32.0000 </r>
       <r>   -25.7098     0.0000    32.0000 </r>
       <r>   -25.4631     0.0000    32.0000 </r>
       <r>   -25.2163     0.0000    32.0000 </r>
       <r>   -24.9695     0.0000    32.0000 </r>
       <r>   -24.7227     0.0000    32.0000 </r>
       <r>   -24.4759     0.0000    32.0000 </r>
       <r>   -24.2291     0.0000    32.0000 </r>
       <r>   -23.9824     0.0000    32.0000 </r>
       <r>   -23.7356     0.0000    32.0000 </r>
       <r>   -23.4888     0.0000    32.0000 </r>
       <r>   -23.2420     0.0000    32.0000 </r>
       <r>   -22.9952     0.0000    32.0000 </r>
       <r>   -22.7484     0.0000    32.0000 </r>
       <r>   -22.5017     0.0000    32.0000 </r>
       <r>   -22.2549     0.0000    32.0000 </r>
       <r>   -22.0081     0.0000    32.0000 </r>
       <r>   -21.7613     0.0000    32.0000 </r>
       <r>   -21.5145     0.0000    32.0000 </r>
       <r>   -21.2677     0.0000    32.0000 </r>
       <r>   -21.0210     0.0000    32.0000 </r>
       <r>   -20.7742     0.0000    32.0000 </r>
       <r>   -20.5274     0.0000    32.0000 </r>
       <r>   -20.2806     0.0000    32.0000 </r>
       <r>   -20.0338     0.0000    32.0000 </r>
       <r>   -19.7870     0.0000    32.0000 </r>
       <r>   -19.5403     0.0000    32.0000 </r>
       <r>   -19.2935     0.0000    32.0000 </r>
       <r>   -19.0467     0.0000    32.0000 </r>
       <r>   -18.7999     0.0000    32.0000 </r>
       <r>   -18.5531     0.0000    32.0000 </r>
       <r>   -18.3063     0.0000    32.0000 </r>
       <r>   -18.0596     0.0000    32.0000 </r>
       <r>   -17.8128     0.0000    32.0000 </r>
       <r>   -17.5660     0.0000    32.0000 </r>
       <r>   -17.3192     0.0000    32.0000 </r>
       <r>   -17.0724     0.0000    32.0000 </r>
       <r>   -16.8256     0.0000    32.0000 </r>
       <r>   -16.5789     0.0000    32.0000 </r>
       <r>   -16.3321     0.0000    32.0000 </r>
       <r>   -16.0853     0.0000    32.0000 </r>
       <r>   -15.8385     0.0000    32.0000 </r>
       <r>   -15.5917     0.0000    32.0000 </r>
       <r>   -15.3449     0.0000    32.0000 </r>
       <r>   -15.0982     0.0000    32.0000 </r>
       <r>   -14.8514     0.0000    32.0000 </r>
       <r>   -14.6046     0.0000    32.0000 </r>
       <r>   -14.3578     0.0000    32.0000 </r>
       <r>   -14.1110     0.0000    32.0000 </r>
       <r>   -13.8642     0.0000    32.0000 </r>
       <r>   -13.6175     0.0000    32.0000 </r>
       <r>   -13.3707     0.0000    32.0000 </r>
       <r>   -13.1239     0.0000    32.0000 </r>
       <r>   -12.8771     0.0000    32.0000 </r>
       <r>   -12.6303     0.0000    32.0000 </r>
       <r>   -12.3835     0.0000    32.0000 </r>
       <r>   -12.1368     0.0000    32.0000 </r>
       <r>   -11.8900     0.0000    32.0000 </r>
       <r>   -11.6432     0.0000    32.0000 </r>
       <r>   -11.3964     0.0000    32.0000 </r>
       <r>   -11.1496     0.0000    32.0000 </r>
       <r>   -10.9028     0.0000    32.0000 </r>
       <r>   -10.6560     0.0000    32.0000 </r>
       <r>   -10.4093     0.0000    32.0000 </r>
       <r>   -10.1625     0.0000    32.0000 </r>
       <r>    -9.9157     0.0000    32.0000 </r>
       <r>    -9.6689     0.0000    32.0000 </r>
       <r>    -9.4221     0.0000    32.0000 </r>
       <r>    -9.1753     0.0000    32.0000 </r>
       <r>    -8.9286     0.0000    32.0000 </r>
       <r>    -8.6818     0.0000    32.0000 </r>
       <r>    -8.4350     0.0000    32.0000 </r>
       <r>    -8.1882     0.0000    32.0000 </r>
       <r>    -7.9414     0.0000    32.0000 </r>
       <r>    -7.6946     0.0000    32.0000 </r>
       <r>    -7.4479     0.0000    32.0000 </r>
       <r>    -7.2011     0.0000    32.0000 </r>
       <r>    -6.9543     0.0000    32.0000 </r>
       <r>    -6.7075     0.0000    32.0000 </r>
       <r>    -6.4607     0.0000    32.0000 </r>
       <r>    -6.2139     0.0000    32.0000 </r>
       <r>    -5.9672     0.0000    32.0000 </r>
       <r>    -5.7204     0.0000    32.0000 </r>
       <r>    -5.4736     0.0000    32.0000 </r>
       <r>    -5.2268     0.0000    32.0000 </r>
       <r>    -4.9800     0.0000    32.0000 </r>
       <r>    -4.7332     0.0000    32.0000 </r>
       <r>    -4.4865     0.0206    32.0051 </r>
       <r>    -4.2397     0.2441    32.1164 </r>
       <r>    -3.9929     0.5905    32.3447 </r>
       <r>    -3.7461     0.9514    32.6787 </r>
       <r>    -3.4993     1.2968    33.1517 </r>
       <r>    -3.2525     1.7673    33.7321 </r>
       <r>    -3.0058     1.3263    34.3171 </r>
       <r>    -2.7590     1.2725    34.7324 </r>
       <r>    -2.5122     0.6856    35.0774 </r>
       <r>    -2.2654     0.5802    35.3473 </r>
       <r>    -2.0186     0.7736    35.5991 </r>
       <r>    -1.7718     4.7547    36.9591 </r>
       <r>    -1.5251     6.2017    39.4029 </r>
       <r>    -1.2783     1.8056    40.3027 </r>
       <r>    -1.0315     3.0345    41.7591 </r>
       <r>    -0.7847     3.1423    43.0051 </r>
       <r>    -0.5379     1.7727    43.5293 </r>
       <r>    -0.2911     0.7693    43.8939 </r>
       <r>    -0.0444     0.2396    43.9877 </r>
       <r>     0.2024     0.0413    44.0000 </r>
       <r>     0.4492     0.0207    44.0051 </r>
       <r>     0.6960     0.4823    44.1496 </r>
       <r>     0.9428     1.3527    44.5379 </r>
       <r>     1.1896     1.9844    45.2142 </r>
       <r>     1.4363     3.6932    46.7022 </r>
       <r>     1.6831     3.5602    48.2868 </r>
       <r>     1.9299     6.3438    50.5910 </r>
       <r>     2.1767     4.6111    52.1431 </r>
       <r>     2.4235     6.1825    54.5206 </r>
       <r>     2.6703     6.2588    56.7537 </r>
       <r>     2.9170     7.4448    59.6179 </r>
       <r>     3.1638     6.3899    62.1381 </r>
       <r>     3.4106     6.1600    64.8773 </r>
       <r>     3.6574     5.0790    66.8401 </r>
       <r>     3.9042     2.4872    67.8842 </r>
       <r>     4.1510     3.3313    69.1231 </r>
       <r>     4.3977     4.7126    70.6834 </r>
       <r>     4.6445     3.6687    72.0278 </r>
       <r>     4.8913     3.9957    73.4861 </r>
       <r>     5.1381     4.1757    74.9489 </r>
       <r>     5.3849     4.0053    76.2180 </r>
       <r>     5.6317     5.0463    78.0209 </r>
       <r>     5.8784     7.1482    80.4579 </r>
       <r>     6.1252     5.2188    82.7828 </r>
       <r>     6.3720     1.0170    83.3632 </r>
       <r>     6.6188     0.8481    83.7042 </r>
       <r>     6.8656     0.9775    84.1137 </r>
       <r>     7.1124     1.8500    84.7576 </r>
       <r>     7.3591     1.6218    85.5380 </r>
       <r>     7.6059     2.6719    86.5624 </r>
       <r>     7.8527     4.5877    88.0454 </r>
       <r>     8.0995     4.7237    90.0280 </r>
       <r>     8.3463     5.1695    91.9747 </r>
       <r>     8.5931     4.1484    93.7738 </r>
       <r>     8.8398     1.9105    94.6500 </r>
       <r>     9.0866     1.4882    95.2193 </r>
       <r>     9.3334     1.1772    95.7446 </r>
       <r>     9.5802     0.6687    95.9507 </r>
       <r>     9.8270     0.0413    96.0000 </r>
       <r>    10.0738     0.0000    96.0000 </r>
       <r>    10.3205     0.0000    96.0000 </r>
       <r>    10.5673     0.0000    96.0000 </r>
       <r>    10.8141     0.0000    96.0000 </r>
       <r>    11.0609     0.0000    96.0000 </r>
       <r>    11.3077     0.0000    96.0000 </r>
       <r>    11.5545     0.0000    96.0000 </r>
       <r>    11.8012     0.0000    96.0000 </r>
       <r>    12.0480     0.0000    96.0000 </r>
       <r>    12.2948     0.0000    96.0000 </r>
       <r>    12.5416     0.0000    96.0000 </r>
       <r>    12.7884     0.0000    96.0000 </r>
       <r>    13.0352     0.0000    96.0000 </r>
      </set>
     </set>
    </array>
   </total>
  </dos>
 </calculation>
 <structure name="finalpos" >
  <crystal>
   <varray name="basis" >
    <v>       5.47719441       0.00000000      -3.17284772 </v>
    <v>      -1.81959295       5.16611460      -3.17284772 </v>
    <v>       0.00000000       0.00000000       6.32982000 </v>
   </varray>
   <i name="volume">    179.10740946 </i>
   <varray name="rec_basis" >
    <v>       0.18257522       0.06430608       0.00000000 </v>
    <v>       0.00000000       0.19356907       0.00000000 </v>
    <v>       0.09151657       0.12926096       0.15798238 </v>
   </varray>
  </crystal>
  <varray name="positions" >
   <v>       0.74258000       0.24258000       0.98516000 </v>
   <v>       0.25742000       0.75742000       0.01484000 </v>
   <v>       0.24258000       0.25742000       0.50000000 </v>
   <v>       0.75742000       0.74258000       0.50000000 </v>
   <v>       0.50000000       0.00000000       0.50000000 </v>
   <v>       0.00000000       0.00000000       0.00000000 </v>
   <v>       0.00000000       0.50000000       0.50000000 </v>
   <v>       0.50000000       0.50000000       0.00000000 </v>
   <v>       0.25000000       0.25000000       0.00000000 </v>
   <v>       0.75000000       0.75000000       0.00000000 </v>
  </varray>
 </structure>
</modeling>
