<?xml version="1.0" encoding="ISO-8859-1"?>
<modeling>
 <generator>
  <i name="program" type="string">vasp </i>
  <i name="version" type="string">6.2.0  </i>
  <i name="subversion" type="string">18Jan21 (build Jan 05 2022 15:41:44) complex                          parallel </i>
  <i name="platform" type="string">LinuxIFC </i>
  <i name="date" type="string">2025 05 07 </i>
  <i name="time" type="string">17:22:20 </i>
 </generator>
 <incar>
  <i type="string" name="SYSTEM">routine with relax: pwdword</i>
  <i type="string" name="PREC">Acc</i>
  <i type="int" name="IALGO">    38</i>
  <i type="string" name="ALGO">A</i>
  <i type="logical" name="ADDGRID"> T  </i>
  <i type="int" name="ICHARG">     2</i>
  <i type="int" name="NELM">   100</i>
  <i type="int" name="NELMIN">     6</i>
  <i name="EDIFF">      0.00000000</i>
  <i type="int" name="NSW">     0</i>
  <i type="int" name="ISIF">    -1</i>
  <i name="ENCUT">    600.00000000</i>
  <i type="logical" name="LREAL"> F  </i>
  <i type="int" name="ISMEAR">     0</i>
  <i name="SIGMA">      0.02000000</i>
  <i type="logical" name="LASPH"> T  </i>
  <i type="string" name="METAGGA">R2SCAN</i>
  <i type="logical" name="LMIXTAU"> F  </i>
 </incar>
 <primitive_cell>
  <structure name="primitive_cell" >
   <crystal>
    <varray name="basis" >
     <v>      -3.83836158       2.62596950       0.00000000 </v>
     <v>       1.79652585       2.62596950       3.39200920 </v>
     <v>       1.79652585       2.62596950      -2.98440080 </v>
    </varray>
    <i name="volume">     94.35200988 </i>
    <varray name="rec_basis" >
     <v>      -0.17746583       0.12141114       0.00000000 </v>
     <v>       0.08306072       0.12140928       0.15682806 </v>
     <v>       0.09440512       0.13799131      -0.15682806 </v>
    </varray>
   </crystal>
   <varray name="positions" >
    <v>       0.00000000       0.00000000       0.50000000 </v>
    <v>       0.00000000       0.00000000       1.00000000 </v>
    <v>       0.50000000       0.00000000       0.50000000 </v>
    <v>       0.00000000       0.50000000       0.50000000 </v>
    <v>       0.50000000       0.50000000       0.50000000 </v>
   </varray>
  </structure>
  <varray name="primitive_index" >
   <v type="int" >        1 </v>
   <v type="int" >        3 </v>
   <v type="int" >        4 </v>
   <v type="int" >        5 </v>
   <v type="int" >        9 </v>
  </varray>
 </primitive_cell>
 <kpoints>
  <generation param="Gamma">
   <v type="int" name="divisions">       7        7        8 </v>
   <v name="usershift">      0.00000000       0.00000000       0.00000000 </v>
   <v name="genvec1">      0.14285714       0.00000000       0.00000000 </v>
   <v name="genvec2">      0.00000000       0.14285714       0.00000000 </v>
   <v name="genvec3">      0.00000000      -0.00000000       0.12500000 </v>
   <v name="shift">      0.00000000       0.00000000       0.00000000 </v>
  </generation>
  <varray name="kpointlist" >
   <v>       0.00000000       0.00000000       0.00000000 </v>
   <v>       0.14285714       0.00000000       0.00000000 </v>
   <v>       0.28571429       0.00000000       0.00000000 </v>
   <v>       0.42857143       0.00000000       0.00000000 </v>
   <v>       0.14285714       0.14285714       0.00000000 </v>
   <v>       0.28571429       0.14285714       0.00000000 </v>
   <v>       0.42857143       0.14285714       0.00000000 </v>
   <v>      -0.42857143       0.14285714       0.00000000 </v>
   <v>      -0.28571429       0.14285714       0.00000000 </v>
   <v>      -0.14285714       0.14285714       0.00000000 </v>
   <v>       0.28571429       0.28571429       0.00000000 </v>
   <v>       0.42857143       0.28571429       0.00000000 </v>
   <v>      -0.42857143       0.28571429       0.00000000 </v>
   <v>      -0.28571429       0.28571429       0.00000000 </v>
   <v>       0.42857143       0.42857143       0.00000000 </v>
   <v>      -0.42857143       0.42857143       0.00000000 </v>
   <v>       0.00000000       0.00000000       0.12500000 </v>
   <v>       0.14285714       0.00000000       0.12500000 </v>
   <v>       0.28571429      -0.00000000       0.12500000 </v>
   <v>       0.42857143      -0.00000000       0.12500000 </v>
   <v>      -0.42857143       0.00000000       0.12500000 </v>
   <v>      -0.28571429      -0.00000000       0.12500000 </v>
   <v>      -0.14285714      -0.00000000       0.12500000 </v>
   <v>       0.14285714       0.14285714       0.12500000 </v>
   <v>       0.28571429       0.14285714       0.12500000 </v>
   <v>       0.42857143       0.14285714       0.12500000 </v>
   <v>      -0.42857143       0.14285714       0.12500000 </v>
   <v>      -0.28571429       0.14285714       0.12500000 </v>
   <v>      -0.14285714       0.14285714       0.12500000 </v>
   <v>       0.28571429       0.28571429       0.12500000 </v>
   <v>       0.42857143       0.28571429       0.12500000 </v>
   <v>      -0.42857143       0.28571429       0.12500000 </v>
   <v>      -0.28571429       0.28571429       0.12500000 </v>
   <v>      -0.14285714       0.28571429       0.12500000 </v>
   <v>       0.42857143       0.42857143       0.12500000 </v>
   <v>      -0.42857143       0.42857143       0.12500000 </v>
   <v>      -0.28571429       0.42857143       0.12500000 </v>
   <v>      -0.14285714       0.42857143       0.12500000 </v>
   <v>      -0.42857143      -0.42857143       0.12500000 </v>
   <v>      -0.28571429      -0.42857143       0.12500000 </v>
   <v>      -0.14285714      -0.42857143       0.12500000 </v>
   <v>      -0.28571429      -0.28571429       0.12500000 </v>
   <v>      -0.14285714      -0.28571429       0.12500000 </v>
   <v>      -0.14285714      -0.14285714       0.12500000 </v>
   <v>       0.00000000       0.00000000       0.25000000 </v>
   <v>       0.14285714      -0.00000000       0.25000000 </v>
   <v>       0.28571429       0.00000000       0.25000000 </v>
   <v>       0.42857143      -0.00000000       0.25000000 </v>
   <v>      -0.42857143      -0.00000000       0.25000000 </v>
   <v>      -0.28571429       0.00000000       0.25000000 </v>
   <v>      -0.14285714      -0.00000000       0.25000000 </v>
   <v>       0.14285714       0.14285714       0.25000000 </v>
   <v>       0.28571429       0.14285714       0.25000000 </v>
   <v>       0.42857143       0.14285714       0.25000000 </v>
   <v>      -0.42857143       0.14285714       0.25000000 </v>
   <v>      -0.28571429       0.14285714       0.25000000 </v>
   <v>      -0.14285714       0.14285714       0.25000000 </v>
   <v>       0.28571429       0.28571429       0.25000000 </v>
   <v>       0.42857143       0.28571429       0.25000000 </v>
   <v>      -0.42857143       0.28571429       0.25000000 </v>
   <v>      -0.28571429       0.28571429       0.25000000 </v>
   <v>      -0.14285714       0.28571429       0.25000000 </v>
   <v>       0.42857143       0.42857143       0.25000000 </v>
   <v>      -0.42857143       0.42857143       0.25000000 </v>
   <v>      -0.28571429       0.42857143       0.25000000 </v>
   <v>      -0.14285714       0.42857143       0.25000000 </v>
   <v>      -0.42857143      -0.42857143       0.25000000 </v>
   <v>      -0.28571429      -0.42857143       0.25000000 </v>
   <v>      -0.14285714      -0.42857143       0.25000000 </v>
   <v>      -0.28571429      -0.28571429       0.25000000 </v>
   <v>      -0.14285714      -0.28571429       0.25000000 </v>
   <v>      -0.14285714      -0.14285714       0.25000000 </v>
   <v>      -0.00000000      -0.00000000       0.37500000 </v>
   <v>       0.14285714       0.00000000       0.37500000 </v>
   <v>       0.28571429      -0.00000000       0.37500000 </v>
   <v>       0.42857143      -0.00000000       0.37500000 </v>
   <v>      -0.42857143      -0.00000000       0.37500000 </v>
   <v>      -0.28571429      -0.00000000       0.37500000 </v>
   <v>      -0.14285714       0.00000000       0.37500000 </v>
   <v>       0.14285714       0.14285714       0.37500000 </v>
   <v>       0.28571429       0.14285714       0.37500000 </v>
   <v>       0.42857143       0.14285714       0.37500000 </v>
   <v>      -0.42857143       0.14285714       0.37500000 </v>
   <v>      -0.28571429       0.14285714       0.37500000 </v>
   <v>      -0.14285714       0.14285714       0.37500000 </v>
   <v>       0.28571429       0.28571429       0.37500000 </v>
   <v>       0.42857143       0.28571429       0.37500000 </v>
   <v>      -0.42857143       0.28571429       0.37500000 </v>
   <v>      -0.28571429       0.28571429       0.37500000 </v>
   <v>      -0.14285714       0.28571429       0.37500000 </v>
   <v>       0.42857143       0.42857143       0.37500000 </v>
   <v>      -0.42857143       0.42857143       0.37500000 </v>
   <v>      -0.28571429       0.42857143       0.37500000 </v>
   <v>      -0.14285714       0.42857143       0.37500000 </v>
   <v>      -0.42857143      -0.42857143       0.37500000 </v>
   <v>      -0.28571429      -0.42857143       0.37500000 </v>
   <v>      -0.14285714      -0.42857143       0.37500000 </v>
   <v>      -0.28571429      -0.28571429       0.37500000 </v>
   <v>      -0.14285714      -0.28571429       0.37500000 </v>
   <v>      -0.14285714      -0.14285714       0.37500000 </v>
   <v>       0.00000000       0.00000000       0.50000000 </v>
   <v>       0.14285714      -0.00000000       0.50000000 </v>
   <v>       0.28571429      -0.00000000       0.50000000 </v>
   <v>       0.42857143      -0.00000000       0.50000000 </v>
   <v>       0.14285714       0.14285714       0.50000000 </v>
   <v>       0.28571429       0.14285714       0.50000000 </v>
   <v>       0.42857143       0.14285714       0.50000000 </v>
   <v>      -0.42857143       0.14285714       0.50000000 </v>
   <v>      -0.28571429       0.14285714       0.50000000 </v>
   <v>      -0.14285714       0.14285714       0.50000000 </v>
   <v>       0.28571429       0.28571429       0.50000000 </v>
   <v>       0.42857143       0.28571429       0.50000000 </v>
   <v>      -0.42857143       0.28571429       0.50000000 </v>
   <v>      -0.28571429       0.28571429       0.50000000 </v>
   <v>       0.42857143       0.42857143       0.50000000 </v>
   <v>      -0.42857143       0.42857143       0.50000000 </v>
  </varray>
  <varray name="weights" >
   <v>       0.00255102 </v>
   <v>       0.01020408 </v>
   <v>       0.01020408 </v>
   <v>       0.01020408 </v>
   <v>       0.00510204 </v>
   <v>       0.01020408 </v>
   <v>       0.01020408 </v>
   <v>       0.01020408 </v>
   <v>       0.01020408 </v>
   <v>       0.00510204 </v>
   <v>       0.00510204 </v>
   <v>       0.01020408 </v>
   <v>       0.01020408 </v>
   <v>       0.00510204 </v>
   <v>       0.00510204 </v>
   <v>       0.00510204 </v>
   <v>       0.00510204 </v>
   <v>       0.01020408 </v>
   <v>       0.01020408 </v>
   <v>       0.01020408 </v>
   <v>       0.01020408 </v>
   <v>       0.01020408 </v>
   <v>       0.01020408 </v>
   <v>       0.00510204 </v>
   <v>       0.01020408 </v>
   <v>       0.01020408 </v>
   <v>       0.01020408 </v>
   <v>       0.01020408 </v>
   <v>       0.01020408 </v>
   <v>       0.00510204 </v>
   <v>       0.01020408 </v>
   <v>       0.01020408 </v>
   <v>       0.01020408 </v>
   <v>       0.01020408 </v>
   <v>       0.00510204 </v>
   <v>       0.01020408 </v>
   <v>       0.01020408 </v>
   <v>       0.01020408 </v>
   <v>       0.00510204 </v>
   <v>       0.01020408 </v>
   <v>       0.01020408 </v>
   <v>       0.00510204 </v>
   <v>       0.01020408 </v>
   <v>       0.00510204 </v>
   <v>       0.00510204 </v>
   <v>       0.01020408 </v>
   <v>       0.01020408 </v>
   <v>       0.01020408 </v>
   <v>       0.01020408 </v>
   <v>       0.01020408 </v>
   <v>       0.01020408 </v>
   <v>       0.00510204 </v>
   <v>       0.01020408 </v>
   <v>       0.01020408 </v>
   <v>       0.01020408 </v>
   <v>       0.01020408 </v>
   <v>       0.01020408 </v>
   <v>       0.00510204 </v>
   <v>       0.01020408 </v>
   <v>       0.01020408 </v>
   <v>       0.01020408 </v>
   <v>       0.01020408 </v>
   <v>       0.00510204 </v>
   <v>       0.01020408 </v>
   <v>       0.01020408 </v>
   <v>       0.01020408 </v>
   <v>       0.00510204 </v>
   <v>       0.01020408 </v>
   <v>       0.01020408 </v>
   <v>       0.00510204 </v>
   <v>       0.01020408 </v>
   <v>       0.00510204 </v>
   <v>       0.00510204 </v>
   <v>       0.01020408 </v>
   <v>       0.01020408 </v>
   <v>       0.01020408 </v>
   <v>       0.01020408 </v>
   <v>       0.01020408 </v>
   <v>       0.01020408 </v>
   <v>       0.00510204 </v>
   <v>       0.01020408 </v>
   <v>       0.01020408 </v>
   <v>       0.01020408 </v>
   <v>       0.01020408 </v>
   <v>       0.01020408 </v>
   <v>       0.00510204 </v>
   <v>       0.01020408 </v>
   <v>       0.01020408 </v>
   <v>       0.01020408 </v>
   <v>       0.01020408 </v>
   <v>       0.00510204 </v>
   <v>       0.01020408 </v>
   <v>       0.01020408 </v>
   <v>       0.01020408 </v>
   <v>       0.00510204 </v>
   <v>       0.01020408 </v>
   <v>       0.01020408 </v>
   <v>       0.00510204 </v>
   <v>       0.01020408 </v>
   <v>       0.00510204 </v>
   <v>       0.00255102 </v>
   <v>       0.01020408 </v>
   <v>       0.01020408 </v>
   <v>       0.01020408 </v>
   <v>       0.00510204 </v>
   <v>       0.01020408 </v>
   <v>       0.01020408 </v>
   <v>       0.01020408 </v>
   <v>       0.01020408 </v>
   <v>       0.00510204 </v>
   <v>       0.00510204 </v>
   <v>       0.01020408 </v>
   <v>       0.01020408 </v>
   <v>       0.00510204 </v>
   <v>       0.00510204 </v>
   <v>       0.00510204 </v>
  </varray>
 </kpoints>
 <parameters>
  <separator name="general" >
   <i type="string" name="SYSTEM">routine with relax: pwdword</i>
   <i type="logical" name="LCOMPAT"> F  </i>
  </separator>
  <separator name="electronic" >
   <i type="string" name="PREC">acc</i>
   <i name="ENMAX">    600.00000000</i>
   <i name="ENAUG">    535.51400000</i>
   <i name="EDIFF">      0.00000000</i>
   <i type="int" name="IALGO">    58</i>
   <i type="int" name="IWAVPR">    10</i>
   <i type="int" name="NBANDS">    60</i>
   <i type="int" name="NBANDSLOW">    -1</i>
   <i type="int" name="NBANDSHIGH">    -1</i>
   <i name="NELECT">     98.00000000</i>
   <i type="int" name="TURBO">     0</i>
   <i type="int" name="IRESTART">     0</i>
   <i type="int" name="NREBOOT">     0</i>
   <i type="int" name="NMIN">     0</i>
   <i name="EREF">      0.00000000</i>
   <separator name="electronic smearing" >
    <i type="int" name="ISMEAR">     0</i>
    <i name="SIGMA">      0.02000000</i>
    <i name="KSPACING">      0.50000000</i>
    <i type="logical" name="KGAMMA"> T  </i>
    <i type="logical" name="KBLOWUP"> F  </i>
   </separator>
   <separator name="electronic projectors" >
    <i type="logical" name="LREAL"> F  </i>
    <v name="ROPT">      0.00000000      0.00000000      0.00000000</v>
    <i type="int" name="LMAXPAW">  -100</i>
    <i type="int" name="LMAXMIX">     2</i>
    <i type="logical" name="NLSPLINE"> F  </i>
   </separator>
   <separator name="electronic startup" >
    <i type="int" name="ISTART">     0</i>
    <i type="int" name="ICHARG">     2</i>
    <i type="int" name="INIWAV">     1</i>
   </separator>
   <separator name="electronic spin" >
    <i type="int" name="ISPIN">     1</i>
    <i type="logical" name="LNONCOLLINEAR"> F  </i>
    <v name="MAGMOM">      1.00000000      1.00000000      1.00000000      1.00000000      1.00000000      1.00000000      1.00000000      1.00000000      1.00000000      1.00000000</v>
    <i name="NUPDOWN">     -1.00000000</i>
    <i type="logical" name="LSORBIT"> F  </i>
    <v name="SAXIS">      0.00000000      0.00000000      1.00000000</v>
    <i type="logical" name="LSPIRAL"> F  </i>
    <v name="QSPIRAL">      0.00000000      0.00000000      0.00000000</v>
    <i type="logical" name="LZEROZ"> F  </i>
   </separator>
   <separator name="electronic exchange-correlation" >
    <i type="logical" name="LASPH"> T  </i>
    <i type="logical" name="LMETAGGA"> F  </i>
   </separator>
   <separator name="electronic convergence" >
    <i type="int" name="NELM">   100</i>
    <i type="int" name="NELMDL">    -5</i>
    <i type="int" name="NELMIN">     6</i>
    <i name="ENINI">    600.00000000</i>
    <separator name="electronic convergence detail" >
     <i type="logical" name="LDIAG"> T  </i>
     <i type="logical" name="LSUBROT"> F  </i>
     <i name="WEIMIN">      0.00000000</i>
     <i name="EBREAK">      0.00000000</i>
     <i name="DEPER">      0.30000000</i>
     <i type="int" name="NRMM">     4</i>
     <i name="TIME">      0.40000000</i>
    </separator>
   </separator>
   <separator name="electronic mixer" >
    <i name="AMIX">      0.40000000</i>
    <i name="BMIX">      1.00000000</i>
    <i name="AMIN">      0.10000000</i>
    <i name="AMIX_MAG">      1.60000000</i>
    <i name="BMIX_MAG">      1.00000000</i>
    <separator name="electronic mixer details" >
     <i type="int" name="IMIX">     4</i>
     <i type="logical" name="MIXFIRST"> F  </i>
     <i type="int" name="MAXMIX">   -45</i>
     <i name="WC">    100.00000000</i>
     <i type="int" name="INIMIX">     1</i>
     <i type="int" name="MIXPRE">     1</i>
     <i type="int" name="MREMOVE">     5</i>
    </separator>
   </separator>
   <separator name="electronic dipolcorrection" >
    <i type="logical" name="LDIPOL"> F  </i>
    <i type="logical" name="LMONO"> F  </i>
    <i type="int" name="IDIPOL">     0</i>
    <i name="EPSILON">      1.00000000</i>
    <v name="DIPOL">   -100.00000000   -100.00000000   -100.00000000</v>
    <i name="EFIELD">      0.00000000</i>
   </separator>
  </separator>
  <separator name="grids" >
   <i type="int" name="NGX">    54</i>
   <i type="int" name="NGY">    54</i>
   <i type="int" name="NGZ">    54</i>
   <i type="int" name="NGXF">   108</i>
   <i type="int" name="NGYF">   108</i>
   <i type="int" name="NGZF">   108</i>
   <i type="logical" name="ADDGRID"> T  </i>
  </separator>
  <separator name="ionic" >
   <i type="int" name="NSW">     0</i>
   <i type="int" name="IBRION">    -1</i>
   <i type="int" name="MDALGO">     0</i>
   <i type="int" name="ISIF">    -1</i>
   <i name="PSTRESS">      0.00000000</i>
   <i name="EDIFFG">      0.00000001</i>
   <i type="int" name="NFREE">     0</i>
   <i name="POTIM">      0.50000000</i>
   <i name="SMASS">     -3.00000000</i>
   <i name="SCALEE">      1.00000000</i>
  </separator>
  <separator name="ionic md" >
   <i name="TEBEG">      0.00010000</i>
   <i name="TEEND">      0.00010000</i>
   <i type="int" name="NBLOCK">     1</i>
   <i type="int" name="KBLOCK">     1</i>
   <i type="int" name="NPACO">   256</i>
   <i name="APACO">     16.00000000</i>
  </separator>
  <separator name="symmetry" >
   <i type="int" name="ISYM">     2</i>
   <i name="SYMPREC">      0.00001000</i>
  </separator>
  <separator name="dos" >
   <i type="int" name="LORBIT">     0</i>
   <v name="RWIGS">     -1.00000000     -1.00000000     -1.00000000</v>
   <i type="int" name="NEDOS">   301</i>
   <i name="EMIN">     10.00000000</i>
   <i name="EMAX">    -10.00000000</i>
   <i name="EFERMI">      0.00000000</i>
  </separator>
  <separator name="writing" >
   <i type="int" name="NWRITE">     2</i>
   <i type="logical" name="LWAVE"> T  </i>
   <i type="logical" name="LDOWNSAMPLE"> F  </i>
   <i type="logical" name="LCHARG"> T  </i>
   <i type="logical" name="LPARD"> F  </i>
   <i type="logical" name="LVTOT"> F  </i>
   <i type="logical" name="LVHAR"> F  </i>
   <i type="logical" name="LELF"> F  </i>
   <i type="logical" name="LOPTICS"> F  </i>
   <v name="STM">      0.00000000      0.00000000      0.00000000      0.00000000      0.00000000      0.00000000      0.00000000</v>
  </separator>
  <separator name="performance" >
   <i type="int" name="NPAR">     6</i>
   <i type="int" name="NSIM">     4</i>
   <i type="int" name="NBLK">    -1</i>
   <i type="logical" name="LPLANE"> T  </i>
   <i type="logical" name="LSCALAPACK"> T  </i>
   <i type="logical" name="LSCAAWARE"> F  </i>
   <i type="logical" name="LSCALU"> F  </i>
   <i type="logical" name="LASYNC"> F  </i>
   <i type="logical" name="LORBITALREAL"> F  </i>
  </separator>
  <separator name="miscellaneous" >
   <i type="int" name="IDIOT">     3</i>
   <i type="int" name="PHON_NSTRUCT">    -1</i>
   <i type="logical" name="LMUSIC"> F  </i>
   <v name="POMASS">     10.81100000     95.94000000     28.08500000</v>
   <v name="DARWINR">      0.00000000      0.00000000      0.00000000</v>
   <v name="DARWINV">      1.00000000      1.00000000      1.00000000</v>
   <i type="logical" name="LCORR"> T  </i>
  </separator>
  <i type="logical" name="GGA_COMPAT"> T  </i>
  <i type="logical" name="LBERRY"> F  </i>
  <i type="int" name="ICORELEVEL">     0</i>
  <i type="logical" name="LDAU"> F  </i>
  <i type="int" name="I_CONSTRAINED_M">     0</i>
  <separator name="electronic exchange-correlation" >
   <i type="string" name="GGA">--</i>
   <i type="int" name="VOSKOWN">     0</i>
   <i type="logical" name="LHFCALC"> F  </i>
   <i type="string" name="PRECFOCK"></i>
   <i type="logical" name="LSYMGRAD"> F  </i>
   <i type="logical" name="LHFONE"> F  </i>
   <i type="logical" name="LRHFCALC"> F  </i>
   <i type="logical" name="LTHOMAS"> F  </i>
   <i type="logical" name="LMODELHF"> F  </i>
   <i type="logical" name="LFOCKACE"> F  </i>
   <i name="ENCUT4O">     -1.00000000</i>
   <i type="int" name="EXXOEP">     0</i>
   <i type="int" name="FOURORBIT">     0</i>
   <i name="AEXX">      0.00000000</i>
   <i name="HFALPHA">      0.00000000</i>
   <i name="MCALPHA">      0.00000000</i>
   <i name="ALDAX">      1.00000000</i>
   <i name="AGGAX">      1.00000000</i>
   <i name="ALDAC">      1.00000000</i>
   <i name="AGGAC">      1.00000000</i>
   <i type="int" name="NKREDX">     1</i>
   <i type="int" name="NKREDY">     1</i>
   <i type="int" name="NKREDZ">     1</i>
   <i type="logical" name="SHIFTRED"> F  </i>
   <i type="logical" name="ODDONLY"> F  </i>
   <i type="logical" name="EVENONLY"> F  </i>
   <i type="int" name="LMAXFOCK">     0</i>
   <i type="int" name="NMAXFOCKAE">     0</i>
   <i type="logical" name="LFOCKAEDFT"> F  </i>
   <i name="HFSCREEN">      0.00000000</i>
   <i name="HFSCREENC">      0.00000000</i>
   <i type="int" name="NBANDSGWLOW">     0</i>
  </separator>
  <separator name="vdW DFT" >
   <i type="logical" name="LUSE_VDW"> F  </i>
   <i name="Zab_VDW">     -0.84910000</i>
   <i name="PARAM1">      0.12340000</i>
   <i name="PARAM2">      1.00000000</i>
   <i name="PARAM3">      0.00000000</i>
  </separator>
  <separator name="model GW" >
   <i type="int" name="MODEL_GW">     0</i>
   <i name="MODEL_EPS0">     11.32224119</i>
   <i name="MODEL_ALPHA">      1.00000000</i>
  </separator>
  <separator name="linear response parameters" >
   <i type="logical" name="LEPSILON"> F  </i>
   <i type="logical" name="LRPA"> F  </i>
   <i type="logical" name="LNABLA"> F  </i>
   <i type="logical" name="LVEL"> F  </i>
   <i type="int" name="KINTER">     0</i>
   <i name="CSHIFT">      0.10000000</i>
   <i name="OMEGAMAX">     -1.00000000</i>
   <i name="DEG_THRESHOLD">      0.00200000</i>
   <i name="RTIME">     -0.10000000</i>
   <i name="WPLASMAI">      0.00000000</i>
   <v name="DFIELD">      0.00000000      0.00000000      0.00000000</v>
   <v name="WPLASMA">      0.00000000      0.00000000      0.00000000      0.00000000      0.00000000      0.00000000      0.00000000      0.00000000      0.00000000</v>
  </separator>
  <separator name="orbital magnetization" >
   <i type="logical" name="NUCIND"> F  </i>
   <v name="MAGPOS">      0.00000000      0.00000000      0.00000000</v>
   <i type="logical" name="LNICSALL"> T  </i>
   <i type="logical" name="ORBITALMAG"> F  </i>
   <i type="logical" name="LMAGBLOCH"> F  </i>
   <i type="logical" name="LCHIMAG"> F  </i>
   <i type="logical" name="LGAUGE"> T  </i>
   <i type="int" name="MAGATOM">     0</i>
   <v name="MAGDIPOL">      0.00000000      0.00000000      0.00000000</v>
   <v name="AVECCONST">      0.00000000      0.00000000      0.00000000</v>
  </separator>
  <separator name="response functions" >
   <i type="logical" name="LFINITE_TEMPERATURE"> F  </i>
   <i type="logical" name="LADDER"> F  </i>
   <i type="logical" name="LRPAFORCE"> F  </i>
   <i type="logical" name="LFXC"> F  </i>
   <i type="logical" name="LHARTREE"> T  </i>
   <i type="int" name="IBSE">     0</i>
   <v type="int" name="KPOINT">    -1     0     0     0</v>
   <i type="logical" name="LTCTC"> F  </i>
   <i type="logical" name="LTCTE"> F  </i>
   <i type="logical" name="LTETE"> F  </i>
   <i type="logical" name="LTRIPLET"> F  </i>
   <i type="logical" name="LFXCEPS"> F  </i>
   <i type="logical" name="LFXHEG"> F  </i>
   <i type="int" name="NATURALO">     2</i>
   <i type="logical" name="LHOLEGF"> F  </i>
   <i type="logical" name="L2ORDER"> F  </i>
   <i type="logical" name="LDMP1"> F  </i>
   <i type="logical" name="LMP2LT"> F  </i>
   <i type="logical" name="LSMP2LT"> F  </i>
   <i type="logical" name="LGWLF"> F  </i>
   <i name="ENCUTGW">     -2.00000000</i>
   <i name="ENCUTGWSOFT">     -2.00000000</i>
   <i name="ENCUTLF">     -1.00000000</i>
   <i type="logical" name="LESF_SPLINES"> F  </i>
   <i type="int" name="LMAXMP2">    -1</i>
   <i name="SCISSOR">      0.00000000</i>
   <i type="int" name="NOMEGA">     0</i>
   <i type="int" name="NOMEGAR">     0</i>
   <i type="int" name="NBANDSGW">    -1</i>
   <i type="int" name="NBANDSO">    -1</i>
   <i type="int" name="NBANDSV">    -1</i>
   <i type="int" name="NELM">   100</i>
   <i type="int" name="NELMHF">     1</i>
   <i type="int" name="DIM">     3</i>
   <i type="int" name="IESPILON">     4</i>
   <i type="int" name="ANTIRES">     0</i>
   <i name="OMEGAMAX">    -30.00000000</i>
   <i name="OMEGAMIN">    -30.00000000</i>
   <i name="OMEGATL">   -200.00000000</i>
   <i type="int" name="OMEGAGRID">     0</i>
   <i name="CSHIFT">     -0.10000000</i>
   <i type="logical" name="LSELFENERGY"> F  </i>
   <i type="logical" name="LSPECTRAL"> F  </i>
   <i type="logical" name="LSPECTRALGW"> F  </i>
   <i type="logical" name="LSINGLES"> F  </i>
   <i type="logical" name="LFERMIGW"> F  </i>
   <i type="logical" name="ODDONLYGW"> F  </i>
   <i type="logical" name="EVENONLYGW"> F  </i>
   <i type="int" name="NKREDLFX">     1</i>
   <i type="int" name="NKREDLFY">     1</i>
   <i type="int" name="NKREDLFZ">     1</i>
   <i type="int" name="MAXMEM">  2800</i>
   <i type="int" name="TELESCOPE">     0</i>
   <i type="int" name="NTAUPAR">    -1</i>
   <i type="int" name="NOMEGAPAR">    -1</i>
   <i name="DAMP_NEWTON">      0.80000001</i>
   <i name="LAMBDA">      1.00000000</i>
  </separator>
  <separator name="External order field" >
   <i name="OFIELD_KAPPA">      0.00000000</i>
   <v name="OFIELD_K">      0.00000000      0.00000000      0.00000000</v>
   <i name="OFIELD_Q6_NEAR">      0.00000000</i>
   <i name="OFIELD_Q6_FAR">      0.00000000</i>
   <i name="OFIELD_A">      0.00000000</i>
  </separator>
 </parameters>
 <atominfo>
  <atoms>      10 </atoms>
  <types>       3 </types>
  <array name="atoms" >
   <dimension dim="1">ion</dimension>
   <field type="string">element</field>
   <field type="int">atomtype</field>
   <set>
    <rc><c>B </c><c>   1</c></rc>
    <rc><c>B </c><c>   1</c></rc>
    <rc><c>Mo</c><c>   2</c></rc>
    <rc><c>Mo</c><c>   2</c></rc>
    <rc><c>Mo</c><c>   2</c></rc>
    <rc><c>Mo</c><c>   2</c></rc>
    <rc><c>Mo</c><c>   2</c></rc>
    <rc><c>Mo</c><c>   2</c></rc>
    <rc><c>Si</c><c>   3</c></rc>
    <rc><c>Si</c><c>   3</c></rc>
   </set>
  </array>
  <array name="atomtypes" >
   <dimension dim="1">type</dimension>
   <field type="int">atomspertype</field>
   <field type="string">element</field>
   <field>mass</field>
   <field>valence</field>
   <field type="string">pseudopotential</field>
   <set>
    <rc><c>   2</c><c>B </c><c>     10.81100000</c><c>      3.00000000</c><c>  PAW_PBE B 06Sep2000                   </c></rc>
    <rc><c>   6</c><c>Mo</c><c>     95.94000000</c><c>     14.00000000</c><c>  PAW_PBE Mo_sv 02Feb2006               </c></rc>
    <rc><c>   2</c><c>Si</c><c>     28.08500000</c><c>      4.00000000</c><c>  PAW_PBE Si 05Jan2001                  </c></rc>
   </set>
  </array>
 </atominfo>
 <structure name="initialpos" >
  <crystal>
   <varray name="basis" >
    <v>       5.63488743       0.00000000      -2.98440080 </v>
    <v>      -2.04183572       5.25193900      -2.98440080 </v>
    <v>       0.00000000       0.00000000       6.37641000 </v>
   </varray>
   <i name="volume">    188.70401977 </i>
   <varray name="rec_basis" >
    <v>       0.17746583       0.06899472       0.00000000 </v>
    <v>       0.00000000       0.19040587       0.00000000 </v>
    <v>       0.08306072       0.12140928       0.15682806 </v>
   </varray>
  </crystal>
  <varray name="positions" >
   <v>       0.25000000       0.25000000       0.00000000 </v>
   <v>       0.75000000       0.75000000       0.00000000 </v>
   <v>       0.50000000       0.50000000       0.00000000 </v>
   <v>       0.50000000       0.00000000       0.00000000 </v>
   <v>       0.00000000       0.00000000       0.50000000 </v>
   <v>       0.00000000       0.50000000       0.00000000 </v>
   <v>       0.50000000       0.50000000       0.50000000 </v>
   <v>       0.00000000       0.00000000       0.00000000 </v>
   <v>       0.75000000       0.25000000       0.50000000 </v>
   <v>       0.25000000       0.75000000       0.50000000 </v>
  </varray>
 </structure>
 <calculation>
  <scstep>
   <time name="total">   30.59   30.90</time>
   <energy>
    <i name="alphaZ">    442.72742974 </i>
    <i name="ewald">  -8184.62693863 </i>
    <i name="hartreedc">  -3032.65849754 </i>
    <i name="XCdc">    460.17119863 </i>
    <i name="pawpsdc">   9166.97638771 </i>
    <i name="pawaedc">  -9126.13493418 </i>
    <i name="eentropy">     -0.00075737 </i>
    <i name="bandstr">   -252.73954016 </i>
    <i name="atom">  11522.16744521 </i>
    <i name="e_fr_energy">    995.88179342 </i>
    <i name="e_wo_entrp">    995.88255079 </i>
    <i name="e_0_energy">    995.88217210 </i>
   </energy>
  </scstep>
  <scstep>
   <time name="total">   33.37   34.05</time>
   <energy>
    <i name="e_fr_energy">   -174.47325903 </i>
    <i name="e_wo_entrp">   -174.47171181 </i>
    <i name="e_0_energy">   -174.47248542 </i>
   </energy>
  </scstep>
  <scstep>
   <time name="total">   38.84   39.67</time>
   <energy>
    <i name="e_fr_energy">   -223.10281641 </i>
    <i name="e_wo_entrp">   -223.10004499 </i>
    <i name="e_0_energy">   -223.10143070 </i>
   </energy>
  </scstep>
  <scstep>
   <time name="total">   36.76   37.57</time>
   <energy>
    <i name="e_fr_energy">   -224.48845467 </i>
    <i name="e_wo_entrp">   -224.48547927 </i>
    <i name="e_0_energy">   -224.48696697 </i>
   </energy>
  </scstep>
  <scstep>
   <time name="total">   39.36   40.15</time>
   <energy>
    <i name="e_fr_energy">   -224.52887571 </i>
    <i name="e_wo_entrp">   -224.52592766 </i>
    <i name="e_0_energy">   -224.52740169 </i>
   </energy>
  </scstep>
  <scstep>
   <time name="total">   37.13   37.56</time>
   <energy>
    <i name="e_fr_energy">   -152.90003080 </i>
    <i name="e_wo_entrp">   -152.89754315 </i>
    <i name="e_0_energy">   -152.89878697 </i>
   </energy>
  </scstep>
  <scstep>
   <time name="total">   44.76   45.20</time>
   <energy>
    <i name="e_fr_energy">   -172.15000439 </i>
    <i name="e_wo_entrp">   -172.14685680 </i>
    <i name="e_0_energy">   -172.14843060 </i>
   </energy>
  </scstep>
  <scstep>
   <time name="total">   44.52   45.06</time>
   <energy>
    <i name="e_fr_energy">   -176.58434531 </i>
    <i name="e_wo_entrp">   -176.58117730 </i>
    <i name="e_0_energy">   -176.58276131 </i>
   </energy>
  </scstep>
  <scstep>
   <time name="total">   45.64   46.18</time>
   <energy>
    <i name="e_fr_energy">   -177.75960994 </i>
    <i name="e_wo_entrp">   -177.75675427 </i>
    <i name="e_0_energy">   -177.75818210 </i>
   </energy>
  </scstep>
  <scstep>
   <time name="total">   46.13   46.93</time>
   <energy>
    <i name="e_fr_energy">   -178.20501042 </i>
    <i name="e_wo_entrp">   -178.20233884 </i>
    <i name="e_0_energy">   -178.20367463 </i>
   </energy>
  </scstep>
  <scstep>
   <time name="total">   45.32   45.86</time>
   <energy>
    <i name="e_fr_energy">   -178.41674751 </i>
    <i name="e_wo_entrp">   -178.41431336 </i>
    <i name="e_0_energy">   -178.41553043 </i>
   </energy>
  </scstep>
  <scstep>
   <time name="total">   44.96   45.36</time>
   <energy>
    <i name="e_fr_energy">   -178.50312033 </i>
    <i name="e_wo_entrp">   -178.50060209 </i>
    <i name="e_0_energy">   -178.50186121 </i>
   </energy>
  </scstep>
  <scstep>
   <time name="total">   43.87   44.46</time>
   <energy>
    <i name="e_fr_energy">   -178.55169649 </i>
    <i name="e_wo_entrp">   -178.54924487 </i>
    <i name="e_0_energy">   -178.55047068 </i>
   </energy>
  </scstep>
  <scstep>
   <time name="total">   44.28   44.92</time>
   <energy>
    <i name="e_fr_energy">   -178.57988544 </i>
    <i name="e_wo_entrp">   -178.57759270 </i>
    <i name="e_0_energy">   -178.57873907 </i>
   </energy>
  </scstep>
  <scstep>
   <time name="total">   46.14   46.83</time>
   <energy>
    <i name="e_fr_energy">   -178.59675814 </i>
    <i name="e_wo_entrp">   -178.59444694 </i>
    <i name="e_0_energy">   -178.59560254 </i>
   </energy>
  </scstep>
  <scstep>
   <time name="total">   46.24   46.91</time>
   <energy>
    <i name="e_fr_energy">   -178.60918235 </i>
    <i name="e_wo_entrp">   -178.60687357 </i>
    <i name="e_0_energy">   -178.60802796 </i>
   </energy>
  </scstep>
  <scstep>
   <time name="total">   45.35   45.91</time>
   <energy>
    <i name="e_fr_energy">   -178.61506835 </i>
    <i name="e_wo_entrp">   -178.61273050 </i>
    <i name="e_0_energy">   -178.61389942 </i>
   </energy>
  </scstep>
  <scstep>
   <time name="total">   44.04   44.43</time>
   <energy>
    <i name="e_fr_energy">   -178.61839304 </i>
    <i name="e_wo_entrp">   -178.61605507 </i>
    <i name="e_0_energy">   -178.61722405 </i>
   </energy>
  </scstep>
  <scstep>
   <time name="total">   44.60   45.28</time>
   <energy>
    <i name="e_fr_energy">   -178.62025782 </i>
    <i name="e_wo_entrp">   -178.61791182 </i>
    <i name="e_0_energy">   -178.61908482 </i>
   </energy>
  </scstep>
  <scstep>
   <time name="total">   45.52   45.93</time>
   <energy>
    <i name="e_fr_energy">   -178.62124854 </i>
    <i name="e_wo_entrp">   -178.61891098 </i>
    <i name="e_0_energy">   -178.62007976 </i>
   </energy>
  </scstep>
  <scstep>
   <time name="total">   44.63   45.23</time>
   <energy>
    <i name="e_fr_energy">   -178.62181000 </i>
    <i name="e_wo_entrp">   -178.61947365 </i>
    <i name="e_0_energy">   -178.62064182 </i>
   </energy>
  </scstep>
  <scstep>
   <time name="total">   44.65   45.31</time>
   <energy>
    <i name="e_fr_energy">   -178.62216763 </i>
    <i name="e_wo_entrp">   -178.61983891 </i>
    <i name="e_0_energy">   -178.62100327 </i>
   </energy>
  </scstep>
  <scstep>
   <time name="total">   43.82   44.52</time>
   <energy>
    <i name="e_fr_energy">   -178.62234607 </i>
    <i name="e_wo_entrp">   -178.62001894 </i>
    <i name="e_0_energy">   -178.62118251 </i>
   </energy>
  </scstep>
  <scstep>
   <time name="total">   45.00   45.65</time>
   <energy>
    <i name="e_fr_energy">   -178.62243570 </i>
    <i name="e_wo_entrp">   -178.62011335 </i>
    <i name="e_0_energy">   -178.62127453 </i>
   </energy>
  </scstep>
  <scstep>
   <time name="total">   46.52   47.32</time>
   <energy>
    <i name="e_fr_energy">   -178.62249087 </i>
    <i name="e_wo_entrp">   -178.62016940 </i>
    <i name="e_0_energy">   -178.62133013 </i>
   </energy>
  </scstep>
  <scstep>
   <time name="total">   44.82   45.70</time>
   <energy>
    <i name="e_fr_energy">   -178.62251852 </i>
    <i name="e_wo_entrp">   -178.62019902 </i>
    <i name="e_0_energy">   -178.62135877 </i>
   </energy>
  </scstep>
  <scstep>
   <time name="total">   45.64   46.36</time>
   <energy>
    <i name="e_fr_energy">   -178.62253434 </i>
    <i name="e_wo_entrp">   -178.62021476 </i>
    <i name="e_0_energy">   -178.62137455 </i>
   </energy>
  </scstep>
  <scstep>
   <time name="total">   43.90   44.40</time>
   <energy>
    <i name="e_fr_energy">   -178.62254425 </i>
    <i name="e_wo_entrp">   -178.62022530 </i>
    <i name="e_0_energy">   -178.62138477 </i>
   </energy>
  </scstep>
  <scstep>
   <time name="total">   45.29   46.00</time>
   <energy>
    <i name="e_fr_energy">   -178.62254926 </i>
    <i name="e_wo_entrp">   -178.62022984 </i>
    <i name="e_0_energy">   -178.62138955 </i>
   </energy>
  </scstep>
  <scstep>
   <time name="total">   44.06   44.52</time>
   <energy>
    <i name="e_fr_energy">   -178.62255267 </i>
    <i name="e_wo_entrp">   -178.62023327 </i>
    <i name="e_0_energy">   -178.62139297 </i>
   </energy>
  </scstep>
  <scstep>
   <time name="total">   43.88   44.40</time>
   <energy>
    <i name="e_fr_energy">   -178.62255460 </i>
    <i name="e_wo_entrp">   -178.62023475 </i>
    <i name="e_0_energy">   -178.62139468 </i>
   </energy>
  </scstep>
  <scstep>
   <time name="total">   43.87   44.27</time>
   <energy>
    <i name="e_fr_energy">   -178.62255570 </i>
    <i name="e_wo_entrp">   -178.62023581 </i>
    <i name="e_0_energy">   -178.62139575 </i>
   </energy>
  </scstep>
  <scstep>
   <time name="total">   44.91   45.35</time>
   <energy>
    <i name="e_fr_energy">   -178.62255638 </i>
    <i name="e_wo_entrp">   -178.62023619 </i>
    <i name="e_0_energy">   -178.62139629 </i>
   </energy>
  </scstep>
  <scstep>
   <time name="total">   46.73   47.73</time>
   <energy>
    <i name="e_fr_energy">   -178.62255679 </i>
    <i name="e_wo_entrp">   -178.62023665 </i>
    <i name="e_0_energy">   -178.62139672 </i>
   </energy>
  </scstep>
  <scstep>
   <time name="total">   44.87   45.43</time>
   <energy>
    <i name="e_fr_energy">   -178.62255700 </i>
    <i name="e_wo_entrp">   -178.62023675 </i>
    <i name="e_0_energy">   -178.62139688 </i>
   </energy>
  </scstep>
  <scstep>
   <time name="total">   46.48   46.96</time>
   <energy>
    <i name="e_fr_energy">   -178.62255715 </i>
    <i name="e_wo_entrp">   -178.62023695 </i>
    <i name="e_0_energy">   -178.62139705 </i>
   </energy>
  </scstep>
  <scstep>
   <time name="total">   43.78   44.25</time>
   <energy>
    <i name="e_fr_energy">   -178.62255721 </i>
    <i name="e_wo_entrp">   -178.62023697 </i>
    <i name="e_0_energy">   -178.62139709 </i>
   </energy>
  </scstep>
  <scstep>
   <time name="total">   46.95   47.72</time>
   <energy>
    <i name="e_fr_energy">   -178.62255724 </i>
    <i name="e_wo_entrp">   -178.62023705 </i>
    <i name="e_0_energy">   -178.62139714 </i>
   </energy>
  </scstep>
  <scstep>
   <time name="total">   45.02   45.63</time>
   <energy>
    <i name="e_fr_energy">   -178.62255728 </i>
    <i name="e_wo_entrp">   -178.62023712 </i>
    <i name="e_0_energy">   -178.62139720 </i>
   </energy>
  </scstep>
  <scstep>
   <time name="total">   45.13   45.53</time>
   <energy>
    <i name="e_fr_energy">   -178.62255729 </i>
    <i name="e_wo_entrp">   -178.62023710 </i>
    <i name="e_0_energy">   -178.62139720 </i>
   </energy>
  </scstep>
  <scstep>
   <time name="total">   46.88   47.68</time>
   <energy>
    <i name="e_fr_energy">   -178.62255730 </i>
    <i name="e_wo_entrp">   -178.62023715 </i>
    <i name="e_0_energy">   -178.62139722 </i>
   </energy>
  </scstep>
  <scstep>
   <time name="total">   44.39   45.05</time>
   <energy>
    <i name="e_fr_energy">   -178.62255731 </i>
    <i name="e_wo_entrp">   -178.62023717 </i>
    <i name="e_0_energy">   -178.62139724 </i>
   </energy>
  </scstep>
  <scstep>
   <time name="total">   46.94   47.65</time>
   <energy>
    <i name="e_fr_energy">   -178.62255731 </i>
    <i name="e_wo_entrp">   -178.62023717 </i>
    <i name="e_0_energy">   -178.62139724 </i>
   </energy>
  </scstep>
  <scstep>
   <time name="total">   46.49   47.14</time>
   <energy>
    <i name="e_fr_energy">   -178.62255731 </i>
    <i name="e_wo_entrp">   -178.62023717 </i>
    <i name="e_0_energy">   -178.62139724 </i>
   </energy>
  </scstep>
  <scstep>
   <time name="total">   52.64   53.12</time>
   <energy>
    <i name="alphaZ">    442.72742974 </i>
    <i name="ewald">  -8184.62693863 </i>
    <i name="hartreedc">  -2892.15510883 </i>
    <i name="XCdc">    467.51838190 </i>
    <i name="pawpsdc">  11313.11857482 </i>
    <i name="pawaedc"> -11290.24977872 </i>
    <i name="eentropy">     -0.00232014 </i>
    <i name="bandstr">  -1557.12024265 </i>
    <i name="atom">  11522.16744521 </i>
    <i name="e_fr_energy">   -178.62255731 </i>
    <i name="e_wo_entrp">   -178.62023717 </i>
    <i name="e_0_energy">   -178.62139724 </i>
   </energy>
  </scstep>
  <structure>
   <crystal>
    <varray name="basis" >
     <v>       5.63488743       0.00000000      -2.98440080 </v>
     <v>      -2.04183572       5.25193900      -2.98440080 </v>
     <v>       0.00000000       0.00000000       6.37641000 </v>
    </varray>
    <i name="volume">    188.70401977 </i>
    <varray name="rec_basis" >
     <v>       0.17746583       0.06899472       0.00000000 </v>
     <v>       0.00000000       0.19040587       0.00000000 </v>
     <v>       0.08306072       0.12140928       0.15682806 </v>
    </varray>
   </crystal>
   <varray name="positions" >
    <v>       0.25000000       0.25000000       0.00000000 </v>
    <v>       0.75000000       0.75000000       0.00000000 </v>
    <v>       0.50000000       0.50000000       0.00000000 </v>
    <v>       0.50000000       0.00000000       0.00000000 </v>
    <v>       0.00000000       0.00000000       0.50000000 </v>
    <v>       0.00000000       0.50000000       0.00000000 </v>
    <v>       0.50000000       0.50000000       0.50000000 </v>
    <v>       0.00000000       0.00000000       0.00000000 </v>
    <v>       0.75000000       0.25000000       0.50000000 </v>
    <v>       0.25000000       0.75000000       0.50000000 </v>
   </varray>
  </structure>
  <varray name="forces" >
   <v>       0.00000000       0.00000000       0.00000000 </v>
   <v>       0.00000000       0.00000000       0.00000000 </v>
   <v>       0.00000000       0.00000000       0.00000000 </v>
   <v>       0.00000000       0.00000000       0.00000000 </v>
   <v>       0.00000000       0.00000000       0.00000000 </v>
   <v>       0.00000000       0.00000000       0.00000000 </v>
   <v>       0.00000000       0.00000000       0.00000000 </v>
   <v>       0.00000000       0.00000000       0.00000000 </v>
   <v>       0.00000000       0.00000000       0.00000000 </v>
   <v>       0.00000000       0.00000000       0.00000000 </v>
  </varray>
  <varray name="stress" >
   <v>       0.00000000       0.00000000       0.00000000 </v>
   <v>       0.00000000       0.00000000       0.00000000 </v>
   <v>       0.00000000       0.00000000       0.00000000 </v>
  </varray>
  <energy>
   <i name="e_fr_energy">   -178.62255731 </i>
   <i name="e_wo_entrp">   -178.62023717 </i>
   <i name="e_0_energy">   -178.62139724 </i>
  </energy>
  <time name="totalsc"> 1990.27 2017.71</time>
  <eigenvalues>
   <array>
    <dimension dim="1">band</dimension>
    <dimension dim="2">kpoint</dimension>
    <dimension dim="3">spin</dimension>
    <field>eigene</field>
    <field>occ</field>
    <set>
     <set comment="spin 1">
      <set comment="kpoint 1">
       <r>  -56.2619    1.0000 </r>
       <r>  -56.2589    1.0000 </r>
       <r>  -56.0126    1.0000 </r>
       <r>  -56.0007    1.0000 </r>
       <r>  -56.0007    1.0000 </r>
       <r>  -55.9868    1.0000 </r>
       <r>  -29.7226    1.0000 </r>
       <r>  -29.7097    1.0000 </r>
       <r>  -29.6906    1.0000 </r>
       <r>  -29.6905    1.0000 </r>
       <r>  -29.6480    1.0000 </r>
       <r>  -29.6479    1.0000 </r>
       <r>  -29.5885    1.0000 </r>
       <r>  -29.5662    1.0000 </r>
       <r>  -29.5661    1.0000 </r>
       <r>  -29.4628    1.0000 </r>
       <r>  -29.3129    1.0000 </r>
       <r>  -29.3128    1.0000 </r>
       <r>  -29.3008    1.0000 </r>
       <r>  -29.2715    1.0000 </r>
       <r>  -29.2174    1.0000 </r>
       <r>  -29.2035    1.0000 </r>
       <r>  -29.2035    1.0000 </r>
       <r>  -29.1935    1.0000 </r>
       <r>   -3.3663    1.0000 </r>
       <r>   -1.7749    1.0000 </r>
       <r>    0.1660    1.0000 </r>
       <r>    0.8799    1.0000 </r>
       <r>    1.0137    1.0000 </r>
       <r>    1.0137    1.0000 </r>
       <r>    1.8016    1.0000 </r>
       <r>    2.7625    1.0000 </r>
       <r>    2.9934    1.0000 </r>
       <r>    2.9934    1.0000 </r>
       <r>    3.6168    1.0000 </r>
       <r>    3.9294    1.0000 </r>
       <r>    4.2620    1.0000 </r>
       <r>    4.2620    1.0000 </r>
       <r>    4.6734    1.0000 </r>
       <r>    5.0568    1.0000 </r>
       <r>    5.0568    1.0000 </r>
       <r>    5.7293    1.0000 </r>
       <r>    6.0275    1.0000 </r>
       <r>    6.1007    1.0000 </r>
       <r>    6.4370    1.0000 </r>
       <r>    6.7622    1.0000 </r>
       <r>    6.7623    1.0000 </r>
       <r>    6.8063    1.0000 </r>
       <r>    6.8063    1.0000 </r>
       <r>    7.5055    0.0000 </r>
       <r>    7.5934    0.0000 </r>
       <r>    7.7333    0.0000 </r>
       <r>    7.8411    0.0000 </r>
       <r>    7.9875    0.0000 </r>
       <r>    7.9875    0.0000 </r>
       <r>    8.4567    0.0000 </r>
       <r>    8.4598    0.0000 </r>
       <r>    8.7049    0.0000 </r>
       <r>    9.0967    0.0000 </r>
       <r>    9.1007    0.0000 </r>
      </set>
      <set comment="kpoint 2">
       <r>  -56.2616    1.0000 </r>
       <r>  -56.2589    1.0000 </r>
       <r>  -56.0121    1.0000 </r>
       <r>  -56.0014    1.0000 </r>
       <r>  -56.0000    1.0000 </r>
       <r>  -55.9875    1.0000 </r>
       <r>  -29.7115    1.0000 </r>
       <r>  -29.7022    1.0000 </r>
       <r>  -29.6872    1.0000 </r>
       <r>  -29.6822    1.0000 </r>
       <r>  -29.6447    1.0000 </r>
       <r>  -29.6444    1.0000 </r>
       <r>  -29.5836    1.0000 </r>
       <r>  -29.5717    1.0000 </r>
       <r>  -29.5634    1.0000 </r>
       <r>  -29.4686    1.0000 </r>
       <r>  -29.3236    1.0000 </r>
       <r>  -29.3134    1.0000 </r>
       <r>  -29.3086    1.0000 </r>
       <r>  -29.2770    1.0000 </r>
       <r>  -29.2185    1.0000 </r>
       <r>  -29.2071    1.0000 </r>
       <r>  -29.2057    1.0000 </r>
       <r>  -29.1977    1.0000 </r>
       <r>   -3.2533    1.0000 </r>
       <r>   -1.6983    1.0000 </r>
       <r>   -0.2576    1.0000 </r>
       <r>    0.4371    1.0000 </r>
       <r>    1.1406    1.0000 </r>
       <r>    1.5140    1.0000 </r>
       <r>    2.1073    1.0000 </r>
       <r>    2.8674    1.0000 </r>
       <r>    3.0879    1.0000 </r>
       <r>    3.1218    1.0000 </r>
       <r>    3.6263    1.0000 </r>
       <r>    3.9752    1.0000 </r>
       <r>    4.2251    1.0000 </r>
       <r>    4.2527    1.0000 </r>
       <r>    4.6667    1.0000 </r>
       <r>    4.8300    1.0000 </r>
       <r>    4.9537    1.0000 </r>
       <r>    5.7274    1.0000 </r>
       <r>    5.7458    1.0000 </r>
       <r>    6.0095    1.0000 </r>
       <r>    6.1169    1.0000 </r>
       <r>    6.7432    1.0000 </r>
       <r>    6.7442    1.0000 </r>
       <r>    6.8346    1.0000 </r>
       <r>    6.8489    1.0000 </r>
       <r>    7.1580    0.0000 </r>
       <r>    7.4655    0.0000 </r>
       <r>    7.5641    0.0000 </r>
       <r>    7.6326    0.0000 </r>
       <r>    7.8708    0.0000 </r>
       <r>    7.8889    0.0000 </r>
       <r>    8.4529    0.0000 </r>
       <r>    8.5683    0.0000 </r>
       <r>    8.8784    0.0000 </r>
       <r>    8.9257    0.0000 </r>
       <r>    9.1700    0.0000 </r>
      </set>
      <set comment="kpoint 3">
       <r>  -56.2609    1.0000 </r>
       <r>  -56.2590    1.0000 </r>
       <r>  -56.0108    1.0000 </r>
       <r>  -56.0034    1.0000 </r>
       <r>  -55.9981    1.0000 </r>
       <r>  -55.9894    1.0000 </r>
       <r>  -29.6958    1.0000 </r>
       <r>  -29.6814    1.0000 </r>
       <r>  -29.6724    1.0000 </r>
       <r>  -29.6614    1.0000 </r>
       <r>  -29.6375    1.0000 </r>
       <r>  -29.6297    1.0000 </r>
       <r>  -29.5886    1.0000 </r>
       <r>  -29.5704    1.0000 </r>
       <r>  -29.5544    1.0000 </r>
       <r>  -29.4857    1.0000 </r>
       <r>  -29.3512    1.0000 </r>
       <r>  -29.3319    1.0000 </r>
       <r>  -29.3142    1.0000 </r>
       <r>  -29.2906    1.0000 </r>
       <r>  -29.2202    1.0000 </r>
       <r>  -29.2135    1.0000 </r>
       <r>  -29.2110    1.0000 </r>
       <r>  -29.2065    1.0000 </r>
       <r>   -2.9240    1.0000 </r>
       <r>   -1.4737    1.0000 </r>
       <r>   -0.9978    1.0000 </r>
       <r>   -0.1124    1.0000 </r>
       <r>    1.5132    1.0000 </r>
       <r>    2.1058    1.0000 </r>
       <r>    2.6891    1.0000 </r>
       <r>    3.1447    1.0000 </r>
       <r>    3.3653    1.0000 </r>
       <r>    3.4486    1.0000 </r>
       <r>    3.5706    1.0000 </r>
       <r>    3.7063    1.0000 </r>
       <r>    4.0382    1.0000 </r>
       <r>    4.1554    1.0000 </r>
       <r>    4.5886    1.0000 </r>
       <r>    4.6297    1.0000 </r>
       <r>    4.9101    1.0000 </r>
       <r>    5.1918    1.0000 </r>
       <r>    5.5634    1.0000 </r>
       <r>    5.7231    1.0000 </r>
       <r>    5.8167    1.0000 </r>
       <r>    6.4879    1.0000 </r>
       <r>    6.5538    1.0000 </r>
       <r>    6.7877    1.0000 </r>
       <r>    6.8443    1.0000 </r>
       <r>    6.9496    0.0283 </r>
       <r>    7.0282    0.0000 </r>
       <r>    7.4758    0.0000 </r>
       <r>    7.6347    0.0000 </r>
       <r>    7.6593    0.0000 </r>
       <r>    7.7295    0.0000 </r>
       <r>    8.0678    0.0000 </r>
       <r>    8.3173    0.0000 </r>
       <r>    8.5581    0.0000 </r>
       <r>    8.7029    0.0000 </r>
       <r>    9.0161    0.0000 </r>
      </set>
      <set comment="kpoint 4">
       <r>  -56.2600    1.0000 </r>
       <r>  -56.2594    1.0000 </r>
       <r>  -56.0087    1.0000 </r>
       <r>  -56.0060    1.0000 </r>
       <r>  -55.9953    1.0000 </r>
       <r>  -55.9922    1.0000 </r>
       <r>  -29.6843    1.0000 </r>
       <r>  -29.6795    1.0000 </r>
       <r>  -29.6409    1.0000 </r>
       <r>  -29.6400    1.0000 </r>
       <r>  -29.6333    1.0000 </r>
       <r>  -29.6124    1.0000 </r>
       <r>  -29.5956    1.0000 </r>
       <r>  -29.5675    1.0000 </r>
       <r>  -29.5372    1.0000 </r>
       <r>  -29.5114    1.0000 </r>
       <r>  -29.3734    1.0000 </r>
       <r>  -29.3621    1.0000 </r>
       <r>  -29.3125    1.0000 </r>
       <r>  -29.3045    1.0000 </r>
       <r>  -29.2200    1.0000 </r>
       <r>  -29.2166    1.0000 </r>
       <r>  -29.2163    1.0000 </r>
       <r>  -29.2137    1.0000 </r>
       <r>   -2.4063    1.0000 </r>
       <r>   -1.7445    1.0000 </r>
       <r>   -1.1159    1.0000 </r>
       <r>   -0.6497    1.0000 </r>
       <r>    2.1058    1.0000 </r>
       <r>    2.7290    1.0000 </r>
       <r>    2.8697    1.0000 </r>
       <r>    3.2790    1.0000 </r>
       <r>    3.2820    1.0000 </r>
       <r>    3.5344    1.0000 </r>
       <r>    3.8030    1.0000 </r>
       <r>    3.8215    1.0000 </r>
       <r>    3.8283    1.0000 </r>
       <r>    3.9912    1.0000 </r>
       <r>    4.0730    1.0000 </r>
       <r>    4.3273    1.0000 </r>
       <r>    5.1027    1.0000 </r>
       <r>    5.2934    1.0000 </r>
       <r>    5.4165    1.0000 </r>
       <r>    5.4226    1.0000 </r>
       <r>    5.5775    1.0000 </r>
       <r>    5.8563    1.0000 </r>
       <r>    6.4249    1.0000 </r>
       <r>    6.5862    1.0000 </r>
       <r>    7.1129    0.0000 </r>
       <r>    7.1211    0.0000 </r>
       <r>    7.1225    0.0000 </r>
       <r>    7.3544    0.0000 </r>
       <r>    7.3726    0.0000 </r>
       <r>    7.5865    0.0000 </r>
       <r>    7.5946    0.0000 </r>
       <r>    7.5968    0.0000 </r>
       <r>    8.2019    0.0000 </r>
       <r>    8.2604    0.0000 </r>
       <r>    8.7079    0.0000 </r>
       <r>    8.7823    0.0000 </r>
      </set>
      <set comment="kpoint 5">
       <r>  -56.2611    1.0000 </r>
       <r>  -56.2590    1.0000 </r>
       <r>  -56.0119    1.0000 </r>
       <r>  -56.0008    1.0000 </r>
       <r>  -56.0006    1.0000 </r>
       <r>  -55.9882    1.0000 </r>
       <r>  -29.6970    1.0000 </r>
       <r>  -29.6917    1.0000 </r>
       <r>  -29.6765    1.0000 </r>
       <r>  -29.6750    1.0000 </r>
       <r>  -29.6417    1.0000 </r>
       <r>  -29.6341    1.0000 </r>
       <r>  -29.5754    1.0000 </r>
       <r>  -29.5705    1.0000 </r>
       <r>  -29.5701    1.0000 </r>
       <r>  -29.4742    1.0000 </r>
       <r>  -29.3296    1.0000 </r>
       <r>  -29.3279    1.0000 </r>
       <r>  -29.3235    1.0000 </r>
       <r>  -29.2813    1.0000 </r>
       <r>  -29.2195    1.0000 </r>
       <r>  -29.2122    1.0000 </r>
       <r>  -29.2092    1.0000 </r>
       <r>  -29.2052    1.0000 </r>
       <r>   -3.0949    1.0000 </r>
       <r>   -1.5731    1.0000 </r>
       <r>   -0.4732    1.0000 </r>
       <r>   -0.1086    1.0000 </r>
       <r>    1.4693    1.0000 </r>
       <r>    1.5911    1.0000 </r>
       <r>    2.5902    1.0000 </r>
       <r>    3.0460    1.0000 </r>
       <r>    3.1753    1.0000 </r>
       <r>    3.3039    1.0000 </r>
       <r>    3.6474    1.0000 </r>
       <r>    3.9652    1.0000 </r>
       <r>    4.0093    1.0000 </r>
       <r>    4.2152    1.0000 </r>
       <r>    4.5615    1.0000 </r>
       <r>    4.8740    1.0000 </r>
       <r>    4.9714    1.0000 </r>
       <r>    5.2829    1.0000 </r>
       <r>    5.7464    1.0000 </r>
       <r>    5.7988    1.0000 </r>
       <r>    6.0533    1.0000 </r>
       <r>    6.5262    1.0000 </r>
       <r>    6.7076    1.0000 </r>
       <r>    6.7931    1.0000 </r>
       <r>    6.8185    1.0000 </r>
       <r>    6.8786    0.9991 </r>
       <r>    7.0650    0.0000 </r>
       <r>    7.5447    0.0000 </r>
       <r>    7.6239    0.0000 </r>
       <r>    7.6277    0.0000 </r>
       <r>    7.8795    0.0000 </r>
       <r>    8.2217    0.0000 </r>
       <r>    8.4859    0.0000 </r>
       <r>    8.6126    0.0000 </r>
       <r>    8.7657    0.0000 </r>
       <r>    9.2393    0.0000 </r>
      </set>
      <set comment="kpoint 6">
       <r>  -56.2603    1.0000 </r>
       <r>  -56.2592    1.0000 </r>
       <r>  -56.0106    1.0000 </r>
       <r>  -56.0026    1.0000 </r>
       <r>  -55.9988    1.0000 </r>
       <r>  -55.9901    1.0000 </r>
       <r>  -29.6844    1.0000 </r>
       <r>  -29.6700    1.0000 </r>
       <r>  -29.6623    1.0000 </r>
       <r>  -29.6538    1.0000 </r>
       <r>  -29.6340    1.0000 </r>
       <r>  -29.6131    1.0000 </r>
       <r>  -29.5880    1.0000 </r>
       <r>  -29.5670    1.0000 </r>
       <r>  -29.5619    1.0000 </r>
       <r>  -29.4907    1.0000 </r>
       <r>  -29.3582    1.0000 </r>
       <r>  -29.3510    1.0000 </r>
       <r>  -29.3268    1.0000 </r>
       <r>  -29.2930    1.0000 </r>
       <r>  -29.2199    1.0000 </r>
       <r>  -29.2163    1.0000 </r>
       <r>  -29.2154    1.0000 </r>
       <r>  -29.2138    1.0000 </r>
       <r>   -2.7371    1.0000 </r>
       <r>   -1.3129    1.0000 </r>
       <r>   -1.0973    1.0000 </r>
       <r>   -0.5543    1.0000 </r>
       <r>    1.7390    1.0000 </r>
       <r>    2.1687    1.0000 </r>
       <r>    3.1338    1.0000 </r>
       <r>    3.3531    1.0000 </r>
       <r>    3.4222    1.0000 </r>
       <r>    3.4279    1.0000 </r>
       <r>    3.5697    1.0000 </r>
       <r>    3.6482    1.0000 </r>
       <r>    3.8646    1.0000 </r>
       <r>    4.1494    1.0000 </r>
       <r>    4.2693    1.0000 </r>
       <r>    4.6141    1.0000 </r>
       <r>    4.9780    1.0000 </r>
       <r>    5.0787    1.0000 </r>
       <r>    5.5022    1.0000 </r>
       <r>    5.5227    1.0000 </r>
       <r>    5.9312    1.0000 </r>
       <r>    6.2266    1.0000 </r>
       <r>    6.5098    1.0000 </r>
       <r>    6.5671    1.0000 </r>
       <r>    6.6309    1.0000 </r>
       <r>    6.8751    0.9996 </r>
       <r>    7.1180    0.0000 </r>
       <r>    7.4665    0.0000 </r>
       <r>    7.5766    0.0000 </r>
       <r>    7.5767    0.0000 </r>
       <r>    7.6501    0.0000 </r>
       <r>    8.0402    0.0000 </r>
       <r>    8.3102    0.0000 </r>
       <r>    8.4025    0.0000 </r>
       <r>    8.7718    0.0000 </r>
       <r>    9.1095    0.0000 </r>
      </set>
      <set comment="kpoint 7">
       <r>  -56.2596    1.0000 </r>
       <r>  -56.2596    1.0000 </r>
       <r>  -56.0084    1.0000 </r>
       <r>  -56.0051    1.0000 </r>
       <r>  -55.9960    1.0000 </r>
       <r>  -55.9929    1.0000 </r>
       <r>  -29.6755    1.0000 </r>
       <r>  -29.6696    1.0000 </r>
       <r>  -29.6378    1.0000 </r>
       <r>  -29.6358    1.0000 </r>
       <r>  -29.6289    1.0000 </r>
       <r>  -29.6121    1.0000 </r>
       <r>  -29.5808    1.0000 </r>
       <r>  -29.5784    1.0000 </r>
       <r>  -29.5443    1.0000 </r>
       <r>  -29.5150    1.0000 </r>
       <r>  -29.3825    1.0000 </r>
       <r>  -29.3611    1.0000 </r>
       <r>  -29.3212    1.0000 </r>
       <r>  -29.3059    1.0000 </r>
       <r>  -29.2212    1.0000 </r>
       <r>  -29.2207    1.0000 </r>
       <r>  -29.2166    1.0000 </r>
       <r>  -29.2152    1.0000 </r>
       <r>   -2.2183    1.0000 </r>
       <r>   -1.8176    1.0000 </r>
       <r>   -0.9364    1.0000 </r>
       <r>   -0.9284    1.0000 </r>
       <r>    2.2175    1.0000 </r>
       <r>    2.7105    1.0000 </r>
       <r>    2.8256    1.0000 </r>
       <r>    3.1707    1.0000 </r>
       <r>    3.4390    1.0000 </r>
       <r>    3.6959    1.0000 </r>
       <r>    3.7561    1.0000 </r>
       <r>    3.7825    1.0000 </r>
       <r>    3.8262    1.0000 </r>
       <r>    3.9776    1.0000 </r>
       <r>    4.0261    1.0000 </r>
       <r>    4.1645    1.0000 </r>
       <r>    5.1176    1.0000 </r>
       <r>    5.1227    1.0000 </r>
       <r>    5.4213    1.0000 </r>
       <r>    5.5614    1.0000 </r>
       <r>    5.6197    1.0000 </r>
       <r>    5.6819    1.0000 </r>
       <r>    6.4062    1.0000 </r>
       <r>    6.4259    1.0000 </r>
       <r>    6.8829    0.9975 </r>
       <r>    6.9850    0.0000 </r>
       <r>    7.2831    0.0000 </r>
       <r>    7.3192    0.0000 </r>
       <r>    7.5296    0.0000 </r>
       <r>    7.5774    0.0000 </r>
       <r>    7.5940    0.0000 </r>
       <r>    7.6831    0.0000 </r>
       <r>    8.1764    0.0000 </r>
       <r>    8.4020    0.0000 </r>
       <r>    8.7970    0.0000 </r>
       <r>    8.8086    0.0000 </r>
      </set>
      <set comment="kpoint 8">
       <r>  -56.2603    1.0000 </r>
       <r>  -56.2592    1.0000 </r>
       <r>  -56.0077    1.0000 </r>
       <r>  -56.0055    1.0000 </r>
       <r>  -55.9960    1.0000 </r>
       <r>  -55.9929    1.0000 </r>
       <r>  -29.6761    1.0000 </r>
       <r>  -29.6742    1.0000 </r>
       <r>  -29.6451    1.0000 </r>
       <r>  -29.6389    1.0000 </r>
       <r>  -29.6350    1.0000 </r>
       <r>  -29.6114    1.0000 </r>
       <r>  -29.6060    1.0000 </r>
       <r>  -29.5663    1.0000 </r>
       <r>  -29.5396    1.0000 </r>
       <r>  -29.5171    1.0000 </r>
       <r>  -29.3775    1.0000 </r>
       <r>  -29.3468    1.0000 </r>
       <r>  -29.3136    1.0000 </r>
       <r>  -29.3067    1.0000 </r>
       <r>  -29.2235    1.0000 </r>
       <r>  -29.2217    1.0000 </r>
       <r>  -29.2117    1.0000 </r>
       <r>  -29.2098    1.0000 </r>
       <r>   -2.4459    1.0000 </r>
       <r>   -1.5951    1.0000 </r>
       <r>   -1.2701    1.0000 </r>
       <r>   -0.4818    1.0000 </r>
       <r>    2.0885    1.0000 </r>
       <r>    2.5459    1.0000 </r>
       <r>    2.8902    1.0000 </r>
       <r>    2.9252    1.0000 </r>
       <r>    3.3780    1.0000 </r>
       <r>    3.4141    1.0000 </r>
       <r>    3.6091    1.0000 </r>
       <r>    3.9308    1.0000 </r>
       <r>    4.0665    1.0000 </r>
       <r>    4.1624    1.0000 </r>
       <r>    4.2124    1.0000 </r>
       <r>    4.2876    1.0000 </r>
       <r>    4.8652    1.0000 </r>
       <r>    5.0911    1.0000 </r>
       <r>    5.3854    1.0000 </r>
       <r>    5.4279    1.0000 </r>
       <r>    5.7426    1.0000 </r>
       <r>    5.9450    1.0000 </r>
       <r>    6.4590    1.0000 </r>
       <r>    6.5420    1.0000 </r>
       <r>    6.8345    1.0000 </r>
       <r>    7.0106    0.0000 </r>
       <r>    7.2608    0.0000 </r>
       <r>    7.3172    0.0000 </r>
       <r>    7.5316    0.0000 </r>
       <r>    7.6183    0.0000 </r>
       <r>    7.6871    0.0000 </r>
       <r>    7.9103    0.0000 </r>
       <r>    8.1712    0.0000 </r>
       <r>    8.6150    0.0000 </r>
       <r>    8.6738    0.0000 </r>
       <r>    8.9682    0.0000 </r>
      </set>
      <set comment="kpoint 9">
       <r>  -56.2611    1.0000 </r>
       <r>  -56.2590    1.0000 </r>
       <r>  -56.0099    1.0000 </r>
       <r>  -56.0027    1.0000 </r>
       <r>  -55.9988    1.0000 </r>
       <r>  -55.9901    1.0000 </r>
       <r>  -29.6903    1.0000 </r>
       <r>  -29.6792    1.0000 </r>
       <r>  -29.6732    1.0000 </r>
       <r>  -29.6648    1.0000 </r>
       <r>  -29.6444    1.0000 </r>
       <r>  -29.6320    1.0000 </r>
       <r>  -29.5830    1.0000 </r>
       <r>  -29.5744    1.0000 </r>
       <r>  -29.5573    1.0000 </r>
       <r>  -29.4910    1.0000 </r>
       <r>  -29.3482    1.0000 </r>
       <r>  -29.3234    1.0000 </r>
       <r>  -29.3167    1.0000 </r>
       <r>  -29.2905    1.0000 </r>
       <r>  -29.2221    1.0000 </r>
       <r>  -29.2173    1.0000 </r>
       <r>  -29.2061    1.0000 </r>
       <r>  -29.2021    1.0000 </r>
       <r>   -2.9178    1.0000 </r>
       <r>   -1.5333    1.0000 </r>
       <r>   -0.9469    1.0000 </r>
       <r>   -0.0278    1.0000 </r>
       <r>    1.6808    1.0000 </r>
       <r>    2.0390    1.0000 </r>
       <r>    2.3159    1.0000 </r>
       <r>    3.0701    1.0000 </r>
       <r>    3.2982    1.0000 </r>
       <r>    3.5820    1.0000 </r>
       <r>    3.6118    1.0000 </r>
       <r>    3.6647    1.0000 </r>
       <r>    4.1577    1.0000 </r>
       <r>    4.2354    1.0000 </r>
       <r>    4.4359    1.0000 </r>
       <r>    4.6855    1.0000 </r>
       <r>    4.7724    1.0000 </r>
       <r>    5.1943    1.0000 </r>
       <r>    5.3936    1.0000 </r>
       <r>    5.6682    1.0000 </r>
       <r>    5.8454    1.0000 </r>
       <r>    6.4428    1.0000 </r>
       <r>    6.6392    1.0000 </r>
       <r>    6.7663    1.0000 </r>
       <r>    6.9450    0.0570 </r>
       <r>    6.9830    0.0000 </r>
       <r>    7.0374    0.0000 </r>
       <r>    7.5577    0.0000 </r>
       <r>    7.5985    0.0000 </r>
       <r>    7.7340    0.0000 </r>
       <r>    7.9834    0.0000 </r>
       <r>    8.1647    0.0000 </r>
       <r>    8.2617    0.0000 </r>
       <r>    8.5829    0.0000 </r>
       <r>    8.9712    0.0000 </r>
       <r>    9.3587    0.0000 </r>
      </set>
      <set comment="kpoint 10">
       <r>  -56.2616    1.0000 </r>
       <r>  -56.2590    1.0000 </r>
       <r>  -56.0114    1.0000 </r>
       <r>  -56.0007    1.0000 </r>
       <r>  -56.0007    1.0000 </r>
       <r>  -55.9882    1.0000 </r>
       <r>  -29.7078    1.0000 </r>
       <r>  -29.6967    1.0000 </r>
       <r>  -29.6853    1.0000 </r>
       <r>  -29.6807    1.0000 </r>
       <r>  -29.6479    1.0000 </r>
       <r>  -29.6414    1.0000 </r>
       <r>  -29.5835    1.0000 </r>
       <r>  -29.5677    1.0000 </r>
       <r>  -29.5675    1.0000 </r>
       <r>  -29.4742    1.0000 </r>
       <r>  -29.3247    1.0000 </r>
       <r>  -29.3168    1.0000 </r>
       <r>  -29.3073    1.0000 </r>
       <r>  -29.2806    1.0000 </r>
       <r>  -29.2195    1.0000 </r>
       <r>  -29.2101    1.0000 </r>
       <r>  -29.2035    1.0000 </r>
       <r>  -29.1966    1.0000 </r>
       <r>   -3.1938    1.0000 </r>
       <r>   -1.6828    1.0000 </r>
       <r>   -0.4183    1.0000 </r>
       <r>    0.3150    1.0000 </r>
       <r>    1.5508    1.0000 </r>
       <r>    1.5995    1.0000 </r>
       <r>    1.8706    1.0000 </r>
       <r>    2.8712    1.0000 </r>
       <r>    3.1165    1.0000 </r>
       <r>    3.2586    1.0000 </r>
       <r>    3.6305    1.0000 </r>
       <r>    4.0361    1.0000 </r>
       <r>    4.2889    1.0000 </r>
       <r>    4.3169    1.0000 </r>
       <r>    4.3503    1.0000 </r>
       <r>    4.7604    1.0000 </r>
       <r>    4.8902    1.0000 </r>
       <r>    5.6895    1.0000 </r>
       <r>    5.7148    1.0000 </r>
       <r>    5.7930    1.0000 </r>
       <r>    5.9346    1.0000 </r>
       <r>    6.7120    1.0000 </r>
       <r>    6.7720    1.0000 </r>
       <r>    6.8792    0.9989 </r>
       <r>    6.9180    0.6287 </r>
       <r>    7.0608    0.0000 </r>
       <r>    7.4722    0.0000 </r>
       <r>    7.5876    0.0000 </r>
       <r>    7.7129    0.0000 </r>
       <r>    7.7276    0.0000 </r>
       <r>    8.2530    0.0000 </r>
       <r>    8.3863    0.0000 </r>
       <r>    8.4068    0.0000 </r>
       <r>    8.8904    0.0000 </r>
       <r>    9.1555    0.0000 </r>
       <r>    9.2183    0.0000 </r>
      </set>
      <set comment="kpoint 11">
       <r>  -56.2598    1.0000 </r>
       <r>  -56.2594    1.0000 </r>
       <r>  -56.0092    1.0000 </r>
       <r>  -56.0010    1.0000 </r>
       <r>  -56.0002    1.0000 </r>
       <r>  -55.9920    1.0000 </r>
       <r>  -29.6640    1.0000 </r>
       <r>  -29.6540    1.0000 </r>
       <r>  -29.6526    1.0000 </r>
       <r>  -29.6419    1.0000 </r>
       <r>  -29.6252    1.0000 </r>
       <r>  -29.5919    1.0000 </r>
       <r>  -29.5885    1.0000 </r>
       <r>  -29.5777    1.0000 </r>
       <r>  -29.5681    1.0000 </r>
       <r>  -29.5059    1.0000 </r>
       <r>  -29.3835    1.0000 </r>
       <r>  -29.3512    1.0000 </r>
       <r>  -29.3366    1.0000 </r>
       <r>  -29.3034    1.0000 </r>
       <r>  -29.2234    1.0000 </r>
       <r>  -29.2227    1.0000 </r>
       <r>  -29.2166    1.0000 </r>
       <r>  -29.2160    1.0000 </r>
       <r>   -2.3870    1.0000 </r>
       <r>   -1.2269    1.0000 </r>
       <r>   -1.1359    1.0000 </r>
       <r>   -1.0575    1.0000 </r>
       <r>    2.0963    1.0000 </r>
       <r>    2.3719    1.0000 </r>
       <r>    2.9678    1.0000 </r>
       <r>    3.4283    1.0000 </r>
       <r>    3.5184    1.0000 </r>
       <r>    3.5425    1.0000 </r>
       <r>    3.6253    1.0000 </r>
       <r>    3.7174    1.0000 </r>
       <r>    3.9209    1.0000 </r>
       <r>    3.9848    1.0000 </r>
       <r>    4.1220    1.0000 </r>
       <r>    4.1585    1.0000 </r>
       <r>    5.0511    1.0000 </r>
       <r>    5.1173    1.0000 </r>
       <r>    5.1429    1.0000 </r>
       <r>    5.6846    1.0000 </r>
       <r>    5.7620    1.0000 </r>
       <r>    6.0155    1.0000 </r>
       <r>    6.2718    1.0000 </r>
       <r>    6.2988    1.0000 </r>
       <r>    6.4970    1.0000 </r>
       <r>    6.9108    0.7999 </r>
       <r>    7.3689    0.0000 </r>
       <r>    7.4924    0.0000 </r>
       <r>    7.5134    0.0000 </r>
       <r>    7.5608    0.0000 </r>
       <r>    7.6419    0.0000 </r>
       <r>    7.9972    0.0000 </r>
       <r>    8.1154    0.0000 </r>
       <r>    8.3837    0.0000 </r>
       <r>    8.9654    0.0000 </r>
       <r>    9.4224    0.0000 </r>
      </set>
      <set comment="kpoint 12">
       <r>  -56.2599    1.0000 </r>
       <r>  -56.2593    1.0000 </r>
       <r>  -56.0067    1.0000 </r>
       <r>  -56.0032    1.0000 </r>
       <r>  -55.9978    1.0000 </r>
       <r>  -55.9948    1.0000 </r>
       <r>  -29.6575    1.0000 </r>
       <r>  -29.6511    1.0000 </r>
       <r>  -29.6405    1.0000 </r>
       <r>  -29.6287    1.0000 </r>
       <r>  -29.6143    1.0000 </r>
       <r>  -29.6089    1.0000 </r>
       <r>  -29.5929    1.0000 </r>
       <r>  -29.5715    1.0000 </r>
       <r>  -29.5589    1.0000 </r>
       <r>  -29.5290    1.0000 </r>
       <r>  -29.3919    1.0000 </r>
       <r>  -29.3643    1.0000 </r>
       <r>  -29.3167    1.0000 </r>
       <r>  -29.3164    1.0000 </r>
       <r>  -29.2299    1.0000 </r>
       <r>  -29.2285    1.0000 </r>
       <r>  -29.2118    1.0000 </r>
       <r>  -29.2117    1.0000 </r>
       <r>   -1.9302    1.0000 </r>
       <r>   -1.7943    1.0000 </r>
       <r>   -1.2944    1.0000 </r>
       <r>   -0.7364    1.0000 </r>
       <r>    2.3781    1.0000 </r>
       <r>    2.5170    1.0000 </r>
       <r>    2.8145    1.0000 </r>
       <r>    2.9020    1.0000 </r>
       <r>    3.2498    1.0000 </r>
       <r>    3.5915    1.0000 </r>
       <r>    3.7436    1.0000 </r>
       <r>    3.8036    1.0000 </r>
       <r>    3.8956    1.0000 </r>
       <r>    4.1427    1.0000 </r>
       <r>    4.1907    1.0000 </r>
       <r>    4.2225    1.0000 </r>
       <r>    4.7726    1.0000 </r>
       <r>    5.2263    1.0000 </r>
       <r>    5.2698    1.0000 </r>
       <r>    5.4121    1.0000 </r>
       <r>    5.7354    1.0000 </r>
       <r>    5.8145    1.0000 </r>
       <r>    6.1552    1.0000 </r>
       <r>    6.2159    1.0000 </r>
       <r>    6.7618    1.0000 </r>
       <r>    6.8425    1.0000 </r>
       <r>    7.2021    0.0000 </r>
       <r>    7.5335    0.0000 </r>
       <r>    7.5741    0.0000 </r>
       <r>    7.7016    0.0000 </r>
       <r>    7.7735    0.0000 </r>
       <r>    7.7897    0.0000 </r>
       <r>    8.1231    0.0000 </r>
       <r>    8.6267    0.0000 </r>
       <r>    9.1160    0.0000 </r>
       <r>    9.1805    0.0000 </r>
      </set>
      <set comment="kpoint 13">
       <r>  -56.2604    1.0000 </r>
       <r>  -56.2590    1.0000 </r>
       <r>  -56.0058    1.0000 </r>
       <r>  -56.0037    1.0000 </r>
       <r>  -55.9980    1.0000 </r>
       <r>  -55.9947    1.0000 </r>
       <r>  -29.6642    1.0000 </r>
       <r>  -29.6538    1.0000 </r>
       <r>  -29.6425    1.0000 </r>
       <r>  -29.6422    1.0000 </r>
       <r>  -29.6293    1.0000 </r>
       <r>  -29.6162    1.0000 </r>
       <r>  -29.5931    1.0000 </r>
       <r>  -29.5657    1.0000 </r>
       <r>  -29.5530    1.0000 </r>
       <r>  -29.5315    1.0000 </r>
       <r>  -29.3768    1.0000 </r>
       <r>  -29.3589    1.0000 </r>
       <r>  -29.3250    1.0000 </r>
       <r>  -29.2970    1.0000 </r>
       <r>  -29.2315    1.0000 </r>
       <r>  -29.2298    1.0000 </r>
       <r>  -29.2062    1.0000 </r>
       <r>  -29.2057    1.0000 </r>
       <r>   -2.3256    1.0000 </r>
       <r>   -1.4545    1.0000 </r>
       <r>   -1.4107    1.0000 </r>
       <r>   -0.4118    1.0000 </r>
       <r>    2.2010    1.0000 </r>
       <r>    2.2967    1.0000 </r>
       <r>    2.7043    1.0000 </r>
       <r>    2.7741    1.0000 </r>
       <r>    3.4027    1.0000 </r>
       <r>    3.4188    1.0000 </r>
       <r>    3.5063    1.0000 </r>
       <r>    3.9260    1.0000 </r>
       <r>    4.1104    1.0000 </r>
       <r>    4.1854    1.0000 </r>
       <r>    4.3003    1.0000 </r>
       <r>    4.4401    1.0000 </r>
       <r>    4.6857    1.0000 </r>
       <r>    4.9431    1.0000 </r>
       <r>    5.4154    1.0000 </r>
       <r>    5.4681    1.0000 </r>
       <r>    5.7194    1.0000 </r>
       <r>    5.8235    1.0000 </r>
       <r>    6.3440    1.0000 </r>
       <r>    6.3672    1.0000 </r>
       <r>    6.7465    1.0000 </r>
       <r>    6.9938    0.0000 </r>
       <r>    7.2794    0.0000 </r>
       <r>    7.2862    0.0000 </r>
       <r>    7.5323    0.0000 </r>
       <r>    7.7918    0.0000 </r>
       <r>    7.8284    0.0000 </r>
       <r>    7.9127    0.0000 </r>
       <r>    8.3677    0.0000 </r>
       <r>    8.8303    0.0000 </r>
       <r>    9.0879    0.0000 </r>
       <r>    9.5217    0.0000 </r>
      </set>
      <set comment="kpoint 14">
       <r>  -56.2609    1.0000 </r>
       <r>  -56.2590    1.0000 </r>
       <r>  -56.0081    1.0000 </r>
       <r>  -56.0009    1.0000 </r>
       <r>  -56.0007    1.0000 </r>
       <r>  -55.9920    1.0000 </r>
       <r>  -29.6725    1.0000 </r>
       <r>  -29.6697    1.0000 </r>
       <r>  -29.6607    1.0000 </r>
       <r>  -29.6556    1.0000 </r>
       <r>  -29.6480    1.0000 </r>
       <r>  -29.6258    1.0000 </r>
       <r>  -29.5718    1.0000 </r>
       <r>  -29.5715    1.0000 </r>
       <r>  -29.5710    1.0000 </r>
       <r>  -29.5065    1.0000 </r>
       <r>  -29.3540    1.0000 </r>
       <r>  -29.3392    1.0000 </r>
       <r>  -29.3261    1.0000 </r>
       <r>  -29.2887    1.0000 </r>
       <r>  -29.2266    1.0000 </r>
       <r>  -29.2258    1.0000 </r>
       <r>  -29.2035    1.0000 </r>
       <r>  -29.2018    1.0000 </r>
       <r>   -2.7128    1.0000 </r>
       <r>   -1.5030    1.0000 </r>
       <r>   -1.0846    1.0000 </r>
       <r>   -0.1683    1.0000 </r>
       <r>    2.0391    1.0000 </r>
       <r>    2.0830    1.0000 </r>
       <r>    2.1892    1.0000 </r>
       <r>    3.1694    1.0000 </r>
       <r>    3.2624    1.0000 </r>
       <r>    3.3130    1.0000 </r>
       <r>    3.6939    1.0000 </r>
       <r>    3.8629    1.0000 </r>
       <r>    4.2219    1.0000 </r>
       <r>    4.3507    1.0000 </r>
       <r>    4.3749    1.0000 </r>
       <r>    4.4566    1.0000 </r>
       <r>    4.5241    1.0000 </r>
       <r>    5.1612    1.0000 </r>
       <r>    5.2160    1.0000 </r>
       <r>    5.6306    1.0000 </r>
       <r>    5.8129    1.0000 </r>
       <r>    6.0701    1.0000 </r>
       <r>    6.4857    1.0000 </r>
       <r>    6.7394    1.0000 </r>
       <r>    6.7793    1.0000 </r>
       <r>    7.0304    0.0000 </r>
       <r>    7.1225    0.0000 </r>
       <r>    7.5514    0.0000 </r>
       <r>    7.6143    0.0000 </r>
       <r>    7.7957    0.0000 </r>
       <r>    7.8922    0.0000 </r>
       <r>    8.0210    0.0000 </r>
       <r>    8.4244    0.0000 </r>
       <r>    8.6984    0.0000 </r>
       <r>    9.4066    0.0000 </r>
       <r>    9.7476    0.0000 </r>
      </set>
      <set comment="kpoint 15">
       <r>  -56.2602    1.0000 </r>
       <r>  -56.2591    1.0000 </r>
       <r>  -56.0041    1.0000 </r>
       <r>  -56.0012    1.0000 </r>
       <r>  -55.9995    1.0000 </r>
       <r>  -55.9977    1.0000 </r>
       <r>  -29.6556    1.0000 </r>
       <r>  -29.6463    1.0000 </r>
       <r>  -29.6318    1.0000 </r>
       <r>  -29.6203    1.0000 </r>
       <r>  -29.6135    1.0000 </r>
       <r>  -29.5973    1.0000 </r>
       <r>  -29.5848    1.0000 </r>
       <r>  -29.5780    1.0000 </r>
       <r>  -29.5634    1.0000 </r>
       <r>  -29.5511    1.0000 </r>
       <r>  -29.3901    1.0000 </r>
       <r>  -29.3798    1.0000 </r>
       <r>  -29.3292    1.0000 </r>
       <r>  -29.2988    1.0000 </r>
       <r>  -29.2381    1.0000 </r>
       <r>  -29.2344    1.0000 </r>
       <r>  -29.2067    1.0000 </r>
       <r>  -29.2062    1.0000 </r>
       <r>   -1.7348    1.0000 </r>
       <r>   -1.6536    1.0000 </r>
       <r>   -1.6344    1.0000 </r>
       <r>   -0.5470    1.0000 </r>
       <r>    2.3942    1.0000 </r>
       <r>    2.4057    1.0000 </r>
       <r>    2.5166    1.0000 </r>
       <r>    3.0267    1.0000 </r>
       <r>    3.0736    1.0000 </r>
       <r>    3.2740    1.0000 </r>
       <r>    3.6424    1.0000 </r>
       <r>    3.9177    1.0000 </r>
       <r>    3.9672    1.0000 </r>
       <r>    4.2744    1.0000 </r>
       <r>    4.3335    1.0000 </r>
       <r>    4.4971    1.0000 </r>
       <r>    4.6036    1.0000 </r>
       <r>    4.9919    1.0000 </r>
       <r>    5.3297    1.0000 </r>
       <r>    5.4171    1.0000 </r>
       <r>    5.6613    1.0000 </r>
       <r>    5.8932    1.0000 </r>
       <r>    6.0491    1.0000 </r>
       <r>    6.1847    1.0000 </r>
       <r>    6.7142    1.0000 </r>
       <r>    6.9483    0.0352 </r>
       <r>    6.9839    0.0000 </r>
       <r>    7.3967    0.0000 </r>
       <r>    7.5148    0.0000 </r>
       <r>    7.7354    0.0000 </r>
       <r>    7.8437    0.0000 </r>
       <r>    7.8556    0.0000 </r>
       <r>    8.4757    0.0000 </r>
       <r>    9.1201    0.0000 </r>
       <r>    9.2104    0.0000 </r>
       <r>    9.7810    0.0000 </r>
      </set>
      <set comment="kpoint 16">
       <r>  -56.2604    1.0000 </r>
       <r>  -56.2590    1.0000 </r>
       <r>  -56.0033    1.0000 </r>
       <r>  -56.0011    1.0000 </r>
       <r>  -56.0007    1.0000 </r>
       <r>  -55.9973    1.0000 </r>
       <r>  -29.6608    1.0000 </r>
       <r>  -29.6481    1.0000 </r>
       <r>  -29.6314    1.0000 </r>
       <r>  -29.6307    1.0000 </r>
       <r>  -29.6123    1.0000 </r>
       <r>  -29.6102    1.0000 </r>
       <r>  -29.5758    1.0000 </r>
       <r>  -29.5736    1.0000 </r>
       <r>  -29.5617    1.0000 </r>
       <r>  -29.5542    1.0000 </r>
       <r>  -29.3816    1.0000 </r>
       <r>  -29.3780    1.0000 </r>
       <r>  -29.3338    1.0000 </r>
       <r>  -29.2904    1.0000 </r>
       <r>  -29.2394    1.0000 </r>
       <r>  -29.2348    1.0000 </r>
       <r>  -29.2041    1.0000 </r>
       <r>  -29.2036    1.0000 </r>
       <r>   -2.0640    1.0000 </r>
       <r>   -1.5508    1.0000 </r>
       <r>   -1.4505    1.0000 </r>
       <r>   -0.4277    1.0000 </r>
       <r>    2.1913    1.0000 </r>
       <r>    2.3681    1.0000 </r>
       <r>    2.6297    1.0000 </r>
       <r>    2.6842    1.0000 </r>
       <r>    3.2835    1.0000 </r>
       <r>    3.3779    1.0000 </r>
       <r>    3.5164    1.0000 </r>
       <r>    3.8429    1.0000 </r>
       <r>    4.1615    1.0000 </r>
       <r>    4.2607    1.0000 </r>
       <r>    4.3965    1.0000 </r>
       <r>    4.4300    1.0000 </r>
       <r>    4.5926    1.0000 </r>
       <r>    4.9728    1.0000 </r>
       <r>    5.4160    1.0000 </r>
       <r>    5.4947    1.0000 </r>
       <r>    5.5095    1.0000 </r>
       <r>    5.8532    1.0000 </r>
       <r>    6.1978    1.0000 </r>
       <r>    6.2819    1.0000 </r>
       <r>    6.7473    1.0000 </r>
       <r>    6.8726    0.9998 </r>
       <r>    7.1294    0.0000 </r>
       <r>    7.2670    0.0000 </r>
       <r>    7.5118    0.0000 </r>
       <r>    7.7011    0.0000 </r>
       <r>    7.8714    0.0000 </r>
       <r>    7.9125    0.0000 </r>
       <r>    8.7947    0.0000 </r>
       <r>    8.9246    0.0000 </r>
       <r>    9.6204    0.0000 </r>
       <r>   10.1034    0.0000 </r>
      </set>
      <set comment="kpoint 17">
       <r>  -56.2616    1.0000 </r>
       <r>  -56.2589    1.0000 </r>
       <r>  -56.0117    1.0000 </r>
       <r>  -56.0007    1.0000 </r>
       <r>  -56.0007    1.0000 </r>
       <r>  -55.9879    1.0000 </r>
       <r>  -29.7112    1.0000 </r>
       <r>  -29.6997    1.0000 </r>
       <r>  -29.6865    1.0000 </r>
       <r>  -29.6829    1.0000 </r>
       <r>  -29.6480    1.0000 </r>
       <r>  -29.6428    1.0000 </r>
       <r>  -29.5846    1.0000 </r>
       <r>  -29.5673    1.0000 </r>
       <r>  -29.5673    1.0000 </r>
       <r>  -29.4715    1.0000 </r>
       <r>  -29.3219    1.0000 </r>
       <r>  -29.3160    1.0000 </r>
       <r>  -29.3054    1.0000 </r>
       <r>  -29.2790    1.0000 </r>
       <r>  -29.2190    1.0000 </r>
       <r>  -29.2086    1.0000 </r>
       <r>  -29.2035    1.0000 </r>
       <r>  -29.1960    1.0000 </r>
       <r>   -3.2337    1.0000 </r>
       <r>   -1.7031    1.0000 </r>
       <r>   -0.3228    1.0000 </r>
       <r>    0.3875    1.0000 </r>
       <r>    1.4673    1.0000 </r>
       <r>    1.5214    1.0000 </r>
[...]
       <r>   -0.3460    1.0000 </r>
       <r>    1.3113    1.0000 </r>
       <r>    1.3990    1.0000 </r>
       <r>    2.6490    1.0000 </r>
       <r>    3.3961    1.0000 </r>
       <r>    3.4067    1.0000 </r>
       <r>    3.7365    1.0000 </r>
       <r>    3.8192    1.0000 </r>
       <r>    3.8795    1.0000 </r>
       <r>    4.0072    1.0000 </r>
       <r>    4.0868    1.0000 </r>
       <r>    4.1403    1.0000 </r>
       <r>    5.0623    1.0000 </r>
       <r>    5.0855    1.0000 </r>
       <r>    5.6964    1.0000 </r>
       <r>    5.7098    1.0000 </r>
       <r>    5.8364    1.0000 </r>
       <r>    6.0706    1.0000 </r>
       <r>    6.0736    1.0000 </r>
       <r>    6.1435    1.0000 </r>
       <r>    6.6972    1.0000 </r>
       <r>    6.9256    0.4179 </r>
       <r>    7.0128    0.0000 </r>
       <r>    7.0758    0.0000 </r>
       <r>    7.2214    0.0000 </r>
       <r>    7.2249    0.0000 </r>
       <r>    7.2982    0.0000 </r>
       <r>    7.6028    0.0000 </r>
       <r>    7.8136    0.0000 </r>
       <r>    7.8351    0.0000 </r>
       <r>    7.8530    0.0000 </r>
       <r>    8.0589    0.0000 </r>
       <r>    8.9922    0.0000 </r>
      </set>
      <set comment="kpoint 116">
       <r>  -56.2591    1.0000 </r>
       <r>  -56.2589    1.0000 </r>
       <r>  -56.0151    1.0000 </r>
       <r>  -56.0008    1.0000 </r>
       <r>  -56.0008    1.0000 </r>
       <r>  -55.9870    1.0000 </r>
       <r>  -29.7071    1.0000 </r>
       <r>  -29.6166    1.0000 </r>
       <r>  -29.6129    1.0000 </r>
       <r>  -29.6126    1.0000 </r>
       <r>  -29.6125    1.0000 </r>
       <r>  -29.6103    1.0000 </r>
       <r>  -29.6102    1.0000 </r>
       <r>  -29.5353    1.0000 </r>
       <r>  -29.5316    1.0000 </r>
       <r>  -29.4925    1.0000 </r>
       <r>  -29.4658    1.0000 </r>
       <r>  -29.3497    1.0000 </r>
       <r>  -29.3447    1.0000 </r>
       <r>  -29.2738    1.0000 </r>
       <r>  -29.2589    1.0000 </r>
       <r>  -29.2359    1.0000 </r>
       <r>  -29.2342    1.0000 </r>
       <r>  -29.2222    1.0000 </r>
       <r>   -2.7915    1.0000 </r>
       <r>   -0.9028    1.0000 </r>
       <r>   -0.8610    1.0000 </r>
       <r>   -0.3594    1.0000 </r>
       <r>    1.3194    1.0000 </r>
       <r>    1.4084    1.0000 </r>
       <r>    2.5003    1.0000 </r>
       <r>    3.4289    1.0000 </r>
       <r>    3.4421    1.0000 </r>
       <r>    3.7340    1.0000 </r>
       <r>    3.8021    1.0000 </r>
       <r>    3.9447    1.0000 </r>
       <r>    4.0075    1.0000 </r>
       <r>    4.1104    1.0000 </r>
       <r>    4.1633    1.0000 </r>
       <r>    5.0605    1.0000 </r>
       <r>    5.0898    1.0000 </r>
       <r>    5.6617    1.0000 </r>
       <r>    5.7998    1.0000 </r>
       <r>    5.8257    1.0000 </r>
       <r>    5.9965    1.0000 </r>
       <r>    6.0153    1.0000 </r>
       <r>    6.0622    1.0000 </r>
       <r>    6.7920    1.0000 </r>
       <r>    6.9247    0.4433 </r>
       <r>    6.9622    0.0026 </r>
       <r>    7.1726    0.0000 </r>
       <r>    7.1790    0.0000 </r>
       <r>    7.2830    0.0000 </r>
       <r>    7.3026    0.0000 </r>
       <r>    7.6078    0.0000 </r>
       <r>    7.7312    0.0000 </r>
       <r>    7.7635    0.0000 </r>
       <r>    7.8030    0.0000 </r>
       <r>    8.0020    0.0000 </r>
       <r>    8.9784    0.0000 </r>
      </set>
     </set>
    </set>
   </array>
  </eigenvalues>
  <separator name="orbital magnetization" >
   <v name="MAGDIPOLOUT">      0.00000000      0.00000000      0.00000000</v>
  </separator>
  <dos>
   <i name="efermi">      6.92266381 </i>
   <total>
    <array>
     <dimension dim="1">gridpoints</dimension>
     <dimension dim="2">spin</dimension>
     <field>energy</field>
     <field>total</field>
     <field>integrated</field>
     <set>
      <set comment="spin 1">
       <r>   -59.5830     0.0000     0.0000 </r>
       <r>   -59.3394     0.0000     0.0000 </r>
       <r>   -59.0959     0.0000     0.0000 </r>
       <r>   -58.8523     0.0000     0.0000 </r>
       <r>   -58.6088     0.0000     0.0000 </r>
       <r>   -58.3652     0.0000     0.0000 </r>
       <r>   -58.1217     0.0000     0.0000 </r>
       <r>   -57.8781     0.0000     0.0000 </r>
       <r>   -57.6346     0.0000     0.0000 </r>
       <r>   -57.3910     0.0000     0.0000 </r>
       <r>   -57.1475     0.0000     0.0000 </r>
       <r>   -56.9039     0.0000     0.0000 </r>
       <r>   -56.6604     0.0000     0.0000 </r>
       <r>   -56.4168     0.0000     0.0000 </r>
       <r>   -56.1733    16.4239     4.0000 </r>
       <r>   -55.9298    32.8477    12.0000 </r>
       <r>   -55.6862     0.0000    12.0000 </r>
       <r>   -55.4427     0.0000    12.0000 </r>
       <r>   -55.1991     0.0000    12.0000 </r>
       <r>   -54.9556     0.0000    12.0000 </r>
       <r>   -54.7120     0.0000    12.0000 </r>
       <r>   -54.4685     0.0000    12.0000 </r>
       <r>   -54.2249     0.0000    12.0000 </r>
       <r>   -53.9814     0.0000    12.0000 </r>
       <r>   -53.7378     0.0000    12.0000 </r>
       <r>   -53.4943     0.0000    12.0000 </r>
       <r>   -53.2507     0.0000    12.0000 </r>
       <r>   -53.0072     0.0000    12.0000 </r>
       <r>   -52.7636     0.0000    12.0000 </r>
       <r>   -52.5201     0.0000    12.0000 </r>
       <r>   -52.2765     0.0000    12.0000 </r>
       <r>   -52.0330     0.0000    12.0000 </r>
       <r>   -51.7894     0.0000    12.0000 </r>
       <r>   -51.5459     0.0000    12.0000 </r>
       <r>   -51.3023     0.0000    12.0000 </r>
       <r>   -51.0588     0.0000    12.0000 </r>
       <r>   -50.8153     0.0000    12.0000 </r>
       <r>   -50.5717     0.0000    12.0000 </r>
       <r>   -50.3282     0.0000    12.0000 </r>
       <r>   -50.0846     0.0000    12.0000 </r>
       <r>   -49.8411     0.0000    12.0000 </r>
       <r>   -49.5975     0.0000    12.0000 </r>
       <r>   -49.3540     0.0000    12.0000 </r>
       <r>   -49.1104     0.0000    12.0000 </r>
       <r>   -48.8669     0.0000    12.0000 </r>
       <r>   -48.6233     0.0000    12.0000 </r>
       <r>   -48.3798     0.0000    12.0000 </r>
       <r>   -48.1362     0.0000    12.0000 </r>
       <r>   -47.8927     0.0000    12.0000 </r>
       <r>   -47.6491     0.0000    12.0000 </r>
       <r>   -47.4056     0.0000    12.0000 </r>
       <r>   -47.1620     0.0000    12.0000 </r>
       <r>   -46.9185     0.0000    12.0000 </r>
       <r>   -46.6749     0.0000    12.0000 </r>
       <r>   -46.4314     0.0000    12.0000 </r>
       <r>   -46.1878     0.0000    12.0000 </r>
       <r>   -45.9443     0.0000    12.0000 </r>
       <r>   -45.7008     0.0000    12.0000 </r>
       <r>   -45.4572     0.0000    12.0000 </r>
       <r>   -45.2137     0.0000    12.0000 </r>
       <r>   -44.9701     0.0000    12.0000 </r>
       <r>   -44.7266     0.0000    12.0000 </r>
       <r>   -44.4830     0.0000    12.0000 </r>
       <r>   -44.2395     0.0000    12.0000 </r>
       <r>   -43.9959     0.0000    12.0000 </r>
       <r>   -43.7524     0.0000    12.0000 </r>
       <r>   -43.5088     0.0000    12.0000 </r>
       <r>   -43.2653     0.0000    12.0000 </r>
       <r>   -43.0217     0.0000    12.0000 </r>
       <r>   -42.7782     0.0000    12.0000 </r>
       <r>   -42.5346     0.0000    12.0000 </r>
       <r>   -42.2911     0.0000    12.0000 </r>
       <r>   -42.0475     0.0000    12.0000 </r>
       <r>   -41.8040     0.0000    12.0000 </r>
       <r>   -41.5604     0.0000    12.0000 </r>
       <r>   -41.3169     0.0000    12.0000 </r>
       <r>   -41.0733     0.0000    12.0000 </r>
       <r>   -40.8298     0.0000    12.0000 </r>
       <r>   -40.5863     0.0000    12.0000 </r>
       <r>   -40.3427     0.0000    12.0000 </r>
       <r>   -40.0992     0.0000    12.0000 </r>
       <r>   -39.8556     0.0000    12.0000 </r>
       <r>   -39.6121     0.0000    12.0000 </r>
       <r>   -39.3685     0.0000    12.0000 </r>
       <r>   -39.1250     0.0000    12.0000 </r>
       <r>   -38.8814     0.0000    12.0000 </r>
       <r>   -38.6379     0.0000    12.0000 </r>
       <r>   -38.3943     0.0000    12.0000 </r>
       <r>   -38.1508     0.0000    12.0000 </r>
       <r>   -37.9072     0.0000    12.0000 </r>
       <r>   -37.6637     0.0000    12.0000 </r>
       <r>   -37.4201     0.0000    12.0000 </r>
       <r>   -37.1766     0.0000    12.0000 </r>
       <r>   -36.9330     0.0000    12.0000 </r>
       <r>   -36.6895     0.0000    12.0000 </r>
       <r>   -36.4459     0.0000    12.0000 </r>
       <r>   -36.2024     0.0000    12.0000 </r>
       <r>   -35.9589     0.0000    12.0000 </r>
       <r>   -35.7153     0.0000    12.0000 </r>
       <r>   -35.4718     0.0000    12.0000 </r>
       <r>   -35.2282     0.0000    12.0000 </r>
       <r>   -34.9847     0.0000    12.0000 </r>
       <r>   -34.7411     0.0000    12.0000 </r>
       <r>   -34.4976     0.0000    12.0000 </r>
       <r>   -34.2540     0.0000    12.0000 </r>
       <r>   -34.0105     0.0000    12.0000 </r>
       <r>   -33.7669     0.0000    12.0000 </r>
       <r>   -33.5234     0.0000    12.0000 </r>
       <r>   -33.2798     0.0000    12.0000 </r>
       <r>   -33.0363     0.0000    12.0000 </r>
       <r>   -32.7927     0.0000    12.0000 </r>
       <r>   -32.5492     0.0000    12.0000 </r>
       <r>   -32.3056     0.0000    12.0000 </r>
       <r>   -32.0621     0.0000    12.0000 </r>
       <r>   -31.8185     0.0000    12.0000 </r>
       <r>   -31.5750     0.0000    12.0000 </r>
       <r>   -31.3314     0.0000    12.0000 </r>
       <r>   -31.0879     0.0000    12.0000 </r>
       <r>   -30.8444     0.0000    12.0000 </r>
       <r>   -30.6008     0.0000    12.0000 </r>
       <r>   -30.3573     0.0000    12.0000 </r>
       <r>   -30.1137     0.0000    12.0000 </r>
       <r>   -29.8702     0.0000    12.0000 </r>
       <r>   -29.6266    35.4035    20.6224 </r>
       <r>   -29.3831    13.4070    33.0357 </r>
       <r>   -29.1395    37.8755    48.0000 </r>
       <r>   -28.8960     0.0000    48.0000 </r>
       <r>   -28.6524     0.0000    48.0000 </r>
       <r>   -28.4089     0.0000    48.0000 </r>
       <r>   -28.1653     0.0000    48.0000 </r>
       <r>   -27.9218     0.0000    48.0000 </r>
       <r>   -27.6782     0.0000    48.0000 </r>
       <r>   -27.4347     0.0000    48.0000 </r>
       <r>   -27.1911     0.0000    48.0000 </r>
       <r>   -26.9476     0.0000    48.0000 </r>
       <r>   -26.7040     0.0000    48.0000 </r>
       <r>   -26.4605     0.0000    48.0000 </r>
       <r>   -26.2169     0.0000    48.0000 </r>
       <r>   -25.9734     0.0000    48.0000 </r>
       <r>   -25.7299     0.0000    48.0000 </r>
       <r>   -25.4863     0.0000    48.0000 </r>
       <r>   -25.2428     0.0000    48.0000 </r>
       <r>   -24.9992     0.0000    48.0000 </r>
       <r>   -24.7557     0.0000    48.0000 </r>
       <r>   -24.5121     0.0000    48.0000 </r>
       <r>   -24.2686     0.0000    48.0000 </r>
       <r>   -24.0250     0.0000    48.0000 </r>
       <r>   -23.7815     0.0000    48.0000 </r>
       <r>   -23.5379     0.0000    48.0000 </r>
       <r>   -23.2944     0.0000    48.0000 </r>
       <r>   -23.0508     0.0000    48.0000 </r>
       <r>   -22.8073     0.0000    48.0000 </r>
       <r>   -22.5637     0.0000    48.0000 </r>
       <r>   -22.3202     0.0000    48.0000 </r>
       <r>   -22.0766     0.0000    48.0000 </r>
       <r>   -21.8331     0.0000    48.0000 </r>
       <r>   -21.5895     0.0000    48.0000 </r>
       <r>   -21.3460     0.0000    48.0000 </r>
       <r>   -21.1025     0.0000    48.0000 </r>
       <r>   -20.8589     0.0000    48.0000 </r>
       <r>   -20.6154     0.0000    48.0000 </r>
       <r>   -20.3718     0.0000    48.0000 </r>
       <r>   -20.1283     0.0000    48.0000 </r>
       <r>   -19.8847     0.0000    48.0000 </r>
       <r>   -19.6412     0.0000    48.0000 </r>
       <r>   -19.3976     0.0000    48.0000 </r>
       <r>   -19.1541     0.0000    48.0000 </r>
       <r>   -18.9105     0.0000    48.0000 </r>
       <r>   -18.6670     0.0000    48.0000 </r>
       <r>   -18.4234     0.0000    48.0000 </r>
       <r>   -18.1799     0.0000    48.0000 </r>
       <r>   -17.9363     0.0000    48.0000 </r>
       <r>   -17.6928     0.0000    48.0000 </r>
       <r>   -17.4492     0.0000    48.0000 </r>
       <r>   -17.2057     0.0000    48.0000 </r>
       <r>   -16.9621     0.0000    48.0000 </r>
       <r>   -16.7186     0.0000    48.0000 </r>
       <r>   -16.4750     0.0000    48.0000 </r>
       <r>   -16.2315     0.0000    48.0000 </r>
       <r>   -15.9880     0.0000    48.0000 </r>
       <r>   -15.7444     0.0000    48.0000 </r>
       <r>   -15.5009     0.0000    48.0000 </r>
       <r>   -15.2573     0.0000    48.0000 </r>
       <r>   -15.0138     0.0000    48.0000 </r>
       <r>   -14.7702     0.0000    48.0000 </r>
       <r>   -14.5267     0.0000    48.0000 </r>
       <r>   -14.2831     0.0000    48.0000 </r>
       <r>   -14.0396     0.0000    48.0000 </r>
       <r>   -13.7960     0.0000    48.0000 </r>
       <r>   -13.5525     0.0000    48.0000 </r>
       <r>   -13.3089     0.0000    48.0000 </r>
       <r>   -13.0654     0.0000    48.0000 </r>
       <r>   -12.8218     0.0000    48.0000 </r>
       <r>   -12.5783     0.0000    48.0000 </r>
       <r>   -12.3347     0.0000    48.0000 </r>
       <r>   -12.0912     0.0000    48.0000 </r>
       <r>   -11.8476     0.0000    48.0000 </r>
       <r>   -11.6041     0.0000    48.0000 </r>
       <r>   -11.3605     0.0000    48.0000 </r>
       <r>   -11.1170     0.0000    48.0000 </r>
       <r>   -10.8735     0.0000    48.0000 </r>
       <r>   -10.6299     0.0000    48.0000 </r>
       <r>   -10.3864     0.0000    48.0000 </r>
       <r>   -10.1428     0.0000    48.0000 </r>
       <r>    -9.8993     0.0000    48.0000 </r>
       <r>    -9.6557     0.0000    48.0000 </r>
       <r>    -9.4122     0.0000    48.0000 </r>
       <r>    -9.1686     0.0000    48.0000 </r>
       <r>    -8.9251     0.0000    48.0000 </r>
       <r>    -8.6815     0.0000    48.0000 </r>
       <r>    -8.4380     0.0000    48.0000 </r>
       <r>    -8.1944     0.0000    48.0000 </r>
       <r>    -7.9509     0.0000    48.0000 </r>
       <r>    -7.7073     0.0000    48.0000 </r>
       <r>    -7.4638     0.0000    48.0000 </r>
       <r>    -7.2202     0.0000    48.0000 </r>
       <r>    -6.9767     0.0000    48.0000 </r>
       <r>    -6.7331     0.0000    48.0000 </r>
       <r>    -6.4896     0.0000    48.0000 </r>
       <r>    -6.2460     0.0000    48.0000 </r>
       <r>    -6.0025     0.0000    48.0000 </r>
       <r>    -5.7590     0.0000    48.0000 </r>
       <r>    -5.5154     0.0000    48.0000 </r>
       <r>    -5.2719     0.0000    48.0000 </r>
       <r>    -5.0283     0.0000    48.0000 </r>
       <r>    -4.7848     0.0000    48.0000 </r>
       <r>    -4.5412     0.0000    48.0000 </r>
       <r>    -4.2977     0.0000    48.0000 </r>
       <r>    -4.0541     0.0000    48.0000 </r>
       <r>    -3.8106     0.0000    48.0000 </r>
       <r>    -3.5670     0.0000    48.0000 </r>
       <r>    -3.3235     0.0209    48.0051 </r>
       <r>    -3.0799     0.3212    48.1343 </r>
       <r>    -2.8364     0.7044    48.4011 </r>
       <r>    -2.5928     1.1763    48.7916 </r>
       <r>    -2.3493     1.0350    49.1755 </r>
       <r>    -2.1057     1.4003    49.6523 </r>
       <r>    -1.8622     1.6622    50.1344 </r>
       <r>    -1.6186     1.8216    50.6681 </r>
       <r>    -1.3751     3.3130    51.8681 </r>
       <r>    -1.1316     2.2755    52.8246 </r>
       <r>    -0.8880     2.5480    53.7583 </r>
       <r>    -0.6445     1.6981    54.5309 </r>
       <r>    -0.4009     2.0567    55.2611 </r>
       <r>    -0.1574     0.6365    55.6040 </r>
       <r>     0.0862     0.5588    55.8810 </r>
       <r>     0.3297     0.1496    55.9395 </r>
       <r>     0.5733     0.1676    55.9949 </r>
       <r>     0.8168     0.0000    55.9949 </r>
       <r>     1.0604     0.0634    56.0154 </r>
       <r>     1.3039     0.4140    56.1723 </r>
       <r>     1.5475     1.5823    56.6201 </r>
       <r>     1.7910     0.8095    56.9318 </r>
       <r>     2.0346     2.2126    57.6460 </r>
       <r>     2.2781     1.9995    58.5125 </r>
       <r>     2.5217     4.3627    59.9401 </r>
       <r>     2.7652     2.8461    61.2238 </r>
       <r>     3.0088     3.1005    62.3061 </r>
       <r>     3.2523     4.5936    64.0983 </r>
       <r>     3.4959     7.7163    66.7466 </r>
       <r>     3.7394     8.7968    69.9281 </r>
       <r>     3.9829     7.7873    72.8047 </r>
       <r>     4.2265    12.5211    76.8913 </r>
       <r>     4.4700     3.2498    78.6486 </r>
       <r>     4.7136     2.9414    79.7266 </r>
       <r>     4.9571     3.5508    81.0178 </r>
       <r>     5.2007     7.0406    83.3117 </r>
       <r>     5.4442     6.6971    85.6770 </r>
       <r>     5.6878     6.5676    88.0128 </r>
       <r>     5.9313     6.7427    90.5860 </r>
       <r>     6.1749     3.8966    91.8980 </r>
       <r>     6.4184     3.8711    93.4326 </r>
       <r>     6.6620     5.4806    95.4419 </r>
       <r>     6.9055     6.6550    97.7943 </r>
       <r>     7.1491     7.1463   100.6231 </r>
       <r>     7.3926     8.4487   103.4658 </r>
       <r>     7.6362    13.4226   107.8558 </r>
       <r>     7.8797     6.4760   110.8884 </r>
       <r>     8.1233     4.3990   112.5867 </r>
       <r>     8.3668     3.8298   114.1215 </r>
       <r>     8.6104     3.6223   115.5404 </r>
       <r>     8.8539     4.6332   117.2356 </r>
       <r>     9.0974     2.7638   118.6170 </r>
       <r>     9.3410     1.4235   119.3161 </r>
       <r>     9.5845     0.8599   119.6686 </r>
       <r>     9.8281     0.5363   119.8908 </r>
       <r>    10.0716     0.2555   119.9653 </r>
       <r>    10.3152     0.0419   120.0000 </r>
       <r>    10.5587     0.0000   120.0000 </r>
       <r>    10.8023     0.0000   120.0000 </r>
       <r>    11.0458     0.0000   120.0000 </r>
       <r>    11.2894     0.0000   120.0000 </r>
       <r>    11.5329     0.0000   120.0000 </r>
       <r>    11.7765     0.0000   120.0000 </r>
       <r>    12.0200     0.0000   120.0000 </r>
       <r>    12.2636     0.0000   120.0000 </r>
       <r>    12.5071     0.0000   120.0000 </r>
       <r>    12.7507     0.0000   120.0000 </r>
       <r>    12.9942     0.0000   120.0000 </r>
       <r>    13.2378     0.0000   120.0000 </r>
       <r>    13.4813     0.0000   120.0000 </r>
      </set>
     </set>
    </array>
   </total>
  </dos>
 </calculation>
 <structure name="finalpos" >
  <crystal>
   <varray name="basis" >
    <v>       5.63488743       0.00000000      -2.98440080 </v>
    <v>      -2.04183572       5.25193900      -2.98440080 </v>
    <v>       0.00000000       0.00000000       6.37641000 </v>
   </varray>
   <i name="volume">    188.70401977 </i>
   <varray name="rec_basis" >
    <v>       0.17746583       0.06899472       0.00000000 </v>
    <v>       0.00000000       0.19040587       0.00000000 </v>
    <v>       0.08306072       0.12140928       0.15682806 </v>
   </varray>
  </crystal>
  <varray name="positions" >
   <v>       0.25000000       0.25000000       0.00000000 </v>
   <v>       0.75000000       0.75000000       0.00000000 </v>
   <v>       0.50000000       0.50000000       0.00000000 </v>
   <v>       0.50000000       0.00000000       0.00000000 </v>
   <v>       0.00000000       0.00000000       0.50000000 </v>
   <v>       0.00000000       0.50000000       0.00000000 </v>
   <v>       0.50000000       0.50000000       0.50000000 </v>
   <v>       0.00000000       0.00000000       0.00000000 </v>
   <v>       0.75000000       0.25000000       0.50000000 </v>
   <v>       0.25000000       0.75000000       0.50000000 </v>
  </varray>
 </structure>
</modeling>
