 vasp.6.2.0 18Jan21 (build Jan 05 2022 15:41:44) complex                        
  
 executed on             LinuxIFC date 2025.05.07  16:17:50
 running on   24 total cores
 distrk:  each k-point on   12 cores,    2 groups
 distr:  one band on NCORE=   2 cores,    6 groups


--------------------------------------------------------------------------------------------------------


 INCAR:
   SYSTEM = routine with relax: pwdword
   ICHARG = 2
   NPAR = 6
   KPAR = 2
   NCORE = 2
   ADDGRID = T
   PREC = Acc
   ENCUT = 600
   METAGGA = R2SCAN
   LASPH = .TRUE.
   LMIXTAU = .FALSE.
   ALGO = A
   EDIFF = 1E-9
   NELM = 100
   NELMIN = 6
   IALGO = 38
   LREAL = F
   NSW = 0
   ISIF = -1
   ISMEAR = 0
   SIGMA = 0.02

 POTCAR:    PAW_PBE B 06Sep2000                   
 POTCAR:    PAW_PBE Mo_sv 02Feb2006               
 POTCAR:    PAW_PBE Si 05Jan2001                  
 -----------------------------------------------------------------------------
|                                                                             |
|           W    W    AA    RRRRR   N    N  II  N    N   GGGG   !!!           |
|           W    W   A  A   R    R  NN   N  II  NN   N  G    G  !!!           |
|           W    W  A    A  R    R  N N  N  II  N N  N  G       !!!           |
|           W WW W  AAAAAA  RRRRR   N  N N  II  N  N N  G  GGG   !            |
|           WW  WW  A    A  R   R   N   NN  II  N   NN  G    G                |
|           W    W  A    A  R    R  N    N  II  N    N   GGGG   !!!           |
|                                                                             |
|     For optimal performance we recommend to set                             |
|       NCORE = 2 up to number-of-cores-per-socket                            |
|     NCORE specifies how many cores store one orbital (NPAR=cpu/NCORE).      |
|     This setting can greatly improve the performance of VASP for DFT.       |
|     The default, NCORE=1 might be grossly inefficient on modern             |
|     multi-core architectures or massively parallel machines. Do your        |
|     own testing! More info at https://www.vasp.at/wiki/index.php/NCORE      |
|     Unfortunately you need to use the default for GW and RPA                |
|     calculations (for HF NCORE is supported but not extensively tested      |
|     yet).                                                                   |
|                                                                             |
 -----------------------------------------------------------------------------

 POTCAR:    PAW_PBE B 06Sep2000                   
   VRHFIN =B: s2p1                                                                                  
   LEXCH  = PE                                                                                      
   EATOM  =    71.1703 eV,    5.2309 Ry                                                             
                                                                                                    
   TITEL  = PAW_PBE B 06Sep2000                                                                     
   LULTRA =        F    use ultrasoft PP ?                                                          
   IUNSCR =        1    unscreen: 0-lin 1-nonlin 2-no                                               
   RPACOR =    1.200    partial core radius                                                         
   POMASS =   10.811; ZVAL   =    3.000    mass and valenz                                          
   RCORE  =    1.700    outmost cutoff radius                                                       
   RWIGS  =    1.710; RWIGS  =    0.905    wigner-seitz radius (au A)                               
   ENMAX  =  318.614; ENMIN  =  238.960 eV                                                          
   ICORE  =        2    local potential                                                             
   LCOR   =        T    correct aug charges                                                         
   LPAW   =        T    paw PP                                                                      
   EAUG   =  535.514                                                                                
   DEXC   =    0.000                                                                                
   RMAX   =    1.732    core radius for proj-oper                                                   
   RAUG   =    1.300    factor for augmentation sphere                                              
   RDEP   =    1.757    radius for radial grids                                                     
   RDEPT  =    1.436    core radius for aug-charge                                                  
                                                                                                    
   Atomic configuration                                                                             
    4 entries                                                                                       
     n  l   j            E        occ.                                                              
     1  0  0.50      -180.5896   2.0000                                                             
     2  0  0.50        -9.4431   2.0000                                                             
     2  1  0.50        -3.6068   1.0000                                                             
     3  2  1.50        -4.0817   0.0000                                                             
   Description                                                                                      
     l       E           TYP  RCUT    TYP  RCUT                                                     
     0     -9.4430752     23  1.500                                                                 
     0      0.8675899     23  1.500                                                                 
     1     -3.6067955     23  1.700                                                                 
     1      6.1086146     23  1.700                                                                 
     2     -4.0817478      7  1.700                                                                 
  local pseudopotential read in
  partial core-charges read in
  partial kinetic energy density read in
  atomic valenz-charges read in
  non local Contribution for L=           0  read in
    real space projection operators read in
  non local Contribution for L=           0  read in
    real space projection operators read in
  non local Contribution for L=           1  read in
    real space projection operators read in
  non local Contribution for L=           1  read in
    real space projection operators read in
    PAW grid and wavefunctions read in
 
   number of l-projection  operators is LMAX  =           4
   number of lm-projection operators is LMMAX =           8
 
 POTCAR:    PAW_PBE Mo_sv 02Feb2006               
   VRHFIN =Mo: 4p5s4d                                                                               
   LEXCH  = PE                                                                                      
   EATOM  =  1862.2866 eV,  136.8742 Ry                                                             
                                                                                                    
   TITEL  = PAW_PBE Mo_sv 02Feb2006                                                                 
   LULTRA =        F    use ultrasoft PP ?                                                          
   IUNSCR =        1    unscreen: 0-lin 1-nonlin 2-no                                               
   RPACOR =    2.200    partial core radius                                                         
   POMASS =   95.940; ZVAL   =   14.000    mass and valenz                                          
   RCORE  =    2.500    outmost cutoff radius                                                       
   RWIGS  =    2.750; RWIGS  =    1.455    wigner-seitz radius (au A)                               
   ENMAX  =  242.676; ENMIN  =  182.007 eV                                                          
   ICORE  =        3    local potential                                                             
   LCOR   =        T    correct aug charges                                                         
   LPAW   =        T    paw PP                                                                      
   EAUG   =  446.014                                                                                
   DEXC   =    0.000                                                                                
   RMAX   =    2.563    core radius for proj-oper                                                   
   RAUG   =    1.300    factor for augmentation sphere                                              
   RDEP   =    2.641    radius for radial grids                                                     
   RDEPT  =    2.031    core radius for aug-charge                                                  
                                                                                                    
   Atomic configuration                                                                             
   11 entries                                                                                       
     n  l   j            E        occ.                                                              
     1  0  0.50    -19819.0341   2.0000                                                             
     2  0  0.50     -2799.0127   2.0000                                                             
     2  1  1.50     -2502.0276   6.0000                                                             
     3  0  0.50      -476.4449   2.0000                                                             
     3  1  1.50      -379.1496   6.0000                                                             
     3  2  2.50      -220.9367  10.0000                                                             
     4  0  0.50       -64.3378   2.0000                                                             
     5  0  0.50        -4.0862   1.0000                                                             
     4  1  1.50       -38.4773   6.0000                                                             
     4  2  2.50        -3.7535   5.0000                                                             
     4  3  2.50        -1.3606   0.0000                                                             
   Description                                                                                      
     l       E           TYP  RCUT    TYP  RCUT                                                     
     0    -64.3377829     23  2.100                                                                 
     0     -4.0861640     23  2.400                                                                 
     1    -38.4772993     23  2.100                                                                 
     1     13.6058260     23  2.100                                                                 
     2     -3.7534941     23  2.400                                                                 
     2     -5.1140767     23  2.400                                                                 
     3     -4.0817478     23  2.500                                                                 
  local pseudopotential read in
  partial core-charges read in
  partial kinetic energy density read in
  atomic valenz-charges read in
  non local Contribution for L=           0  read in
    real space projection operators read in
  non local Contribution for L=           0  read in
    real space projection operators read in
  non local Contribution for L=           1  read in
    real space projection operators read in
  non local Contribution for L=           1  read in
    real space projection operators read in
  non local Contribution for L=           2  read in
    real space projection operators read in
  non local Contribution for L=           2  read in
    real space projection operators read in
    PAW grid and wavefunctions read in
 
   number of l-projection  operators is LMAX  =           6
   number of lm-projection operators is LMMAX =          18
 
 POTCAR:    PAW_PBE Si 05Jan2001                  
   VRHFIN =Si: s2p2                                                                                 
   LEXCH  = PE                                                                                      
   EATOM  =   103.0669 eV,    7.5752 Ry                                                             
                                                                                                    
   TITEL  = PAW_PBE Si 05Jan2001                                                                    
   LULTRA =        F    use ultrasoft PP ?                                                          
   IUNSCR =        1    unscreen: 0-lin 1-nonlin 2-no                                               
   RPACOR =    1.500    partial core radius                                                         
   POMASS =   28.085; ZVAL   =    4.000    mass and valenz                                          
   RCORE  =    1.900    outmost cutoff radius                                                       
   RWIGS  =    2.480; RWIGS  =    1.312    wigner-seitz radius (au A)                               
   ENMAX  =  245.345; ENMIN  =  184.009 eV                                                          
   ICORE  =        2    local potential                                                             
   LCOR   =        T    correct aug charges                                                         
   LPAW   =        T    paw PP                                                                      
   EAUG   =  322.069                                                                                
   DEXC   =    0.000                                                                                
   RMAX   =    1.950    core radius for proj-oper                                                   
   RAUG   =    1.300    factor for augmentation sphere                                              
   RDEP   =    1.993    radius for radial grids                                                     
   RDEPT  =    1.837    core radius for aug-charge                                                  
                                                                                                    
   Atomic configuration                                                                             
    6 entries                                                                                       
     n  l   j            E        occ.                                                              
     1  0  0.50     -1785.8828   2.0000                                                             
     2  0  0.50      -139.4969   2.0000                                                             
     2  1  1.50       -95.5546   6.0000                                                             
     3  0  0.50       -10.8127   2.0000                                                             
     3  1  0.50        -4.0811   2.0000                                                             
     3  2  1.50        -4.0817   0.0000                                                             
   Description                                                                                      
     l       E           TYP  RCUT    TYP  RCUT                                                     
     0    -10.8127223     23  1.900                                                                 
     0     -7.6451159     23  1.900                                                                 
     1     -4.0811372     23  1.900                                                                 
     1      2.4879257     23  1.900                                                                 
     2     -4.0817478      7  1.900                                                                 
  local pseudopotential read in
  partial core-charges read in
  partial kinetic energy density read in
  atomic valenz-charges read in
  non local Contribution for L=           0  read in
    real space projection operators read in
  non local Contribution for L=           0  read in
    real space projection operators read in
  non local Contribution for L=           1  read in
    real space projection operators read in
  non local Contribution for L=           1  read in
    real space projection operators read in
    PAW grid and wavefunctions read in
 
   number of l-projection  operators is LMAX  =           4
   number of lm-projection operators is LMMAX =           8
 
  PAW_PBE B 06Sep2000                   :
 energy of atom  1       EATOM=  -71.1703
 kinetic energy error for atom=    0.0007 (will be added to EATOM!!)
  PAW_PBE Mo_sv 02Feb2006               :
 energy of atom  2       EATOM=-1862.2866
 kinetic energy error for atom=    0.0041 (will be added to EATOM!!)
  PAW_PBE Si 05Jan2001                  :
 energy of atom  3       EATOM= -103.0669
 kinetic energy error for atom=    0.0003 (will be added to EATOM!!)
 
 
 POSCAR: EA78
  positions in direct lattice
  No initial velocities read in

 METAGGA = R2SCA    LMAXTAU =  6    LMIXTAU =  F

 exchange correlation table for  LEXCH =        8
   RHO(1)=    0.500       N(1)  =     2000
   RHO(2)=  100.500       N(2)  =     4000
 


--------------------------------------------------------------------------------------------------------


 ion  position               nearest neighbor table
   1  0.500  0.500  0.000-  11 2.20  12 2.20   6 2.25   8 2.25   3 2.25   5 2.25
   2  0.000  0.000  0.000-  11 2.20  12 2.20   8 2.25   6 2.25   3 2.25   5 2.25
   3  0.242  0.742  0.983-   7 2.20  10 2.20   1 2.25   2 2.25  12 3.14  11 3.14  12 3.14  11 3.14
                             8 3.18   6 3.18   6 3.18   8 3.18
   4  0.500  0.500  0.500-   6 2.20   8 2.20  12 2.25  11 2.25   7 3.18  10 3.18   7 3.18  10 3.18

   5  0.758  0.258  0.017-   7 2.20  10 2.20   1 2.25   2 2.25  12 3.14  11 3.14  11 3.14  12 3.14
                             8 3.18   6 3.18   6 3.18   8 3.18
   6  0.742  0.758  0.500-   4 2.20   9 2.20   2 2.25   1 2.25  11 3.14  11 3.14  12 3.14  12 3.14
                             5 3.18   3 3.18   5 3.18   3 3.18
   7  0.500  0.000  0.000-   3 2.20   5 2.20  11 2.25  12 2.25   4 3.18   9 3.18   4 3.18   9 3.18

   8  0.258  0.242  0.500-   4 2.20   9 2.20   1 2.25   2 2.25  12 3.14  12 3.14  11 3.14  11 3.14
                             5 3.18   3 3.18   5 3.18   3 3.18
   9  0.000  0.000  0.500-   6 2.20   8 2.20  11 2.25  12 2.25   7 3.18  10 3.18  10 3.18   7 3.18

  10  0.000  0.500  0.000-   3 2.20   5 2.20  11 2.25  12 2.25   4 3.18   9 3.18   9 3.18   4 3.18

  11  0.250  0.250  0.000-   1 2.20   2 2.20   4 2.25   9 2.25  10 2.25   7 2.25   5 3.14   3 3.14
                             6 3.14   6 3.14   8 3.14   8 3.14   5 3.14   3 3.14
  12  0.750  0.750  0.000-   1 2.20   2 2.20   9 2.25   4 2.25  10 2.25   7 2.25   5 3.14   3 3.14
                             8 3.14   8 3.14   6 3.14   6 3.14   3 3.14   5 3.14
 
  LATTYP: Found a body centered tetragonal cell.
 ALAT       =     6.3503774375
 C/A-ratio  =     1.3827656760
  
  Lattice vectors:
  
 A1 = (   5.4789411627,   0.0000000000,  -3.0694851301)
 A2 = (  -1.8814869907,   5.1457558209,  -3.0694851301)
 A3 = (   0.0000000000,   0.0000000000,   6.2801700000)


Analysis of symmetry for initial positions (statically):
=====================================================================
 Subroutine PRICEL returns:
 Original cell was already a primitive cell.
 

 Routine SETGRP: Setting up the symmetry group for a 
 body centered tetragonal supercell.


 Subroutine GETGRP returns: Found  4 space group operations
 (whereof  2 operations were pure point group operations)
 out of a pool of 16 trial point group operations.


The static configuration has the point symmetry S_2 .
 The point group associated with its full space group is C_2h.


Analysis of symmetry for dynamics (positions and initial velocities):
=====================================================================
 Subroutine PRICEL returns:
 Original cell was already a primitive cell.
 

 Routine SETGRP: Setting up the symmetry group for a 
 body centered tetragonal supercell.


 Subroutine GETGRP returns: Found  4 space group operations
 (whereof  2 operations were pure point group operations)
 out of a pool of 16 trial point group operations.


The dynamic configuration has the point symmetry S_2 .
 The point group associated with its full space group is C_2h.


 Subroutine INISYM returns: Found  4 space group operations
 (whereof  2 operations are pure point group operations),
 and found     1 'primitive' translations


----------------------------------------------------------------------------------------

                                     Primitive cell                                     

  volume of cell :     177.0587

  direct lattice vectors                    reciprocal lattice vectors
     5.478941163  0.000000000 -3.069485130     0.182517017  0.066735268  0.000000000
    -1.881486991  5.145755821 -3.069485130     0.000000000  0.194334911  0.000000000
     0.000000000  0.000000000  6.280170000     0.089206705  0.127600213  0.159231358

  length of vectors
     6.280170000  6.280170000  6.280170000     0.194334911  0.194334911  0.222697724

  position of ions in fractional coordinates (direct lattice)
     0.500000000  0.500000000  1.000000000
     0.000000000  0.000000000  0.000000000
     0.241690000  0.741690000  0.983370000
     0.500000000  0.500000000  0.500000000
     0.758310000  0.258310000  0.016630000
     0.741690000  0.758310000  0.500000000
     0.500000000  0.000000000  1.000000000
     0.258310000  0.241690000  0.500000000
     0.000000000  0.000000000  0.500000000
     0.000000000  0.500000000  0.000000000
     0.250000000  0.250000000  1.000000000
     0.750000000  0.750000000  1.000000000

  ion indices of the primitive-cell ions
   primitive index   ion index
                 1           1
                 2           2
                 3           3
                 4           4
                 5           5
                 6           6
                 7           7
                 8           8
                 9           9
                10          10
                11          11
                12          12

----------------------------------------------------------------------------------------

 
 
 KPOINTS: EA                                      

Automatic generation of k-mesh.
 Grid dimensions read from file:
 generate k-points for:    7    7    8

 Generating k-lattice:

  Cartesian coordinates                     Fractional coordinates (reciprocal lattice)
     0.026073860  0.009533610  0.000000000     0.142857143  0.000000000  0.000000000
     0.000000000  0.027762130  0.000000000     0.000000000  0.142857143  0.000000000
     0.011150838  0.015950027  0.019903920    -0.000000000  0.000000000  0.125000000

  Length of vectors
     0.027762130  0.027762130  0.027837215

  Shift w.r.t. Gamma in fractional coordinates (k-lattice)
     0.000000000  0.000000000  0.000000000

 -----------------------------------------------------------------------------
|                                                                             |
|           W    W    AA    RRRRR   N    N  II  N    N   GGGG   !!!           |
|           W    W   A  A   R    R  NN   N  II  NN   N  G    G  !!!           |
|           W    W  A    A  R    R  N N  N  II  N N  N  G       !!!           |
|           W WW W  AAAAAA  RRRRR   N  N N  II  N  N N  G  GGG   !            |
|           WW  WW  A    A  R   R   N   NN  II  N   NN  G    G                |
|           W    W  A    A  R    R  N    N  II  N    N   GGGG   !!!           |
|                                                                             |
|     Your reciprocal lattice and k-lattice belong to different lattice       |
|     classes:                                                                |
|                                                                             |
|        The reciprocal lattice is body-centered tetragonal,                  |
|        whereas your k-lattice is base-centered monoclinic.                  |
|                                                                             |
|     Results are often still useful ...                                      |
|                                                                             |
 -----------------------------------------------------------------------------

 WARNING: IBZKPT: internal override: KBLOWUP is changed to .FALSE.
      ... skipping the blow-up phase ...

 
 Subroutine IBZKPT returns following result:
 ===========================================
 
 Found    116 irreducible k-points:
 
 Following reciprocal coordinates:
            Coordinates               Weight
  0.000000  0.000000  0.000000      1.000000
  0.142857 -0.000000  0.000000      4.000000
  0.285714 -0.000000  0.000000      4.000000
  0.428571 -0.000000  0.000000      4.000000
  0.142857  0.142857  0.000000      2.000000
  0.285714  0.142857  0.000000      4.000000
  0.428571  0.142857  0.000000      4.000000
 -0.428571  0.142857  0.000000      4.000000
 -0.285714  0.142857  0.000000      4.000000
 -0.142857  0.142857  0.000000      2.000000
  0.285714  0.285714  0.000000      2.000000
  0.428571  0.285714  0.000000      4.000000
 -0.428571  0.285714  0.000000      4.000000
 -0.285714  0.285714  0.000000      2.000000
  0.428571  0.428571  0.000000      2.000000
 -0.428571  0.428571  0.000000      2.000000
  0.000000 -0.000000  0.125000      2.000000
  0.142857 -0.000000  0.125000      4.000000
  0.285714 -0.000000  0.125000      4.000000
  0.428571 -0.000000  0.125000      4.000000
 -0.428571  0.000000  0.125000      4.000000
 -0.285714  0.000000  0.125000      4.000000
 -0.142857 -0.000000  0.125000      4.000000
  0.142857  0.142857  0.125000      2.000000
  0.285714  0.142857  0.125000      4.000000
  0.428571  0.142857  0.125000      4.000000
 -0.428571  0.142857  0.125000      4.000000
 -0.285714  0.142857  0.125000      4.000000
 -0.142857  0.142857  0.125000      4.000000
  0.285714  0.285714  0.125000      2.000000
  0.428571  0.285714  0.125000      4.000000
 -0.428571  0.285714  0.125000      4.000000
 -0.285714  0.285714  0.125000      4.000000
 -0.142857  0.285714  0.125000      4.000000
  0.428571  0.428571  0.125000      2.000000
 -0.428571  0.428571  0.125000      4.000000
 -0.285714  0.428571  0.125000      4.000000
 -0.142857  0.428571  0.125000      4.000000
 -0.428571 -0.428571  0.125000      2.000000
 -0.285714 -0.428571  0.125000      4.000000
 -0.142857 -0.428571  0.125000      4.000000
 -0.285714 -0.285714  0.125000      2.000000
 -0.142857 -0.285714  0.125000      4.000000
 -0.142857 -0.142857  0.125000      2.000000
  0.000000 -0.000000  0.250000      2.000000
  0.142857 -0.000000  0.250000      4.000000
  0.285714 -0.000000  0.250000      4.000000
  0.428571 -0.000000  0.250000      4.000000
 -0.428571  0.000000  0.250000      4.000000
 -0.285714  0.000000  0.250000      4.000000
 -0.142857 -0.000000  0.250000      4.000000
  0.142857  0.142857  0.250000      2.000000
  0.285714  0.142857  0.250000      4.000000
  0.428571  0.142857  0.250000      4.000000
 -0.428571  0.142857  0.250000      4.000000
 -0.285714  0.142857  0.250000      4.000000
 -0.142857  0.142857  0.250000      4.000000
  0.285714  0.285714  0.250000      2.000000
  0.428571  0.285714  0.250000      4.000000
 -0.428571  0.285714  0.250000      4.000000
 -0.285714  0.285714  0.250000      4.000000
 -0.142857  0.285714  0.250000      4.000000
  0.428571  0.428571  0.250000      2.000000
 -0.428571  0.428571  0.250000      4.000000
 -0.285714  0.428571  0.250000      4.000000
 -0.142857  0.428571  0.250000      4.000000
 -0.428571 -0.428571  0.250000      2.000000
 -0.285714 -0.428571  0.250000      4.000000
 -0.142857 -0.428571  0.250000      4.000000
 -0.285714 -0.285714  0.250000      2.000000
 -0.142857 -0.285714  0.250000      4.000000
 -0.142857 -0.142857  0.250000      2.000000
  0.000000 -0.000000  0.375000      2.000000
  0.142857 -0.000000  0.375000      4.000000
  0.285714 -0.000000  0.375000      4.000000
  0.428571 -0.000000  0.375000      4.000000
 -0.428571  0.000000  0.375000      4.000000
 -0.285714  0.000000  0.375000      4.000000
 -0.142857  0.000000  0.375000      4.000000
  0.142857  0.142857  0.375000      2.000000
  0.285714  0.142857  0.375000      4.000000
  0.428571  0.142857  0.375000      4.000000
 -0.428571  0.142857  0.375000      4.000000
 -0.285714  0.142857  0.375000      4.000000
 -0.142857  0.142857  0.375000      4.000000
  0.285714  0.285714  0.375000      2.000000
  0.428571  0.285714  0.375000      4.000000
 -0.428571  0.285714  0.375000      4.000000
 -0.285714  0.285714  0.375000      4.000000
 -0.142857  0.285714  0.375000      4.000000
  0.428571  0.428571  0.375000      2.000000
 -0.428571  0.428571  0.375000      4.000000
 -0.285714  0.428571  0.375000      4.000000
 -0.142857  0.428571  0.375000      4.000000
 -0.428571 -0.428571  0.375000      2.000000
 -0.285714 -0.428571  0.375000      4.000000
 -0.142857 -0.428571  0.375000      4.000000
 -0.285714 -0.285714  0.375000      2.000000
 -0.142857 -0.285714  0.375000      4.000000
 -0.142857 -0.142857  0.375000      2.000000
  0.000000 -0.000000  0.500000      1.000000
  0.142857 -0.000000  0.500000      4.000000
  0.285714 -0.000000  0.500000      4.000000
  0.428571 -0.000000  0.500000      4.000000
  0.142857  0.142857  0.500000      2.000000
  0.285714  0.142857  0.500000      4.000000
  0.428571  0.142857  0.500000      4.000000
 -0.428571  0.142857  0.500000      4.000000
 -0.285714  0.142857  0.500000      4.000000
 -0.142857  0.142857  0.500000      2.000000
  0.285714  0.285714  0.500000      2.000000
  0.428571  0.285714  0.500000      4.000000
 -0.428571  0.285714  0.500000      4.000000
 -0.285714  0.285714  0.500000      2.000000
  0.428571  0.428571  0.500000      2.000000
 -0.428571  0.428571  0.500000      2.000000
 
 Following cartesian coordinates:
            Coordinates               Weight
  0.000000  0.000000  0.000000      1.000000
  0.026074  0.009534  0.000000      4.000000
  0.052148  0.019067  0.000000      4.000000
  0.078222  0.028601  0.000000      4.000000
  0.026074  0.037296  0.000000      2.000000
  0.052148  0.046829  0.000000      4.000000
  0.078222  0.056363  0.000000      4.000000
 -0.078222 -0.000839  0.000000      4.000000
 -0.052148  0.008695  0.000000      4.000000
 -0.026074  0.018229  0.000000      2.000000
  0.052148  0.074591  0.000000      2.000000
  0.078222  0.084125  0.000000      4.000000
 -0.078222  0.026923  0.000000      4.000000
 -0.052148  0.036457  0.000000      2.000000
  0.078222  0.111887  0.000000      2.000000
 -0.078222  0.054686  0.000000      2.000000
  0.011151  0.015950  0.019904      2.000000
  0.037225  0.025484  0.019904      4.000000
  0.063299  0.035017  0.019904      4.000000
  0.089372  0.044551  0.019904      4.000000
 -0.067071 -0.012651  0.019904      4.000000
 -0.040997 -0.003117  0.019904      4.000000
 -0.014923  0.006416  0.019904      4.000000
  0.037225  0.053246  0.019904      2.000000
  0.063299  0.062779  0.019904      4.000000
  0.089372  0.072313  0.019904      4.000000
 -0.067071  0.015111  0.019904      4.000000
 -0.040997  0.024645  0.019904      4.000000
 -0.014923  0.034179  0.019904      4.000000
  0.063299  0.090542  0.019904      2.000000
  0.089372  0.100075  0.019904      4.000000
 -0.067071  0.042873  0.019904      4.000000
 -0.040997  0.052407  0.019904      4.000000
 -0.014923  0.061941  0.019904      4.000000
  0.089372  0.127837  0.019904      2.000000
 -0.067071  0.070636  0.019904      4.000000
 -0.040997  0.080169  0.019904      4.000000
 -0.014923  0.089703  0.019904      4.000000
 -0.067071 -0.095937  0.019904      2.000000
 -0.040997 -0.086404  0.019904      4.000000
 -0.014923 -0.076870  0.019904      4.000000
 -0.040997 -0.058641  0.019904      2.000000
 -0.014923 -0.049108  0.019904      4.000000
 -0.014923 -0.021346  0.019904      2.000000
  0.022302  0.031900  0.039808      2.000000
  0.048376  0.041434  0.039808      4.000000
  0.074449  0.050967  0.039808      4.000000
  0.100523  0.060501  0.039808      4.000000
 -0.055920  0.003299  0.039808      4.000000
 -0.029846  0.012833  0.039808      4.000000
 -0.003772  0.022366  0.039808      4.000000
  0.048376  0.069196  0.039808      2.000000
  0.074449  0.078729  0.039808      4.000000
  0.100523  0.088263  0.039808      4.000000
 -0.055920  0.031061  0.039808      4.000000
 -0.029846  0.040595  0.039808      4.000000
 -0.003772  0.050129  0.039808      4.000000
  0.074449  0.106492  0.039808      2.000000
  0.100523  0.116025  0.039808      4.000000
 -0.055920  0.058823  0.039808      4.000000
 -0.029846  0.068357  0.039808      4.000000
 -0.003772  0.077891  0.039808      4.000000
  0.100523  0.143787  0.039808      2.000000
 -0.055920  0.086586  0.039808      4.000000
 -0.029846  0.096119  0.039808      4.000000
 -0.003772  0.105653  0.039808      4.000000
 -0.055920 -0.079987  0.039808      2.000000
 -0.029846 -0.070454  0.039808      4.000000
 -0.003772 -0.060920  0.039808      4.000000
 -0.029846 -0.042691  0.039808      2.000000
 -0.003772 -0.033158  0.039808      4.000000
 -0.003772 -0.005396  0.039808      2.000000
  0.033453  0.047850  0.059712      2.000000
  0.059526  0.057384  0.059712      4.000000
  0.085600  0.066917  0.059712      4.000000
  0.111674  0.076451  0.059712      4.000000
 -0.044769  0.019249  0.059712      4.000000
 -0.018695  0.028783  0.059712      4.000000
  0.007379  0.038316  0.059712      4.000000
  0.059526  0.085146  0.059712      2.000000
  0.085600  0.094679  0.059712      4.000000
  0.111674  0.104213  0.059712      4.000000
 -0.044769  0.047011  0.059712      4.000000
 -0.018695  0.056545  0.059712      4.000000
  0.007379  0.066079  0.059712      4.000000
  0.085600  0.122442  0.059712      2.000000
  0.111674  0.131975  0.059712      4.000000
 -0.044769  0.074774  0.059712      4.000000
 -0.018695  0.084307  0.059712      4.000000
  0.007379  0.093841  0.059712      4.000000
  0.111674  0.159737  0.059712      2.000000
 -0.044769  0.102536  0.059712      4.000000
 -0.018695  0.112069  0.059712      4.000000
  0.007379  0.121603  0.059712      4.000000
 -0.044769 -0.064037  0.059712      2.000000
 -0.018695 -0.054504  0.059712      4.000000
  0.007379 -0.044970  0.059712      4.000000
 -0.018695 -0.026741  0.059712      2.000000
  0.007379 -0.017208  0.059712      4.000000
  0.007379  0.010554  0.059712      2.000000
  0.044603  0.063800  0.079616      1.000000
  0.070677  0.073334  0.079616      4.000000
  0.096751  0.082867  0.079616      4.000000
  0.122825  0.092401  0.079616      4.000000
  0.070677  0.101096  0.079616      2.000000
  0.096751  0.110629  0.079616      4.000000
  0.122825  0.120163  0.079616      4.000000
 -0.033618  0.062961  0.079616      4.000000
 -0.007544  0.072495  0.079616      4.000000
  0.018529  0.082029  0.079616      2.000000
  0.096751  0.138392  0.079616      2.000000
  0.122825  0.147925  0.079616      4.000000
 -0.033618  0.090724  0.079616      4.000000
 -0.007544  0.100257  0.079616      2.000000
  0.122825  0.175687  0.079616      2.000000
 -0.033618  0.118486  0.079616      2.000000
 


--------------------------------------------------------------------------------------------------------




 Dimension of arrays:
   k-points           NKPTS =    116   k-points in BZ     NKDIM =    116   number of bands    NBANDS=     78
   number of dos      NEDOS =    301   number of ions     NIONS =     12
   non local maximal  LDIM  =      6   non local SUM 2l+1 LMDIM =     18
   total plane-waves  NPLWV = 125000
   max r-space proj   IRMAX =      1   max aug-charges    IRDMAX= 247160
   dimension x,y,z NGX =    50 NGY =   50 NGZ =   50
   dimension x,y,z NGXF=   100 NGYF=  100 NGZF=  100
   support grid    NGXF=   200 NGYF=  200 NGZF=  200
   ions per type =               2   8   2
   NGX,Y,Z   is equivalent  to a cutoff of  13.24, 13.24, 13.24 a.u.
   NGXF,Y,Z  is equivalent  to a cutoff of  26.47, 26.47, 26.47 a.u.

 SYSTEM =  routine with relax: pwdword             
 POSCAR =  EA78                                    

 Startparameter for this run:
   NWRITE =      2    write-flag & timer
   PREC   = acc       normal or accurate (medium, high low for compatibility)
   ISTART =      0    job   : 0-new  1-cont  2-samecut
   ICHARG =      2    charge: 1-file 2-atom 10-const
   ISPIN  =      1    spin polarized calculation?
   LNONCOLLINEAR =      F non collinear calculations
   LSORBIT =      F    spin-orbit coupling
   INIWAV =      1    electr: 0-lowe 1-rand  2-diag
   LASPH  =      T    aspherical Exc in radial PAW
   METAGGA=      F    non-selfconsistent MetaGGA calc.

 Electronic Relaxation 1
   ENCUT  =  600.0 eV  44.10 Ry    6.64 a.u.  12.54 12.54 12.54*2*pi/ulx,y,z
   ENINI  =  600.0     initial cutoff
   ENAUG  =  535.5 eV  augmentation charge cutoff
   NELM   =    100;   NELMIN=  6; NELMDL= -5     # of ELM steps 
   EDIFF  = 0.1E-08   stopping-criterion for ELM
   LREAL  =      F    real-space projection
   NLSPLINE    = F    spline interpolate recip. space projectors
   LCOMPAT=      F    compatible to vasp.4.4
   GGA_COMPAT  = T    GGA compatible to vasp.4.4-vasp.4.6
   LMAXPAW     = -100 max onsite density
   LMAXMIX     =    2 max onsite mixed and CHGCAR
   VOSKOWN=      0    Vosko Wilk Nusair interpolation
   ROPT   =    0.00000   0.00000   0.00000
 Ionic relaxation
   EDIFFG = 0.1E-07   stopping-criterion for IOM
   NSW    =      0    number of steps for IOM
   NBLOCK =      1;   KBLOCK =      1    inner block; outer block 
   IBRION =     -1    ionic relax: 0-MD 1-quasi-New 2-CG
   NFREE  =      0    steps in history (QN), initial steepest desc. (CG)
   ISIF   =     -1    stress and relaxation
   IWAVPR =     10    prediction:  0-non 1-charg 2-wave 3-comb
   ISYM   =      2    0-nonsym 1-usesym 2-fastsym
   LCORR  =      T    Harris-Foulkes like correction to forces

   POTIM  = 0.5000    time-step for ionic-motion
   TEIN   =    0.0    initial temperature
   TEBEG  =    0.0;   TEEND  =   0.0 temperature during run
   SMASS  =  -3.00    Nose mass-parameter (am)
   estimated Nose-frequenzy (Omega)   =  0.10E-29 period in steps = 0.13E+47 mass=  -0.901E-27a.u.
   SCALEE = 1.0000    scale energy and forces
   NPACO  =    256;   APACO  = 16.0  distance and # of slots for P.C.
   PSTRESS=    0.0 pullay stress

  Mass of Ions in am
   POMASS =  10.81 95.94 28.09
  Ionic Valenz
   ZVAL   =   3.00 14.00  4.00
  Atomic Wigner-Seitz radii
   RWIGS  =  -1.00 -1.00 -1.00
  virtual crystal weights 
   VCA    =   1.00  1.00  1.00
   NELECT =     126.0000    total number of electrons
   NUPDOWN=      -1.0000    fix difference up-down

 DOS related values:
   EMIN   =  10.00;   EMAX   =-10.00  energy-range for DOS
   EFERMI =   0.00
   ISMEAR =     0;   SIGMA  =   0.02  broadening in eV -4-tet -1-fermi 0-gaus

 Electronic relaxation 2 (details)
   IALGO  =     58    algorithm
   LDIAG  =      T    sub-space diagonalisation (order eigenvalues)
   LSUBROT=      F    optimize rotation matrix (better conditioning)
   TURBO    =      0    0=normal 1=particle mesh
   IRESTART =      0    0=no restart 2=restart with 2 vectors
   NREBOOT  =      0    no. of reboots
   NMIN     =      0    reboot dimension
   EREF     =   0.00    reference energy to select bands
   IMIX   =      4    mixing-type and parameters
     AMIX     =   0.40;   BMIX     =  1.00
     AMIX_MAG =   1.60;   BMIX_MAG =  1.00
     AMIN     =   0.10
     WC   =   100.;   INIMIX=   1;  MIXPRE=   1;  MAXMIX= -45

 Intra band minimization:
   WEIMIN = 0.0000     energy-eigenvalue tresh-hold
   EBREAK =  0.32E-11  absolut break condition
   DEPER  =   0.30     relativ break condition  

   TIME   =   0.40     timestep for ELM

  volume/ion in A,a.u.               =      14.75        99.57
  Fermi-wavevector in a.u.,A,eV,Ry     =   1.461591  2.762007 29.065433  2.136249
  Thomas-Fermi vector in A             =   2.577905
 
 Write flags
   LWAVE        =      T    write WAVECAR
   LDOWNSAMPLE  =      F    k-point downsampling of WAVECAR
   LCHARG       =      T    write CHGCAR
   LVTOT        =      F    write LOCPOT, total local potential
   LVHAR        =      F    write LOCPOT, Hartree potential only
   LELF         =      F    write electronic localiz. function (ELF)
   LORBIT       =      0    0 simple, 1 ext, 2 COOP (PROOUT), +10 PAW based schemes


 Dipole corrections
   LMONO  =      F    monopole corrections only (constant potential shift)
   LDIPOL =      F    correct potential (dipole corrections)
   IDIPOL =      0    1-x, 2-y, 3-z, 4-all directions 
   EPSILON=  1.0000000 bulk dielectric constant

 Exchange correlation treatment:
   GGA     =    --    GGA type
   LEXCH   =     8    internal setting for exchange type
   VOSKOWN=      0    Vosko Wilk Nusair interpolation
   LHFCALC =     F    Hartree Fock is set to
   LHFONE  =     F    Hartree Fock one center treatment
   AEXX    =    0.0000 exact exchange contribution

 Linear response parameters
   LEPSILON=     F    determine dielectric tensor
   LRPA    =     F    only Hartree local field effects (RPA)
   LNABLA  =     F    use nabla operator in PAW spheres
   LVEL    =     F    velocity operator in full k-point grid
   LINTERFAST=   F  fast interpolation
   KINTER  =     0    interpolate to denser k-point grid
   CSHIFT  =0.1000    complex shift for real part using Kramers Kronig
   OMEGAMAX=  -1.0    maximum frequency
   DEG_THRESHOLD= 0.2000000E-02 threshold for treating states as degnerate
   RTIME   =   -0.100 relaxation time in fs
  (WPLASMAI=    0.000 imaginary part of plasma frequency in eV, 0.658/RTIME)
   DFIELD  = 0.0000000 0.0000000 0.0000000 field for delta impulse in time
 
 Orbital magnetization related:
   ORBITALMAG=     F  switch on orbital magnetization
   LCHIMAG   =     F  perturbation theory with respect to B field
   DQ        =  0.001000  dq finite difference perturbation B field
   LLRAUG    =     F  two centre corrections for induced B field



--------------------------------------------------------------------------------------------------------


 Static calculation
 charge density and potential will be updated during run
 non-spin polarized calculation
 Conjugate gradient for all bands (Freysoldt, et al. PRB 79, 241103 (2009))
 preconditioned conjugated gradient                                        
 perform sub-space diagonalisation
    before iterative eigenvector-optimisation
 modified Broyden-mixing scheme, WC =      100.0
 initial mixing is a Kerker type mixing with AMIX =  0.4000 and BMIX =      1.0000
 Hartree-type preconditioning will be used
 using additional bands           15
 reciprocal scheme for non local part
 use partial core corrections
 no Harris-corrections to forces 
 use gradient corrections 
 use of overlap-Matrix (Vanderbilt PP)
 Gauss-broadening in eV      SIGMA  =   0.02


--------------------------------------------------------------------------------------------------------


  energy-cutoff  :      600.00
  volume of cell :      177.06
      direct lattice vectors                 reciprocal lattice vectors
     5.478941163  0.000000000 -3.069485130     0.182517017  0.066735268  0.000000000
    -1.881486991  5.145755821 -3.069485130     0.000000000  0.194334911  0.000000000
     0.000000000  0.000000000  6.280170000     0.089206705  0.127600213  0.159231358

  length of vectors
     6.280170000  6.280170000  6.280170000     0.194334911  0.194334911  0.222697724


 
 k-points in units of 2pi/SCALE and weight: EA                                      
   0.00000000  0.00000000  0.00000000       0.003
   0.02607386  0.00953361  0.00000000       0.010
   0.05214772  0.01906722  0.00000000       0.010
   0.07822158  0.02860083  0.00000000       0.010
   0.02607386  0.03729574  0.00000000       0.005
   0.05214772  0.04682935  0.00000000       0.010
   0.07822158  0.05636296  0.00000000       0.010
  -0.07822158 -0.00083870  0.00000000       0.010
  -0.05214772  0.00869491  0.00000000       0.010
  -0.02607386  0.01822852  0.00000000       0.005
   0.05214772  0.07459148  0.00000000       0.005
   0.07822158  0.08412509  0.00000000       0.010
  -0.07822158  0.02692343  0.00000000       0.010
  -0.05214772  0.03645704  0.00000000       0.005
   0.07822158  0.11188722  0.00000000       0.005
  -0.07822158  0.05468556  0.00000000       0.005
   0.01115084  0.01595003  0.01990392       0.005
   0.03722470  0.02548364  0.01990392       0.010
   0.06329856  0.03501725  0.01990392       0.010
   0.08937242  0.04455086  0.01990392       0.010
  -0.06707074 -0.01265080  0.01990392       0.010
  -0.04099688 -0.00311719  0.01990392       0.010
  -0.01492302  0.00641642  0.01990392       0.010
   0.03722470  0.05324577  0.01990392       0.005
   0.06329856  0.06277938  0.01990392       0.010
   0.08937242  0.07231299  0.01990392       0.010
  -0.06707074  0.01511133  0.01990392       0.010
  -0.04099688  0.02464494  0.01990392       0.010
  -0.01492302  0.03417855  0.01990392       0.010
   0.06329856  0.09054151  0.01990392       0.005
   0.08937242  0.10007512  0.01990392       0.010
  -0.06707074  0.04287346  0.01990392       0.010
  -0.04099688  0.05240707  0.01990392       0.010
  -0.01492302  0.06194068  0.01990392       0.010
   0.08937242  0.12783725  0.01990392       0.005
  -0.06707074  0.07063559  0.01990392       0.010
  -0.04099688  0.08016920  0.01990392       0.010
  -0.01492302  0.08970281  0.01990392       0.010
  -0.06707074 -0.09593719  0.01990392       0.005
  -0.04099688 -0.08640358  0.01990392       0.010
  -0.01492302 -0.07686997  0.01990392       0.010
  -0.04099688 -0.05864145  0.01990392       0.005
  -0.01492302 -0.04910784  0.01990392       0.010
  -0.01492302 -0.02134571  0.01990392       0.005
   0.02230168  0.03190005  0.03980784       0.005
   0.04837554  0.04143366  0.03980784       0.010
   0.07444940  0.05096727  0.03980784       0.010
   0.10052326  0.06050088  0.03980784       0.010
  -0.05591990  0.00329922  0.03980784       0.010
  -0.02984604  0.01283283  0.03980784       0.010
  -0.00377218  0.02236644  0.03980784       0.010
   0.04837554  0.06919579  0.03980784       0.005
   0.07444940  0.07872940  0.03980784       0.010
   0.10052326  0.08826301  0.03980784       0.010
  -0.05591990  0.03106135  0.03980784       0.010
  -0.02984604  0.04059496  0.03980784       0.010
  -0.00377218  0.05012857  0.03980784       0.010
   0.07444940  0.10649153  0.03980784       0.005
   0.10052326  0.11602514  0.03980784       0.010
  -0.05591990  0.05882348  0.03980784       0.010
  -0.02984604  0.06835709  0.03980784       0.010
  -0.00377218  0.07789070  0.03980784       0.010
   0.10052326  0.14378727  0.03980784       0.005
  -0.05591990  0.08658561  0.03980784       0.010
  -0.02984604  0.09611922  0.03980784       0.010
  -0.00377218  0.10565283  0.03980784       0.010
  -0.05591990 -0.07998717  0.03980784       0.005
  -0.02984604 -0.07045356  0.03980784       0.010
  -0.00377218 -0.06091995  0.03980784       0.010
  -0.02984604 -0.04269143  0.03980784       0.005
  -0.00377218 -0.03315782  0.03980784       0.010
  -0.00377218 -0.00539569  0.03980784       0.005
   0.03345251  0.04785008  0.05971176       0.005
   0.05952637  0.05738369  0.05971176       0.010
   0.08560023  0.06691730  0.05971176       0.010
   0.11167409  0.07645091  0.05971176       0.010
  -0.04476906  0.01924925  0.05971176       0.010
  -0.01869520  0.02878286  0.05971176       0.010
   0.00737865  0.03831647  0.05971176       0.010
   0.05952637  0.08514582  0.05971176       0.005
   0.08560023  0.09467943  0.05971176       0.010
   0.11167409  0.10421304  0.05971176       0.010
  -0.04476906  0.04701138  0.05971176       0.010
  -0.01869520  0.05654499  0.05971176       0.010
   0.00737865  0.06607860  0.05971176       0.010
   0.08560023  0.12244156  0.05971176       0.005
   0.11167409  0.13197517  0.05971176       0.010
  -0.04476906  0.07477351  0.05971176       0.010
  -0.01869520  0.08430712  0.05971176       0.010
   0.00737865  0.09384073  0.05971176       0.010
   0.11167409  0.15973730  0.05971176       0.005
  -0.04476906  0.10253564  0.05971176       0.010
  -0.01869520  0.11206925  0.05971176       0.010
   0.00737865  0.12160286  0.05971176       0.010
  -0.04476906 -0.06403714  0.05971176       0.005
  -0.01869520 -0.05450353  0.05971176       0.010
   0.00737865 -0.04496992  0.05971176       0.010
  -0.01869520 -0.02674140  0.05971176       0.005
   0.00737865 -0.01720779  0.05971176       0.010
   0.00737865  0.01055434  0.05971176       0.005
   0.04460335  0.06380011  0.07961568       0.003
   0.07067721  0.07333372  0.07961568       0.010
   0.09675107  0.08286733  0.07961568       0.010
   0.12282493  0.09240094  0.07961568       0.010
   0.07067721  0.10109585  0.07961568       0.005
   0.09675107  0.11062946  0.07961568       0.010
   0.12282493  0.12016307  0.07961568       0.010
  -0.03361823  0.06296141  0.07961568       0.010
  -0.00754437  0.07249502  0.07961568       0.010
   0.01852949  0.08202863  0.07961568       0.005
   0.09675107  0.13839159  0.07961568       0.005
   0.12282493  0.14792520  0.07961568       0.010
  -0.03361823  0.09072354  0.07961568       0.010
  -0.00754437  0.10025715  0.07961568       0.005
   0.12282493  0.17568733  0.07961568       0.005
  -0.03361823  0.11848567  0.07961568       0.005
 
 k-points in reciprocal lattice and weights: EA                                      
   0.00000000  0.00000000  0.00000000       0.003
   0.14285714 -0.00000000  0.00000000       0.010
   0.28571429 -0.00000000  0.00000000       0.010
   0.42857143 -0.00000000  0.00000000       0.010
   0.14285714  0.14285714  0.00000000       0.005
   0.28571429  0.14285714  0.00000000       0.010
   0.42857143  0.14285714  0.00000000       0.010
  -0.42857143  0.14285714  0.00000000       0.010
  -0.28571429  0.14285714  0.00000000       0.010
  -0.14285714  0.14285714  0.00000000       0.005
   0.28571429  0.28571429  0.00000000       0.005
   0.42857143  0.28571429  0.00000000       0.010
  -0.42857143  0.28571429  0.00000000       0.010
  -0.28571429  0.28571429  0.00000000       0.005
   0.42857143  0.42857143  0.00000000       0.005
  -0.42857143  0.42857143  0.00000000       0.005
   0.00000000 -0.00000000  0.12500000       0.005
   0.14285714 -0.00000000  0.12500000       0.010
   0.28571429 -0.00000000  0.12500000       0.010
   0.42857143 -0.00000000  0.12500000       0.010
  -0.42857143  0.00000000  0.12500000       0.010
  -0.28571429  0.00000000  0.12500000       0.010
  -0.14285714 -0.00000000  0.12500000       0.010
   0.14285714  0.14285714  0.12500000       0.005
   0.28571429  0.14285714  0.12500000       0.010
   0.42857143  0.14285714  0.12500000       0.010
  -0.42857143  0.14285714  0.12500000       0.010
  -0.28571429  0.14285714  0.12500000       0.010
  -0.14285714  0.14285714  0.12500000       0.010
   0.28571429  0.28571429  0.12500000       0.005
   0.42857143  0.28571429  0.12500000       0.010
  -0.42857143  0.28571429  0.12500000       0.010
  -0.28571429  0.28571429  0.12500000       0.010
  -0.14285714  0.28571429  0.12500000       0.010
   0.42857143  0.42857143  0.12500000       0.005
  -0.42857143  0.42857143  0.12500000       0.010
  -0.28571429  0.42857143  0.12500000       0.010
  -0.14285714  0.42857143  0.12500000       0.010
  -0.42857143 -0.42857143  0.12500000       0.005
  -0.28571429 -0.42857143  0.12500000       0.010
  -0.14285714 -0.42857143  0.12500000       0.010
  -0.28571429 -0.28571429  0.12500000       0.005
  -0.14285714 -0.28571429  0.12500000       0.010
  -0.14285714 -0.14285714  0.12500000       0.005
   0.00000000 -0.00000000  0.25000000       0.005
   0.14285714 -0.00000000  0.25000000       0.010
   0.28571429 -0.00000000  0.25000000       0.010
   0.42857143 -0.00000000  0.25000000       0.010
  -0.42857143  0.00000000  0.25000000       0.010
  -0.28571429  0.00000000  0.25000000       0.010
  -0.14285714 -0.00000000  0.25000000       0.010
   0.14285714  0.14285714  0.25000000       0.005
   0.28571429  0.14285714  0.25000000       0.010
   0.42857143  0.14285714  0.25000000       0.010
  -0.42857143  0.14285714  0.25000000       0.010
  -0.28571429  0.14285714  0.25000000       0.010
  -0.14285714  0.14285714  0.25000000       0.010
   0.28571429  0.28571429  0.25000000       0.005
   0.42857143  0.28571429  0.25000000       0.010
  -0.42857143  0.28571429  0.25000000       0.010
  -0.28571429  0.28571429  0.25000000       0.010
  -0.14285714  0.28571429  0.25000000       0.010
   0.42857143  0.42857143  0.25000000       0.005
  -0.42857143  0.42857143  0.25000000       0.010
  -0.28571429  0.42857143  0.25000000       0.010
  -0.14285714  0.42857143  0.25000000       0.010
  -0.42857143 -0.42857143  0.25000000       0.005
  -0.28571429 -0.42857143  0.25000000       0.010
  -0.14285714 -0.42857143  0.25000000       0.010
  -0.28571429 -0.28571429  0.25000000       0.005
  -0.14285714 -0.28571429  0.25000000       0.010
  -0.14285714 -0.14285714  0.25000000       0.005
   0.00000000 -0.00000000  0.37500000       0.005
   0.14285714 -0.00000000  0.37500000       0.010
   0.28571429 -0.00000000  0.37500000       0.010
   0.42857143 -0.00000000  0.37500000       0.010
  -0.42857143  0.00000000  0.37500000       0.010
  -0.28571429  0.00000000  0.37500000       0.010
  -0.14285714  0.00000000  0.37500000       0.010
   0.14285714  0.14285714  0.37500000       0.005
   0.28571429  0.14285714  0.37500000       0.010
   0.42857143  0.14285714  0.37500000       0.010
  -0.42857143  0.14285714  0.37500000       0.010
  -0.28571429  0.14285714  0.37500000       0.010
  -0.14285714  0.14285714  0.37500000       0.010
   0.28571429  0.28571429  0.37500000       0.005
   0.42857143  0.28571429  0.37500000       0.010
  -0.42857143  0.28571429  0.37500000       0.010
  -0.28571429  0.28571429  0.37500000       0.010
  -0.14285714  0.28571429  0.37500000       0.010
   0.42857143  0.42857143  0.37500000       0.005
  -0.42857143  0.42857143  0.37500000       0.010
  -0.28571429  0.42857143  0.37500000       0.010
  -0.14285714  0.42857143  0.37500000       0.010
  -0.42857143 -0.42857143  0.37500000       0.005
  -0.28571429 -0.42857143  0.37500000       0.010
  -0.14285714 -0.42857143  0.37500000       0.010
  -0.28571429 -0.28571429  0.37500000       0.005
  -0.14285714 -0.28571429  0.37500000       0.010
  -0.14285714 -0.14285714  0.37500000       0.005
   0.00000000 -0.00000000  0.50000000       0.003
   0.14285714 -0.00000000  0.50000000       0.010
   0.28571429 -0.00000000  0.50000000       0.010
   0.42857143 -0.00000000  0.50000000       0.010
   0.14285714  0.14285714  0.50000000       0.005
   0.28571429  0.14285714  0.50000000       0.010
   0.42857143  0.14285714  0.50000000       0.010
  -0.42857143  0.14285714  0.50000000       0.010
  -0.28571429  0.14285714  0.50000000       0.010
  -0.14285714  0.14285714  0.50000000       0.005
   0.28571429  0.28571429  0.50000000       0.005
   0.42857143  0.28571429  0.50000000       0.010
  -0.42857143  0.28571429  0.50000000       0.010
  -0.28571429  0.28571429  0.50000000       0.005
   0.42857143  0.42857143  0.50000000       0.005
  -0.42857143  0.42857143  0.50000000       0.005
 
 position of ions in fractional coordinates (direct lattice) 
   0.50000000  0.50000000  0.00000000
   0.00000000  0.00000000  0.00000000
   0.24169000  0.74169000  0.98337000
   0.50000000  0.50000000  0.50000000
   0.75831000  0.25831000  0.01663000
   0.74169000  0.75831000  0.50000000
   0.50000000  0.00000000  0.00000000
   0.25831000  0.24169000  0.50000000
   0.00000000  0.00000000  0.50000000
   0.00000000  0.50000000  0.00000000
   0.25000000  0.25000000  0.00000000
   0.75000000  0.75000000  0.00000000
 
 position of ions in cartesian coordinates  (Angst):
   1.79872709  2.57287791 -3.06948513
   0.00000000  0.00000000  0.00000000
  -0.07127480  3.81655563  3.15726049
   1.79872709  2.57287791  0.07059987
   3.66872897  1.32920019 -3.01606075
   2.63692547  3.90207810 -1.46414270
   2.73947058  0.00000000 -1.53474257
   0.96052870  1.24367772  1.60534243
   0.00000000  0.00000000  3.14008500
  -0.94074350  2.57287791 -1.53474257
   0.89936354  1.28643896 -1.53474257
   2.69809063  3.85931687 -4.60422770
 


--------------------------------------------------------------------------------------------------------


 k-point   1 :   0.0000 0.0000 0.0000  plane waves:    5921
 k-point   2 :   0.1429-0.0000 0.0000  plane waves:    5930
 k-point   3 :   0.2857-0.0000 0.0000  plane waves:    5931
 k-point   4 :   0.4286-0.0000 0.0000  plane waves:    5909
 k-point   5 :   0.1429 0.1429 0.0000  plane waves:    5919
 k-point   6 :   0.2857 0.1429 0.0000  plane waves:    5907
 k-point   7 :   0.4286 0.1429 0.0000  plane waves:    5902
 k-point   8 :  -0.4286 0.1429 0.0000  plane waves:    5923
 k-point   9 :  -0.2857 0.1429 0.0000  plane waves:    5925
 k-point  10 :  -0.1429 0.1429 0.0000  plane waves:    5924
 k-point  11 :   0.2857 0.2857 0.0000  plane waves:    5896
 k-point  12 :   0.4286 0.2857 0.0000  plane waves:    5906
 k-point  13 :  -0.4286 0.2857 0.0000  plane waves:    5912
 k-point  14 :  -0.2857 0.2857 0.0000  plane waves:    5924
 k-point  15 :   0.4286 0.4286 0.0000  plane waves:    5898
 k-point  16 :  -0.4286 0.4286 0.0000  plane waves:    5896
 k-point  17 :   0.0000-0.0000 0.1250  plane waves:    5924
 k-point  18 :   0.1429-0.0000 0.1250  plane waves:    5926
 k-point  19 :   0.2857-0.0000 0.1250  plane waves:    5918
 k-point  20 :   0.4286-0.0000 0.1250  plane waves:    5901
 k-point  21 :  -0.4286 0.0000 0.1250  plane waves:    5911
 k-point  22 :  -0.2857 0.0000 0.1250  plane waves:    5920
 k-point  23 :  -0.1429-0.0000 0.1250  plane waves:    5923
 k-point  24 :   0.1429 0.1429 0.1250  plane waves:    5908
 k-point  25 :   0.2857 0.1429 0.1250  plane waves:    5909
 k-point  26 :   0.4286 0.1429 0.1250  plane waves:    5903
 k-point  27 :  -0.4286 0.1429 0.1250  plane waves:    5909
 k-point  28 :  -0.2857 0.1429 0.1250  plane waves:    5925
 k-point  29 :  -0.1429 0.1429 0.1250  plane waves:    5931
 k-point  30 :   0.2857 0.2857 0.1250  plane waves:    5906
 k-point  31 :   0.4286 0.2857 0.1250  plane waves:    5911
 k-point  32 :  -0.4286 0.2857 0.1250  plane waves:    5914
 k-point  33 :  -0.2857 0.2857 0.1250  plane waves:    5929
 k-point  34 :  -0.1429 0.2857 0.1250  plane waves:    5936
 k-point  35 :   0.4286 0.4286 0.1250  plane waves:    5896
 k-point  36 :  -0.4286 0.4286 0.1250  plane waves:    5902
 k-point  37 :  -0.2857 0.4286 0.1250  plane waves:    5913
 k-point  38 :  -0.1429 0.4286 0.1250  plane waves:    5909
 k-point  39 :  -0.4286-0.4286 0.1250  plane waves:    5889
 k-point  40 :  -0.2857-0.4286 0.1250  plane waves:    5903
 k-point  41 :  -0.1429-0.4286 0.1250  plane waves:    5901
 k-point  42 :  -0.2857-0.2857 0.1250  plane waves:    5896
 k-point  43 :  -0.1429-0.2857 0.1250  plane waves:    5918
 k-point  44 :  -0.1429-0.1429 0.1250  plane waves:    5918
 k-point  45 :   0.0000-0.0000 0.2500  plane waves:    5908
 k-point  46 :   0.1429-0.0000 0.2500  plane waves:    5921
 k-point  47 :   0.2857-0.0000 0.2500  plane waves:    5911
 k-point  48 :   0.4286-0.0000 0.2500  plane waves:    5895
 k-point  49 :  -0.4286 0.0000 0.2500  plane waves:    5913
 k-point  50 :  -0.2857 0.0000 0.2500  plane waves:    5916
 k-point  51 :  -0.1429-0.0000 0.2500  plane waves:    5928
 k-point  52 :   0.1429 0.1429 0.2500  plane waves:    5918
 k-point  53 :   0.2857 0.1429 0.2500  plane waves:    5904
 k-point  54 :   0.4286 0.1429 0.2500  plane waves:    5904
 k-point  55 :  -0.4286 0.1429 0.2500  plane waves:    5915
 k-point  56 :  -0.2857 0.1429 0.2500  plane waves:    5933
 k-point  57 :  -0.1429 0.1429 0.2500  plane waves:    5929
 k-point  58 :   0.2857 0.2857 0.2500  plane waves:    5903
 k-point  59 :   0.4286 0.2857 0.2500  plane waves:    5906
 k-point  60 :  -0.4286 0.2857 0.2500  plane waves:    5919
 k-point  61 :  -0.2857 0.2857 0.2500  plane waves:    5913
 k-point  62 :  -0.1429 0.2857 0.2500  plane waves:    5915
 k-point  63 :   0.4286 0.4286 0.2500  plane waves:    5891
 k-point  64 :  -0.4286 0.4286 0.2500  plane waves:    5890
 k-point  65 :  -0.2857 0.4286 0.2500  plane waves:    5895
 k-point  66 :  -0.1429 0.4286 0.2500  plane waves:    5900
 k-point  67 :  -0.4286-0.4286 0.2500  plane waves:    5891
 k-point  68 :  -0.2857-0.4286 0.2500  plane waves:    5897
 k-point  69 :  -0.1429-0.4286 0.2500  plane waves:    5904
 k-point  70 :  -0.2857-0.2857 0.2500  plane waves:    5896
 k-point  71 :  -0.1429-0.2857 0.2500  plane waves:    5910
 k-point  72 :  -0.1429-0.1429 0.2500  plane waves:    5922
 k-point  73 :   0.0000-0.0000 0.3750  plane waves:    5910
 k-point  74 :   0.1429-0.0000 0.3750  plane waves:    5890
 k-point  75 :   0.2857-0.0000 0.3750  plane waves:    5904
 k-point  76 :   0.4286-0.0000 0.3750  plane waves:    5908
 k-point  77 :  -0.4286 0.0000 0.3750  plane waves:    5912
 k-point  78 :  -0.2857 0.0000 0.3750  plane waves:    5917
 k-point  79 :  -0.1429 0.0000 0.3750  plane waves:    5923
 k-point  80 :   0.1429 0.1429 0.3750  plane waves:    5894
 k-point  81 :   0.2857 0.1429 0.3750  plane waves:    5917
 k-point  82 :   0.4286 0.1429 0.3750  plane waves:    5898
 k-point  83 :  -0.4286 0.1429 0.3750  plane waves:    5920
 k-point  84 :  -0.2857 0.1429 0.3750  plane waves:    5915
 k-point  85 :  -0.1429 0.1429 0.3750  plane waves:    5916
 k-point  86 :   0.2857 0.2857 0.3750  plane waves:    5897
 k-point  87 :   0.4286 0.2857 0.3750  plane waves:    5903
 k-point  88 :  -0.4286 0.2857 0.3750  plane waves:    5897
 k-point  89 :  -0.2857 0.2857 0.3750  plane waves:    5900
 k-point  90 :  -0.1429 0.2857 0.3750  plane waves:    5897
 k-point  91 :   0.4286 0.4286 0.3750  plane waves:    5884
 k-point  92 :  -0.4286 0.4286 0.3750  plane waves:    5913
 k-point  93 :  -0.2857 0.4286 0.3750  plane waves:    5902
 k-point  94 :  -0.1429 0.4286 0.3750  plane waves:    5904
 k-point  95 :  -0.4286-0.4286 0.3750  plane waves:    5897
 k-point  96 :  -0.2857-0.4286 0.3750  plane waves:    5899
 k-point  97 :  -0.1429-0.4286 0.3750  plane waves:    5901
 k-point  98 :  -0.2857-0.2857 0.3750  plane waves:    5899
 k-point  99 :  -0.1429-0.2857 0.3750  plane waves:    5909
 k-point 100 :  -0.1429-0.1429 0.3750  plane waves:    5918
 k-point 101 :   0.0000-0.0000 0.5000  plane waves:    5882
 k-point 102 :   0.1429-0.0000 0.5000  plane waves:    5894
 k-point 103 :   0.2857-0.0000 0.5000  plane waves:    5911
 k-point 104 :   0.4286-0.0000 0.5000  plane waves:    5906
 k-point 105 :   0.1429 0.1429 0.5000  plane waves:    5913
 k-point 106 :   0.2857 0.1429 0.5000  plane waves:    5908
 k-point 107 :   0.4286 0.1429 0.5000  plane waves:    5901
 k-point 108 :  -0.4286 0.1429 0.5000  plane waves:    5896
 k-point 109 :  -0.2857 0.1429 0.5000  plane waves:    5903
 k-point 110 :  -0.1429 0.1429 0.5000  plane waves:    5876
 k-point 111 :   0.2857 0.2857 0.5000  plane waves:    5903
 k-point 112 :   0.4286 0.2857 0.5000  plane waves:    5908
 k-point 113 :  -0.4286 0.2857 0.5000  plane waves:    5903
 k-point 114 :  -0.2857 0.2857 0.5000  plane waves:    5902
 k-point 115 :   0.4286 0.4286 0.5000  plane waves:    5900
 k-point 116 :  -0.4286 0.4286 0.5000  plane waves:    5900

 maximum and minimum number of plane-waves per node :      2972     2933

 maximum number of plane-waves:      5936
 maximum index in each direction: 
   IXMAX=   12   IYMAX=   12   IZMAX=   12
   IXMIN=  -12   IYMIN=  -12   IZMIN=  -13


 parallel 3D FFT for wavefunctions:
    minimum data exchange during FFTs selected (reduces bandwidth)
 parallel 3D FFT for charge:
    minimum data exchange during FFTs selected (reduces bandwidth)


 total amount of memory used by VASP MPI-rank0   426464. kBytes
=======================================================================

   base      :      30000. kBytes
   nonl-proj :     149402. kBytes
   fftplans  :      14376. kBytes
   grid      :      11100. kBytes
   one-center:         93. kBytes
   wavefun   :     221493. kBytes
 
     INWAV:  cpu time    0.0001: real time    0.0001
 Broyden mixing: mesh for mixing (old mesh)
   NGX = 25   NGY = 25   NGZ = 25
  (NGX  =100   NGY  =100   NGZ  =100)
  gives a total of  15625 points

 initial charge density was supplied:
 charge density of overlapping atoms calculated
 number of electron     126.0000000 magnetization 
 keeping initial charge density in first step


--------------------------------------------------------------------------------------------------------


 Maximum index for augmentation-charges        21432 (set IRDMAX)


--------------------------------------------------------------------------------------------------------


 First call to EWALD:  gamma=   0.316
 Maximum number of real-space cells 3x 3x 3
 Maximum number of reciprocal cells 3x 3x 3

    FEWALD:  cpu time    0.0065: real time    0.0065


--------------------------------------- Iteration      1(   1)  ---------------------------------------


    POTLOK:  cpu time    0.1657: real time    0.1678
    SETDIJ:  cpu time    0.6250: real time    0.6291
    TRIAL :  cpu time   25.8924: real time   26.1197
    CORREC:  cpu time    0.0027: real time    0.0027
    --------------------------------------------
      LOOP:  cpu time   26.7904: real time   27.0295

 eigenvalue-minimisations  : 18108
 total energy-change (2. order) : 0.1522728E+04  (-0.8813388E+04)
 number of electron     126.0000000 magnetization 
 augmentation part      126.0000000 magnetization 

 Free energy of the ion-electron system (eV)
  ---------------------------------------------------
  alpha Z        PSCENC =       794.00718998
  Ewald energy   TEWEN  =    -11984.13282971
  -Hartree energ DENC   =     -3405.09017665
  -exchange      EXHF   =         0.00000000
  -V(xc)+E(xc)   XCENC  =       623.37886227
  PAW double counting   =     12139.29562609   -12091.82663909
  entropy T*S    EENTRO =        -0.00090984
  eigenvalues    EBANDS =       200.36397642
  atomic energy  EATOM  =     15246.73248675
  ---------------------------------------------------
  free energy    TOTEN  =      1522.72758621 eV

  energy without entropy =     1522.72849605  energy(sigma->0) =     1522.72804113


--------------------------------------------------------------------------------------------------------




--------------------------------------- Iteration      1(   2)  ---------------------------------------


    TRIAL :  cpu time   27.5988: real time   27.8421
    CORREC:  cpu time    0.0026: real time    0.0026
    --------------------------------------------
      LOOP:  cpu time   27.6039: real time   27.8476

 eigenvalue-minimisations  : 19722
 total energy-change (2. order) :-0.1726104E+04  (-0.1686235E+04)
 number of electron     126.0000000 magnetization 
 augmentation part      126.0000000 magnetization 

 Free energy of the ion-electron system (eV)
  ---------------------------------------------------
  alpha Z        PSCENC =       794.00718998
  Ewald energy   TEWEN  =    -11984.13282971
  -Hartree energ DENC   =     -3405.09017665
  -exchange      EXHF   =         0.00000000
  -V(xc)+E(xc)   XCENC  =       623.37886227
  PAW double counting   =     12139.29562609   -12091.82663909
  entropy T*S    EENTRO =        -0.00171609
  eigenvalues    EBANDS =     -1525.73945049
  atomic energy  EATOM  =     15246.73248675
  ---------------------------------------------------
  free energy    TOTEN  =      -203.37664695 eV

  energy without entropy =     -203.37493085  energy(sigma->0) =     -203.37578890


--------------------------------------------------------------------------------------------------------




--------------------------------------- Iteration      1(   3)  ---------------------------------------


    TRIAL :  cpu time   30.4916: real time   30.7630
    CORREC:  cpu time    0.0026: real time    0.0026
    --------------------------------------------
      LOOP:  cpu time   30.4945: real time   30.7685

 eigenvalue-minimisations  : 24024
 total energy-change (2. order) :-0.7035076E+02  (-0.6795302E+02)
 number of electron     126.0000000 magnetization 
 augmentation part      126.0000000 magnetization 

 Free energy of the ion-electron system (eV)
  ---------------------------------------------------
  alpha Z        PSCENC =       794.00718998
  Ewald energy   TEWEN  =    -11984.13282971
  -Hartree energ DENC   =     -3405.09017665
  -exchange      EXHF   =         0.00000000
  -V(xc)+E(xc)   XCENC  =       623.37886227
  PAW double counting   =     12139.29562609   -12091.82663909
  entropy T*S    EENTRO =        -0.00174963
  eigenvalues    EBANDS =     -1596.09017636
  atomic energy  EATOM  =     15246.73248675
  ---------------------------------------------------
  free energy    TOTEN  =      -273.72740636 eV

  energy without entropy =     -273.72565673  energy(sigma->0) =     -273.72653154


--------------------------------------------------------------------------------------------------------




--------------------------------------- Iteration      1(   4)  ---------------------------------------


    TRIAL :  cpu time   29.1451: real time   29.4012
    CORREC:  cpu time    0.0025: real time    0.0026
    --------------------------------------------
      LOOP:  cpu time   29.1485: real time   29.4066

 eigenvalue-minimisations  : 21516
 total energy-change (2. order) :-0.1555180E+01  (-0.1536834E+01)
 number of electron     126.0000000 magnetization 
 augmentation part      126.0000000 magnetization 

 Free energy of the ion-electron system (eV)
  ---------------------------------------------------
  alpha Z        PSCENC =       794.00718998
  Ewald energy   TEWEN  =    -11984.13282971
  -Hartree energ DENC   =     -3405.09017665
  -exchange      EXHF   =         0.00000000
  -V(xc)+E(xc)   XCENC  =       623.37886227
  PAW double counting   =     12139.29562609   -12091.82663909
  entropy T*S    EENTRO =        -0.00202795
  eigenvalues    EBANDS =     -1597.64507825
  atomic energy  EATOM  =     15246.73248675
  ---------------------------------------------------
  free energy    TOTEN  =      -275.28258656 eV

  energy without entropy =     -275.28055862  energy(sigma->0) =     -275.28157259


--------------------------------------------------------------------------------------------------------




--------------------------------------- Iteration      1(   5)  ---------------------------------------


    TRIAL :  cpu time   28.7222: real time   28.9769
    CORREC:  cpu time    0.0026: real time    0.0026
    CHARGE:  cpu time    2.1450: real time    2.1604
    --------------------------------------------
      LOOP:  cpu time   30.8705: real time   31.1428

 eigenvalue-minimisations  : 22080
 total energy-change (2. order) :-0.3310571E-01  (-0.3302852E-01)
 number of electron     126.0000001 magnetization 
 augmentation part       17.4920074 magnetization 

 Free energy of the ion-electron system (eV)
  ---------------------------------------------------
  alpha Z        PSCENC =       794.00718998
  Ewald energy   TEWEN  =    -11984.13282971
  -Hartree energ DENC   =     -3405.09017665
  -exchange      EXHF   =         0.00000000
  -V(xc)+E(xc)   XCENC  =       623.37886227
  PAW double counting   =     12139.29562609   -12091.82663909
  entropy T*S    EENTRO =        -0.00203253
  eigenvalues    EBANDS =     -1597.67817938
  atomic energy  EATOM  =     15246.73248675
  ---------------------------------------------------
  free energy    TOTEN  =      -275.31569228 eV

  energy without entropy =     -275.31365974  energy(sigma->0) =     -275.31467601


--------------------------------------------------------------------------------------------------------




--------------------------------------- Iteration      1(   6)  ---------------------------------------


    POTLOK:  cpu time    0.1277: real time    0.1285
    SETDIJ:  cpu time    0.6169: real time    0.6206
    TRIAL :  cpu time   20.8862: real time   21.0651
    CORREC:  cpu time    7.3518: real time    7.4099
    CHARGE:  cpu time    2.1590: real time    2.1739
    --------------------------------------------
      LOOP:  cpu time   31.1448: real time   31.4023

 eigenvalue-minimisations  :     0
 total energy-change (2. order) : 0.7618066E+02  (-0.1752439E+02)
 number of electron     126.0000001 magnetization 
 augmentation part       19.4437728 magnetization 

 Free energy of the ion-electron system (eV)
  ---------------------------------------------------
  alpha Z        PSCENC =       794.00718998
  Ewald energy   TEWEN  =    -11984.13282971
  -Hartree energ DENC   =     -3053.26213312
  -exchange      EXHF   =         0.00000000
  -V(xc)+E(xc)   XCENC  =       628.05526240
  PAW double counting   =     20041.29897880   -20034.25210477
  entropy T*S    EENTRO =        -0.00167172
  eigenvalues    EBANDS =     -1837.57985488
  atomic energy  EATOM  =     15246.73248675
  ---------------------------------------------------
  free energy    TOTEN  =      -199.13503709 eV

  energy without entropy =     -199.13336537  energy(sigma->0) =     -199.13420123


--------------------------------------------------------------------------------------------------------




--------------------------------------- Iteration      1(   7)  ---------------------------------------


    POTLOK:  cpu time    0.1205: real time    0.1212
    SETDIJ:  cpu time    0.6239: real time    0.6273
    TRIAL :  cpu time   20.1928: real time   20.3705
    CORREC:  cpu time    7.4972: real time    7.5559
    CHARGE:  cpu time    2.1755: real time    2.1892
    --------------------------------------------
      LOOP:  cpu time   30.6120: real time   30.8677

 eigenvalue-minimisations  :     0
 total energy-change (2. order) :-0.1787590E+02  (-0.2915484E+01)
 number of electron     126.0000001 magnetization 
 augmentation part       19.5000027 magnetization 

 Free energy of the ion-electron system (eV)
  ---------------------------------------------------
  alpha Z        PSCENC =       794.00718998
  Ewald energy   TEWEN  =    -11984.13282971
  -Hartree energ DENC   =     -3258.54074356
  -exchange      EXHF   =         0.00000000
  -V(xc)+E(xc)   XCENC  =       637.45958464
  PAW double counting   =     18998.99233426   -18977.33375334
  entropy T*S    EENTRO =        -0.00187094
  eigenvalues    EBANDS =     -1674.19353925
  atomic energy  EATOM  =     15246.73248675
  ---------------------------------------------------
  free energy    TOTEN  =      -217.01094195 eV

  energy without entropy =     -217.00907100  energy(sigma->0) =     -217.01000647


--------------------------------------------------------------------------------------------------------




--------------------------------------- Iteration      1(   8)  ---------------------------------------


    POTLOK:  cpu time    0.1154: real time    0.1162
    SETDIJ:  cpu time    0.6294: real time    0.6335
    TRIAL :  cpu time   20.7020: real time   20.8794
    CORREC:  cpu time    7.4043: real time    7.4629
    CHARGE:  cpu time    2.1197: real time    2.1339
    --------------------------------------------
      LOOP:  cpu time   30.9713: real time   31.2274

 eigenvalue-minimisations  :     0
 total energy-change (2. order) :-0.2928602E+01  (-0.6233011E+00)
 number of electron     126.0000001 magnetization 
 augmentation part       19.3888531 magnetization 

 Free energy of the ion-electron system (eV)
  ---------------------------------------------------
  alpha Z        PSCENC =       794.00718998
  Ewald energy   TEWEN  =    -11984.13282971
  -Hartree energ DENC   =     -3292.57931391
  -exchange      EXHF   =         0.00000000
  -V(xc)+E(xc)   XCENC  =       638.91713798
  PAW double counting   =     18695.16386204   -18669.95114748
  entropy T*S    EENTRO =        -0.00153478
  eigenvalues    EBANDS =     -1648.09505911
  atomic energy  EATOM  =     15246.73248675
  ---------------------------------------------------
  free energy    TOTEN  =      -219.93954441 eV

  energy without entropy =     -219.93800963  energy(sigma->0) =     -219.93877702


--------------------------------------------------------------------------------------------------------




--------------------------------------- Iteration      1(   9)  ---------------------------------------


    POTLOK:  cpu time    0.1195: real time    0.1203
    SETDIJ:  cpu time    0.6225: real time    0.6263
    TRIAL :  cpu time   20.4810: real time   20.6558
    CORREC:  cpu time    7.5029: real time    7.5595
    CHARGE:  cpu time    2.1677: real time    2.1823
    --------------------------------------------
      LOOP:  cpu time   30.8949: real time   31.1460

 eigenvalue-minimisations  :     0
 total energy-change (2. order) :-0.6227547E+00  (-0.2573936E+00)
 number of electron     126.0000001 magnetization 
 augmentation part       19.3877118 magnetization 

 Free energy of the ion-electron system (eV)
  ---------------------------------------------------
  alpha Z        PSCENC =       794.00718998
  Ewald energy   TEWEN  =    -11984.13282971
  -Hartree energ DENC   =     -3287.18613275
  -exchange      EXHF   =         0.00000000
  -V(xc)+E(xc)   XCENC  =       638.68089386
  PAW double counting   =     18613.61243444   -18586.90158352
  entropy T*S    EENTRO =        -0.00196968
  eigenvalues    EBANDS =     -1655.37322341
  atomic energy  EATOM  =     15246.73248675
  ---------------------------------------------------
  free energy    TOTEN  =      -220.56229916 eV

  energy without entropy =     -220.56032948  energy(sigma->0) =     -220.56131432


--------------------------------------------------------------------------------------------------------




--------------------------------------- Iteration      1(  10)  ---------------------------------------


    POTLOK:  cpu time    0.1168: real time    0.1176
    SETDIJ:  cpu time    0.6227: real time    0.6269
    TRIAL :  cpu time   20.3435: real time   20.5128
    CORREC:  cpu time    7.3215: real time    7.3759
    CHARGE:  cpu time    2.0932: real time    2.1059
    --------------------------------------------
      LOOP:  cpu time   30.4990: real time   30.7421

 eigenvalue-minimisations  :     0
 total energy-change (2. order) :-0.2577064E+00  (-0.6833084E-01)
 number of electron     126.0000001 magnetization 
 augmentation part       19.4482663 magnetization 

 Free energy of the ion-electron system (eV)
  ---------------------------------------------------
  alpha Z        PSCENC =       794.00718998
  Ewald energy   TEWEN  =    -11984.13282971
  -Hartree energ DENC   =     -3289.99260267
  -exchange      EXHF   =         0.00000000
  -V(xc)+E(xc)   XCENC  =       638.88551724
  PAW double counting   =     18556.57375198   -18528.39005313
  entropy T*S    EENTRO =        -0.00203142
  eigenvalues    EBANDS =     -1654.50149632
  atomic energy  EATOM  =     15246.73248675
  ---------------------------------------------------
  free energy    TOTEN  =      -220.82000557 eV

  energy without entropy =     -220.81797416  energy(sigma->0) =     -220.81898986


--------------------------------------------------------------------------------------------------------




[...]
     74      12.5558      0.00000
     75      12.7574      0.00000
     76      12.7647      0.00000
     77      14.2181      0.00000
     78      14.2720      0.00000

 k-point   111 :       0.2857    0.2857    0.5000
  band No.  band energies     occupation 
      1     -52.5668      2.00000
      2     -52.5662      2.00000
      3     -52.5099      2.00000
      4     -52.4750      2.00000
      5     -51.7402      2.00000
      6     -51.7072      2.00000
      7     -51.6361      2.00000
      8     -51.6354      2.00000
      9     -28.0183      2.00000
     10     -28.0171      2.00000
     11     -27.6676      2.00000
     12     -27.6177      2.00000
     13     -26.0810      2.00000
     14     -25.9061      2.00000
     15     -25.9022      2.00000
     16     -25.8292      2.00000
     17     -25.7763      2.00000
     18     -25.6208      2.00000
     19     -25.6205      2.00000
     20     -25.5996      2.00000
     21     -25.4130      2.00000
     22     -25.3762      2.00000
     23     -25.3727      2.00000
     24     -25.1637      2.00000
     25     -25.1183      2.00000
     26     -25.0463      2.00000
     27     -25.0454      2.00000
     28     -24.9212      2.00000
     29     -24.3601      2.00000
     30     -24.3320      2.00000
     31     -23.8757      2.00000
     32     -23.8744      2.00000
     33      -0.9506      2.00000
     34       0.2375      2.00000
     35       1.9095      2.00000
     36       2.3725      2.00000
     37       4.0061      2.00000
     38       4.8746      2.00000
     39       5.8260      2.00000
     40       5.8957      2.00000
     41       5.9742      2.00000
     42       6.2290      2.00000
     43       6.2731      2.00000
     44       6.6165      2.00000
     45       6.8364      2.00000
     46       6.8507      2.00000
     47       7.0485      2.00000
     48       7.1031      2.00000
     49       7.4594      2.00000
     50       7.5131      2.00000
     51       7.6285      2.00000
     52       7.8060      2.00000
     53       7.8712      2.00000
     54       8.0052      2.00000
     55       8.0910      2.00000
     56       8.2706      2.00000
     57       8.8371      2.00000
     58       9.0748      2.00000
     59       9.2091      2.00000
     60       9.2337      2.00000
     61       9.6878      2.00000
     62       9.8052      2.00000
     63      10.0232      2.00000
     64      10.5594      0.00000
     65      10.8414      0.00000
     66      11.2903      0.00000
     67      11.8014      0.00000
     68      12.0657      0.00000
     69      12.4603      0.00000
     70      12.9522      0.00000
     71      13.0277      0.00000
     72      13.0491      0.00000
     73      13.0834      0.00000
     74      13.1447      0.00000
     75      13.4893      0.00000
     76      13.5083      0.00000
     77      13.6980      0.00000
     78      14.0539      0.00000

 k-point   112 :       0.4286    0.2857    0.5000
  band No.  band energies     occupation 
      1     -52.6253      2.00000
      2     -52.6208      2.00000
      3     -52.4265      2.00000
      4     -52.3882      2.00000
      5     -51.8398      2.00000
      6     -51.8017      2.00000
      7     -51.5691      2.00000
      8     -51.5652      2.00000
      9     -28.2998      2.00000
     10     -28.2930      2.00000
     11     -27.2114      2.00000
     12     -27.1586      2.00000
     13     -26.1486      2.00000
     14     -25.8851      2.00000
     15     -25.8583      2.00000
     16     -25.8244      2.00000
     17     -25.8012      2.00000
     18     -25.6235      2.00000
     19     -25.5736      2.00000
     20     -25.5444      2.00000
     21     -25.4691      2.00000
     22     -25.4372      2.00000
     23     -25.3756      2.00000
     24     -25.1117      2.00000
     25     -25.1023      2.00000
     26     -25.0874      2.00000
     27     -25.0846      2.00000
     28     -24.9180      2.00000
     29     -24.8657      2.00000
     30     -24.8541      2.00000
     31     -23.5096      2.00000
     32     -23.5067      2.00000
     33      -0.8009      2.00000
     34       0.3159      2.00000
     35       1.2460      2.00000
     36       2.4158      2.00000
     37       3.8711      2.00000
     38       4.2497      2.00000
     39       5.5386      2.00000
     40       6.1153      2.00000
     41       6.1216      2.00000
     42       6.1748      2.00000
     43       6.3568      2.00000
     44       6.5804      2.00000
     45       6.6679      2.00000
     46       6.9651      2.00000
     47       7.0567      2.00000
     48       7.2661      2.00000
     49       7.5957      2.00000
     50       7.7627      2.00000
     51       7.8926      2.00000
     52       8.0248      2.00000
     53       8.3100      2.00000
     54       8.4652      2.00000
     55       8.5951      2.00000
     56       8.8570      2.00000
     57       8.8762      2.00000
     58       8.9438      2.00000
     59       9.0305      2.00000
     60       9.1284      2.00000
     61       9.2957      2.00000
     62      10.0689      2.00000
     63      10.2891      2.00000
     64      10.7062      0.00000
     65      11.0621      0.00000
     66      11.2880      0.00000
     67      11.6417      0.00000
     68      11.9917      0.00000
     69      12.1495      0.00000
     70      12.2004      0.00000
     71      12.3898      0.00000
     72      12.6960      0.00000
     73      13.0970      0.00000
     74      13.4432      0.00000
     75      13.7583      0.00000
     76      13.8214      0.00000
     77      14.1406      0.00000
     78      14.2952      0.00000

 k-point   113 :      -0.4286    0.2857    0.5000
  band No.  band energies     occupation 
      1     -52.6606      2.00000
      2     -52.6561      2.00000
      3     -52.3452      2.00000
      4     -52.3079      2.00000
      5     -51.9293      2.00000
      6     -51.8900      2.00000
      7     -51.5256      2.00000
      8     -51.5217      2.00000
      9     -28.4713      2.00000
     10     -28.4644      2.00000
     11     -26.6908      2.00000
     12     -26.6423      2.00000
     13     -26.1781      2.00000
     14     -25.9141      2.00000
     15     -25.8275      2.00000
     16     -25.7839      2.00000
     17     -25.7519      2.00000
     18     -25.6632      2.00000
     19     -25.5640      2.00000
     20     -25.5305      2.00000
     21     -25.5087      2.00000
     22     -25.4798      2.00000
     23     -25.4694      2.00000
     24     -25.4451      2.00000
     25     -25.3420      2.00000
     26     -25.1636      2.00000
     27     -25.1354      2.00000
     28     -25.0729      2.00000
     29     -25.0486      2.00000
     30     -24.8382      2.00000
     31     -23.2758      2.00000
     32     -23.2731      2.00000
     33      -0.4711      2.00000
     34       0.2371      2.00000
     35       0.7308      2.00000
     36       2.4637      2.00000
     37       3.7764      2.00000
     38       4.1636      2.00000
     39       5.3704      2.00000
     40       5.6821      2.00000
     41       5.7097      2.00000
     42       6.5084      2.00000
     43       6.6617      2.00000
     44       6.7694      2.00000
     45       6.8031      2.00000
     46       6.9518      2.00000
     47       7.1167      2.00000
     48       7.4089      2.00000
     49       7.5323      2.00000
     50       7.7264      2.00000
     51       7.8394      2.00000
     52       8.0884      2.00000
     53       8.2498      2.00000
     54       8.2619      2.00000
     55       8.8623      2.00000
     56       8.9866      2.00000
     57       9.1544      2.00000
     58       9.4287      2.00000
     59       9.4983      2.00000
     60       9.5875      2.00000
     61       9.7479      2.00000
     62      10.2929      2.00000
     63      10.7127      0.00000
     64      10.7554      0.00000
     65      11.0192      0.00000
     66      11.1021      0.00000
     67      11.2064      0.00000
     68      11.4408      0.00000
     69      11.5989      0.00000
     70      12.0233      0.00000
     71      12.1793      0.00000
     72      12.4651      0.00000
     73      12.7851      0.00000
     74      13.1397      0.00000
     75      13.3948      0.00000
     76      13.9703      0.00000
     77      14.1626      0.00000
     78      14.2945      0.00000

 k-point   114 :      -0.2857    0.2857    0.5000
  band No.  band energies     occupation 
      1     -52.6705      2.00000
      2     -52.6701      2.00000
      3     -52.3040      2.00000
      4     -52.2715      2.00000
      5     -51.9692      2.00000
      6     -51.9335      2.00000
      7     -51.5089      2.00000
      8     -51.5086      2.00000
      9     -28.5266      2.00000
     10     -28.5251      2.00000
     11     -26.2295      2.00000
     12     -26.1904      2.00000
     13     -26.1675      2.00000
     14     -25.9897      2.00000
     15     -25.9855      2.00000
     16     -25.8541      2.00000
     17     -25.8404      2.00000
     18     -25.7158      2.00000
     19     -25.7145      2.00000
     20     -25.6481      2.00000
     21     -25.5842      2.00000
     22     -25.5762      2.00000
     23     -25.4915      2.00000
     24     -25.4872      2.00000
     25     -25.3152      2.00000
     26     -25.1810      2.00000
     27     -25.1770      2.00000
     28     -25.0768      2.00000
     29     -25.0286      2.00000
     30     -24.8415      2.00000
     31     -23.1948      2.00000
     32     -23.1936      2.00000
     33      -0.1276      2.00000
     34      -0.0079      2.00000
     35       0.5650      2.00000
     36       2.6107      2.00000
     37       3.7200      2.00000
     38       4.6345      2.00000
     39       5.4074      2.00000
     40       5.5448      2.00000
     41       5.5577      2.00000
     42       6.5380      2.00000
     43       6.5468      2.00000
     44       6.6138      2.00000
     45       6.6614      2.00000
     46       6.8917      2.00000
     47       6.9924      2.00000
     48       7.2639      2.00000
     49       7.7683      2.00000
     50       7.8382      2.00000
     51       7.8949      2.00000
     52       7.9872      2.00000
     53       8.0761      2.00000
     54       8.1850      2.00000
     55       8.7849      2.00000
     56       8.9842      2.00000
     57       9.4673      2.00000
     58       9.5032      2.00000
     59       9.7949      2.00000
     60       9.9132      2.00000
     61      10.1189      2.00000
     62      10.2378      2.00000
     63      10.3344      2.00000
     64      10.7078      0.00000
     65      10.9933      0.00000
     66      11.0060      0.00000
     67      11.3589      0.00000
     68      11.5616      0.00000
     69      11.6238      0.00000
     70      11.6973      0.00000
     71      11.7141      0.00000
     72      11.8953      0.00000
     73      12.8323      0.00000
     74      12.8718      0.00000
     75      13.0174      0.00000
     76      13.6041      0.00000
     77      13.8787      0.00000
     78      13.9663      0.00000

 k-point   115 :       0.4286    0.4286    0.5000
  band No.  band energies     occupation 
      1     -52.6586      2.00000
      2     -52.6580      2.00000
      3     -52.3473      2.00000
      4     -52.3059      2.00000
      5     -51.9316      2.00000
      6     -51.8879      2.00000
      7     -51.5238      2.00000
      8     -51.5233      2.00000
      9     -28.4684      2.00000
     10     -28.4671      2.00000
     11     -26.6935      2.00000
     12     -26.6397      2.00000
     13     -26.1975      2.00000
     14     -25.9291      2.00000
     15     -25.8080      2.00000
     16     -25.7767      2.00000
     17     -25.7764      2.00000
     18     -25.6518      2.00000
     19     -25.5516      2.00000
     20     -25.5513      2.00000
     21     -25.4863      2.00000
     22     -25.4846      2.00000
     23     -25.4701      2.00000
     24     -25.4435      2.00000
     25     -25.3569      2.00000
     26     -25.1426      2.00000
     27     -25.1407      2.00000
     28     -25.0604      2.00000
     29     -25.0582      2.00000
     30     -24.8271      2.00000
     31     -23.2751      2.00000
     32     -23.2738      2.00000
     33      -0.6237      2.00000
     34       0.6098      2.00000
     35       0.6181      2.00000
     36       2.3300      2.00000
     37       3.5609      2.00000
     38       3.7036      2.00000
     39       5.2774      2.00000
     40       5.6935      2.00000
     41       5.6953      2.00000
     42       6.6682      2.00000
     43       6.7045      2.00000
     44       7.0118      2.00000
     45       7.1513      2.00000
     46       7.2469      2.00000
     47       7.3310      2.00000
     48       7.4532      2.00000
     49       7.5767      2.00000
     50       7.6301      2.00000
     51       7.6343      2.00000
     52       8.1306      2.00000
     53       8.1636      2.00000
     54       8.5481      2.00000
     55       8.6654      2.00000
     56       8.6971      2.00000
     57       9.2438      2.00000
     58       9.3903      2.00000
     59       9.5018      2.00000
     60       9.5165      2.00000
     61       9.8537      2.00000
     62      10.3972      1.69852
     63      10.6268      0.00000
     64      11.0058      0.00000
     65      11.0407      0.00000
     66      11.2636      0.00000
     67      11.4133      0.00000
     68      11.4175      0.00000
     69      11.6651      0.00000
     70      12.3056      0.00000
     71      12.5726      0.00000
     72      12.6410      0.00000
     73      12.9374      0.00000
     74      13.1414      0.00000
     75      13.4389      0.00000
     76      13.5016      0.00000
     77      13.7524      0.00000
     78      14.0825      0.00000

 k-point   116 :      -0.4286    0.4286    0.5000
  band No.  band energies     occupation 
      1     -52.6705      2.00000
      2     -52.6700      2.00000
      3     -52.3080      2.00000
      4     -52.2675      2.00000
      5     -51.9738      2.00000
      6     -51.9293      2.00000
      7     -51.5089      2.00000
      8     -51.5084      2.00000
      9     -28.5263      2.00000
     10     -28.5249      2.00000
     11     -26.2343      2.00000
     12     -26.2075      2.00000
     13     -26.1856      2.00000
     14     -26.0007      2.00000
     15     -25.9889      2.00000
     16     -25.8537      2.00000
     17     -25.8168      2.00000
     18     -25.7340      2.00000
     19     -25.7332      2.00000
     20     -25.6208      2.00000
     21     -25.5913      2.00000
     22     -25.5897      2.00000
     23     -25.4708      2.00000
     24     -25.4679      2.00000
     25     -25.3454      2.00000
     26     -25.1649      2.00000
     27     -25.1626      2.00000
     28     -25.0517      2.00000
     29     -25.0482      2.00000
     30     -24.8183      2.00000
     31     -23.1948      2.00000
     32     -23.1935      2.00000
     33      -0.4128      2.00000
     34       0.3417      2.00000
     35       0.5863      2.00000
     36       2.3349      2.00000
     37       3.5288      2.00000
     38       3.6715      2.00000
     39       5.2185      2.00000
     40       5.5446      2.00000
     41       5.5448      2.00000
     42       6.9370      2.00000
     43       6.9751      2.00000
     44       7.0278      2.00000
     45       7.1881      2.00000
     46       7.2453      2.00000
     47       7.4018      2.00000
     48       7.4599      2.00000
     49       7.4705      2.00000
     50       7.6260      2.00000
     51       7.6500      2.00000
     52       7.8694      2.00000
     53       7.9968      2.00000
     54       8.5246      2.00000
     55       8.6472      2.00000
     56       8.7397      2.00000
     57       9.2645      2.00000
     58       9.8208      2.00000
     59      10.0451      2.00000
     60      10.1599      2.00000
     61      10.2428      2.00000
     62      10.2722      2.00000
     63      10.4180      0.66518
     64      10.6104      0.00000
     65      11.0621      0.00000
     66      11.3665      0.00000
     67      11.4313      0.00000
     68      11.4914      0.00000
     69      11.7234      0.00000
     70      11.8420      0.00000
     71      12.2188      0.00000
     72      12.5305      0.00000
     73      12.5943      0.00000
     74      12.9577      0.00000
     75      13.4565      0.00000
     76      13.5238      0.00000
     77      13.6047      0.00000
     78      13.6862      0.00000


--------------------------------------------------------------------------------------------------------


 soft charge-density along one line, spin component           1
         0         1         2         3         4         5         6         7         8         9
 total charge-density along one line
 
 pseudopotential strength for first ion, spin component:           1
  5.875   8.893  -0.000   0.000   0.000  -0.000   0.000   0.000
  8.893  13.452  -0.000   0.000   0.000  -0.000   0.000   0.000
 -0.000  -0.000  -1.920  -0.005   0.003  -3.189  -0.009   0.005
  0.000   0.000  -0.005  -1.919  -0.003  -0.009  -3.186  -0.006
  0.000   0.000   0.003  -0.003  -1.922   0.005  -0.006  -3.193
 -0.000  -0.000  -3.189  -0.009   0.005  -5.082  -0.016   0.009
  0.000   0.000  -0.009  -3.186  -0.006  -0.016  -5.076  -0.011
  0.000   0.000   0.005  -0.006  -3.193   0.009  -0.011  -5.089
 total augmentation occupancy for first ion, spin component:           1
  3.471  -0.823   0.000   0.000   0.000   0.000   0.000   0.000
 -0.823   0.223   0.000   0.000   0.000   0.000   0.000   0.000
  0.000   0.000   2.455   0.143  -0.085  -0.635  -0.012   0.007
  0.000   0.000   0.143   2.404   0.100  -0.012  -0.631  -0.009
  0.000   0.000  -0.085   0.100   2.517   0.007  -0.009  -0.640
  0.000   0.000  -0.635  -0.012   0.007   0.170  -0.004   0.002
  0.000   0.000  -0.012  -0.631  -0.009  -0.004   0.172  -0.003
  0.000   0.000   0.007  -0.009  -0.640   0.002  -0.003   0.169


------------------------ aborting loop because EDIFF is reached ----------------------------------------




--------------------------------------------------------------------------------------------------------



  FREE ENERGIE OF THE ION-ELECTRON SYSTEM (eV)
  ---------------------------------------------------
  free  energy   TOTEN  =      -220.93781078 eV

  energy  without entropy=     -220.93575329  energy(sigma->0) =     -220.93678204
 


--------------------------------------------------------------------------------------------------------


    POTLOK:  cpu time    0.7838: real time    0.7896


--------------------------------------------------------------------------------------------------------


 writing wavefunctions
     LOOP+:  cpu time 1244.4219: real time 1255.2154
    4ORBIT:  cpu time    0.0000: real time    0.0000

 total amount of memory used by VASP MPI-rank0   426464. kBytes
=======================================================================

   base      :      30000. kBytes
   nonl-proj :     149402. kBytes
   fftplans  :      14376. kBytes
   grid      :      11100. kBytes
   one-center:         93. kBytes
   wavefun   :     221493. kBytes
 
  
  
 General timing and accounting informations for this job:
 ========================================================
  
                  Total CPU time used (sec):     1250.291
                            User time (sec):     1245.349
                          System time (sec):        4.941
                         Elapsed time (sec):     1261.992
  
                   Maximum memory used (kb):      609184.
                   Average memory used (kb):          N/A
  
                          Minor page faults:      1857183
                          Major page faults:           35
                 Voluntary context switches:         1247
