<?xml version="1.0" encoding="ISO-8859-1"?>
<modeling>
 <generator>
  <i name="program" type="string">vasp </i>
  <i name="version" type="string">6.2.0  </i>
  <i name="subversion" type="string">18Jan21 (build Jan 05 2022 15:41:44) complex                          parallel </i>
  <i name="platform" type="string">LinuxIFC </i>
  <i name="date" type="string">2025 05 07 </i>
  <i name="time" type="string">20:15:44 </i>
 </generator>
 <incar>
  <i type="string" name="SYSTEM">routine with relax: pwdword</i>
  <i type="string" name="PREC">Acc</i>
  <i type="int" name="IALGO">    38</i>
  <i type="string" name="ALGO">A</i>
  <i type="logical" name="ADDGRID"> T  </i>
  <i type="int" name="ICHARG">     2</i>
  <i type="int" name="NELM">   100</i>
  <i type="int" name="NELMIN">     6</i>
  <i name="EDIFF">      0.00000000</i>
  <i type="int" name="NSW">     0</i>
  <i type="int" name="ISIF">    -1</i>
  <i name="ENCUT">    600.00000000</i>
  <i type="logical" name="LREAL"> F  </i>
  <i type="int" name="ISMEAR">     0</i>
  <i name="SIGMA">      0.02000000</i>
  <i type="logical" name="LASPH"> T  </i>
  <i type="string" name="METAGGA">R2SCAN</i>
  <i type="logical" name="LMIXTAU"> F  </i>
 </incar>
 <primitive_cell>
  <structure name="primitive_cell" >
   <crystal>
    <varray name="basis" >
     <v>       5.61444165       0.00000000      -3.80669575 </v>
     <v>      -1.57811904       5.38808828      -3.80669575 </v>
     <v>       0.00000000       0.00000000       6.78328000 </v>
    </varray>
    <i name="volume">    205.20173052 </i>
    <varray name="rec_basis" >
     <v>       0.17811210       0.05216732       0.00000000 </v>
     <v>       0.00000000       0.18559458       0.00000000 </v>
     <v>       0.09995438       0.13342914       0.14742131 </v>
    </varray>
   </crystal>
   <varray name="positions" >
    <v>       0.08119000       0.58119000       0.99371000 </v>
    <v>       0.91881000       0.41881000       0.00629000 </v>
    <v>       0.58119000       0.58748000       0.50000000 </v>
    <v>       0.41881000       0.41252000       0.50000000 </v>
    <v>       0.58748000       0.08748000       0.00629000 </v>
    <v>       0.41252000       0.91252000       0.99371000 </v>
    <v>       0.08748000       0.08119000       0.50000000 </v>
    <v>       0.91252000       0.91881000       0.50000000 </v>
    <v>       0.73516000       0.23516000       0.97031000 </v>
    <v>       0.25000000       0.25000000       1.00000000 </v>
    <v>       0.26484000       0.76484000       0.02969000 </v>
    <v>       0.75000000       0.75000000       1.00000000 </v>
    <v>       0.23516000       0.26484000       0.50000000 </v>
    <v>       0.76484000       0.73516000       0.50000000 </v>
    <v>       0.00000000       0.00000000       0.00000000 </v>
    <v>       0.50000000       0.50000000       1.00000000 </v>
   </varray>
  </structure>
  <varray name="primitive_index" >
   <v type="int" >        1 </v>
   <v type="int" >        2 </v>
   <v type="int" >        3 </v>
   <v type="int" >        4 </v>
   <v type="int" >        5 </v>
   <v type="int" >        6 </v>
   <v type="int" >        7 </v>
   <v type="int" >        8 </v>
   <v type="int" >        9 </v>
   <v type="int" >       10 </v>
   <v type="int" >       11 </v>
   <v type="int" >       12 </v>
   <v type="int" >       13 </v>
   <v type="int" >       14 </v>
   <v type="int" >       15 </v>
   <v type="int" >       16 </v>
  </varray>
 </primitive_cell>
 <kpoints>
  <generation param="Gamma">
   <v type="int" name="divisions">       7        7        8 </v>
   <v name="usershift">      0.00000000       0.00000000       0.00000000 </v>
   <v name="genvec1">      0.14285714       0.00000000       0.00000000 </v>
   <v name="genvec2">      0.00000000       0.14285714       0.00000000 </v>
   <v name="genvec3">     -0.00000000      -0.00000000       0.12500000 </v>
   <v name="shift">      0.00000000       0.00000000       0.00000000 </v>
  </generation>
  <varray name="kpointlist" >
   <v>       0.00000000       0.00000000       0.00000000 </v>
   <v>       0.14285714       0.00000000       0.00000000 </v>
   <v>       0.28571429      -0.00000000       0.00000000 </v>
   <v>       0.42857143      -0.00000000       0.00000000 </v>
   <v>       0.14285714       0.14285714       0.00000000 </v>
   <v>       0.28571429       0.14285714       0.00000000 </v>
   <v>       0.42857143       0.14285714       0.00000000 </v>
   <v>      -0.42857143       0.14285714       0.00000000 </v>
   <v>      -0.28571429       0.14285714       0.00000000 </v>
   <v>      -0.14285714       0.14285714       0.00000000 </v>
   <v>       0.28571429       0.28571429       0.00000000 </v>
   <v>       0.42857143       0.28571429       0.00000000 </v>
   <v>      -0.42857143       0.28571429       0.00000000 </v>
   <v>      -0.28571429       0.28571429       0.00000000 </v>
   <v>       0.42857143       0.42857143       0.00000000 </v>
   <v>      -0.42857143       0.42857143       0.00000000 </v>
   <v>       0.00000000       0.00000000       0.12500000 </v>
   <v>       0.14285714       0.00000000       0.12500000 </v>
   <v>       0.28571429      -0.00000000       0.12500000 </v>
   <v>       0.42857143       0.00000000       0.12500000 </v>
   <v>      -0.42857143       0.00000000       0.12500000 </v>
   <v>      -0.28571429       0.00000000       0.12500000 </v>
   <v>      -0.14285714       0.00000000       0.12500000 </v>
   <v>       0.14285714       0.14285714       0.12500000 </v>
   <v>       0.28571429       0.14285714       0.12500000 </v>
   <v>       0.42857143       0.14285714       0.12500000 </v>
   <v>      -0.42857143       0.14285714       0.12500000 </v>
   <v>      -0.28571429       0.14285714       0.12500000 </v>
   <v>      -0.14285714       0.14285714       0.12500000 </v>
   <v>       0.28571429       0.28571429       0.12500000 </v>
   <v>       0.42857143       0.28571429       0.12500000 </v>
   <v>      -0.42857143       0.28571429       0.12500000 </v>
   <v>      -0.28571429       0.28571429       0.12500000 </v>
   <v>      -0.14285714       0.28571429       0.12500000 </v>
   <v>       0.42857143       0.42857143       0.12500000 </v>
   <v>      -0.42857143       0.42857143       0.12500000 </v>
   <v>      -0.28571429       0.42857143       0.12500000 </v>
   <v>      -0.14285714       0.42857143       0.12500000 </v>
   <v>      -0.42857143      -0.42857143       0.12500000 </v>
   <v>      -0.28571429      -0.42857143       0.12500000 </v>
   <v>      -0.14285714      -0.42857143       0.12500000 </v>
   <v>      -0.28571429      -0.28571429       0.12500000 </v>
   <v>      -0.14285714      -0.28571429       0.12500000 </v>
   <v>      -0.14285714      -0.14285714       0.12500000 </v>
   <v>       0.00000000       0.00000000       0.25000000 </v>
   <v>       0.14285714       0.00000000       0.25000000 </v>
   <v>       0.28571429       0.00000000       0.25000000 </v>
   <v>       0.42857143       0.00000000       0.25000000 </v>
   <v>      -0.42857143       0.00000000       0.25000000 </v>
   <v>      -0.28571429       0.00000000       0.25000000 </v>
   <v>      -0.14285714       0.00000000       0.25000000 </v>
   <v>       0.14285714       0.14285714       0.25000000 </v>
   <v>       0.28571429       0.14285714       0.25000000 </v>
   <v>       0.42857143       0.14285714       0.25000000 </v>
   <v>      -0.42857143       0.14285714       0.25000000 </v>
   <v>      -0.28571429       0.14285714       0.25000000 </v>
   <v>      -0.14285714       0.14285714       0.25000000 </v>
   <v>       0.28571429       0.28571429       0.25000000 </v>
   <v>       0.42857143       0.28571429       0.25000000 </v>
   <v>      -0.42857143       0.28571429       0.25000000 </v>
   <v>      -0.28571429       0.28571429       0.25000000 </v>
   <v>      -0.14285714       0.28571429       0.25000000 </v>
   <v>       0.42857143       0.42857143       0.25000000 </v>
   <v>      -0.42857143       0.42857143       0.25000000 </v>
   <v>      -0.28571429       0.42857143       0.25000000 </v>
   <v>      -0.14285714       0.42857143       0.25000000 </v>
   <v>      -0.42857143      -0.42857143       0.25000000 </v>
   <v>      -0.28571429      -0.42857143       0.25000000 </v>
   <v>      -0.14285714      -0.42857143       0.25000000 </v>
   <v>      -0.28571429      -0.28571429       0.25000000 </v>
   <v>      -0.14285714      -0.28571429       0.25000000 </v>
   <v>      -0.14285714      -0.14285714       0.25000000 </v>
   <v>       0.00000000      -0.00000000       0.37500000 </v>
   <v>       0.14285714      -0.00000000       0.37500000 </v>
   <v>       0.28571429       0.00000000       0.37500000 </v>
   <v>       0.42857143       0.00000000       0.37500000 </v>
   <v>      -0.42857143       0.00000000       0.37500000 </v>
   <v>      -0.28571429       0.00000000       0.37500000 </v>
   <v>      -0.14285714       0.00000000       0.37500000 </v>
   <v>       0.14285714       0.14285714       0.37500000 </v>
   <v>       0.28571429       0.14285714       0.37500000 </v>
   <v>       0.42857143       0.14285714       0.37500000 </v>
   <v>      -0.42857143       0.14285714       0.37500000 </v>
   <v>      -0.28571429       0.14285714       0.37500000 </v>
   <v>      -0.14285714       0.14285714       0.37500000 </v>
   <v>       0.28571429       0.28571429       0.37500000 </v>
   <v>       0.42857143       0.28571429       0.37500000 </v>
   <v>      -0.42857143       0.28571429       0.37500000 </v>
   <v>      -0.28571429       0.28571429       0.37500000 </v>
   <v>      -0.14285714       0.28571429       0.37500000 </v>
   <v>       0.42857143       0.42857143       0.37500000 </v>
   <v>      -0.42857143       0.42857143       0.37500000 </v>
   <v>      -0.28571429       0.42857143       0.37500000 </v>
   <v>      -0.14285714       0.42857143       0.37500000 </v>
   <v>      -0.42857143      -0.42857143       0.37500000 </v>
   <v>      -0.28571429      -0.42857143       0.37500000 </v>
   <v>      -0.14285714      -0.42857143       0.37500000 </v>
   <v>      -0.28571429      -0.28571429       0.37500000 </v>
   <v>      -0.14285714      -0.28571429       0.37500000 </v>
   <v>      -0.14285714      -0.14285714       0.37500000 </v>
   <v>       0.00000000       0.00000000       0.50000000 </v>
   <v>       0.14285714       0.00000000       0.50000000 </v>
   <v>       0.28571429       0.00000000       0.50000000 </v>
   <v>       0.42857143       0.00000000       0.50000000 </v>
   <v>       0.14285714       0.14285714       0.50000000 </v>
   <v>       0.28571429       0.14285714       0.50000000 </v>
   <v>       0.42857143       0.14285714       0.50000000 </v>
   <v>      -0.42857143       0.14285714       0.50000000 </v>
   <v>      -0.28571429       0.14285714       0.50000000 </v>
   <v>      -0.14285714       0.14285714       0.50000000 </v>
   <v>       0.28571429       0.28571429       0.50000000 </v>
   <v>       0.42857143       0.28571429       0.50000000 </v>
   <v>      -0.42857143       0.28571429       0.50000000 </v>
   <v>      -0.28571429       0.28571429       0.50000000 </v>
   <v>       0.42857143       0.42857143       0.50000000 </v>
   <v>      -0.42857143       0.42857143       0.50000000 </v>
  </varray>
  <varray name="weights" >
   <v>       0.00255102 </v>
   <v>       0.01020408 </v>
   <v>       0.01020408 </v>
   <v>       0.01020408 </v>
   <v>       0.00510204 </v>
   <v>       0.01020408 </v>
   <v>       0.01020408 </v>
   <v>       0.01020408 </v>
   <v>       0.01020408 </v>
   <v>       0.00510204 </v>
   <v>       0.00510204 </v>
   <v>       0.01020408 </v>
   <v>       0.01020408 </v>
   <v>       0.00510204 </v>
   <v>       0.00510204 </v>
   <v>       0.00510204 </v>
   <v>       0.00510204 </v>
   <v>       0.01020408 </v>
   <v>       0.01020408 </v>
   <v>       0.01020408 </v>
   <v>       0.01020408 </v>
   <v>       0.01020408 </v>
   <v>       0.01020408 </v>
   <v>       0.00510204 </v>
   <v>       0.01020408 </v>
   <v>       0.01020408 </v>
   <v>       0.01020408 </v>
   <v>       0.01020408 </v>
   <v>       0.01020408 </v>
   <v>       0.00510204 </v>
   <v>       0.01020408 </v>
   <v>       0.01020408 </v>
   <v>       0.01020408 </v>
   <v>       0.01020408 </v>
   <v>       0.00510204 </v>
   <v>       0.01020408 </v>
   <v>       0.01020408 </v>
   <v>       0.01020408 </v>
   <v>       0.00510204 </v>
   <v>       0.01020408 </v>
   <v>       0.01020408 </v>
   <v>       0.00510204 </v>
   <v>       0.01020408 </v>
   <v>       0.00510204 </v>
   <v>       0.00510204 </v>
   <v>       0.01020408 </v>
   <v>       0.01020408 </v>
   <v>       0.01020408 </v>
   <v>       0.01020408 </v>
   <v>       0.01020408 </v>
   <v>       0.01020408 </v>
   <v>       0.00510204 </v>
   <v>       0.01020408 </v>
   <v>       0.01020408 </v>
   <v>       0.01020408 </v>
   <v>       0.01020408 </v>
   <v>       0.01020408 </v>
   <v>       0.00510204 </v>
   <v>       0.01020408 </v>
   <v>       0.01020408 </v>
   <v>       0.01020408 </v>
   <v>       0.01020408 </v>
   <v>       0.00510204 </v>
   <v>       0.01020408 </v>
   <v>       0.01020408 </v>
   <v>       0.01020408 </v>
   <v>       0.00510204 </v>
   <v>       0.01020408 </v>
   <v>       0.01020408 </v>
   <v>       0.00510204 </v>
   <v>       0.01020408 </v>
   <v>       0.00510204 </v>
   <v>       0.00510204 </v>
   <v>       0.01020408 </v>
   <v>       0.01020408 </v>
   <v>       0.01020408 </v>
   <v>       0.01020408 </v>
   <v>       0.01020408 </v>
   <v>       0.01020408 </v>
   <v>       0.00510204 </v>
   <v>       0.01020408 </v>
   <v>       0.01020408 </v>
   <v>       0.01020408 </v>
   <v>       0.01020408 </v>
   <v>       0.01020408 </v>
   <v>       0.00510204 </v>
   <v>       0.01020408 </v>
   <v>       0.01020408 </v>
   <v>       0.01020408 </v>
   <v>       0.01020408 </v>
   <v>       0.00510204 </v>
   <v>       0.01020408 </v>
   <v>       0.01020408 </v>
   <v>       0.01020408 </v>
   <v>       0.00510204 </v>
   <v>       0.01020408 </v>
   <v>       0.01020408 </v>
   <v>       0.00510204 </v>
   <v>       0.01020408 </v>
   <v>       0.00510204 </v>
   <v>       0.00255102 </v>
   <v>       0.01020408 </v>
   <v>       0.01020408 </v>
   <v>       0.01020408 </v>
   <v>       0.00510204 </v>
   <v>       0.01020408 </v>
   <v>       0.01020408 </v>
   <v>       0.01020408 </v>
   <v>       0.01020408 </v>
   <v>       0.00510204 </v>
   <v>       0.00510204 </v>
   <v>       0.01020408 </v>
   <v>       0.01020408 </v>
   <v>       0.00510204 </v>
   <v>       0.00510204 </v>
   <v>       0.00510204 </v>
  </varray>
 </kpoints>
 <parameters>
  <separator name="general" >
   <i type="string" name="SYSTEM">routine with relax: pwdword</i>
   <i type="logical" name="LCOMPAT"> F  </i>
  </separator>
  <separator name="electronic" >
   <i type="string" name="PREC">acc</i>
   <i name="ENMAX">    600.00000000</i>
   <i name="ENAUG">    535.51400000</i>
   <i name="EDIFF">      0.00000000</i>
   <i type="int" name="IALGO">    58</i>
   <i type="int" name="IWAVPR">    10</i>
   <i type="int" name="NBANDS">    72</i>
   <i type="int" name="NBANDSLOW">    -1</i>
   <i type="int" name="NBANDSHIGH">    -1</i>
   <i name="NELECT">    116.00000000</i>
   <i type="int" name="TURBO">     0</i>
   <i type="int" name="IRESTART">     0</i>
   <i type="int" name="NREBOOT">     0</i>
   <i type="int" name="NMIN">     0</i>
   <i name="EREF">      0.00000000</i>
   <separator name="electronic smearing" >
    <i type="int" name="ISMEAR">     0</i>
    <i name="SIGMA">      0.02000000</i>
    <i name="KSPACING">      0.50000000</i>
    <i type="logical" name="KGAMMA"> T  </i>
    <i type="logical" name="KBLOWUP"> F  </i>
   </separator>
   <separator name="electronic projectors" >
    <i type="logical" name="LREAL"> F  </i>
    <v name="ROPT">      0.00000000      0.00000000      0.00000000</v>
    <i type="int" name="LMAXPAW">  -100</i>
    <i type="int" name="LMAXMIX">     2</i>
    <i type="logical" name="NLSPLINE"> F  </i>
   </separator>
   <separator name="electronic startup" >
    <i type="int" name="ISTART">     0</i>
    <i type="int" name="ICHARG">     2</i>
    <i type="int" name="INIWAV">     1</i>
   </separator>
   <separator name="electronic spin" >
    <i type="int" name="ISPIN">     1</i>
    <i type="logical" name="LNONCOLLINEAR"> F  </i>
    <v name="MAGMOM">      1.00000000      1.00000000      1.00000000      1.00000000      1.00000000      1.00000000      1.00000000      1.00000000      1.00000000      1.00000000      1.00000000      1.00000000      1.00000000      1.00000000      1.00000000      1.00000000</v>
    <i name="NUPDOWN">     -1.00000000</i>
    <i type="logical" name="LSORBIT"> F  </i>
    <v name="SAXIS">      0.00000000      0.00000000      1.00000000</v>
    <i type="logical" name="LSPIRAL"> F  </i>
    <v name="QSPIRAL">      0.00000000      0.00000000      0.00000000</v>
    <i type="logical" name="LZEROZ"> F  </i>
   </separator>
   <separator name="electronic exchange-correlation" >
    <i type="logical" name="LASPH"> T  </i>
    <i type="logical" name="LMETAGGA"> F  </i>
   </separator>
   <separator name="electronic convergence" >
    <i type="int" name="NELM">   100</i>
    <i type="int" name="NELMDL">    -5</i>
    <i type="int" name="NELMIN">     6</i>
    <i name="ENINI">    600.00000000</i>
    <separator name="electronic convergence detail" >
     <i type="logical" name="LDIAG"> T  </i>
     <i type="logical" name="LSUBROT"> F  </i>
     <i name="WEIMIN">      0.00000000</i>
     <i name="EBREAK">      0.00000000</i>
     <i name="DEPER">      0.30000000</i>
     <i type="int" name="NRMM">     4</i>
     <i name="TIME">      0.40000000</i>
    </separator>
   </separator>
   <separator name="electronic mixer" >
    <i name="AMIX">      0.40000000</i>
    <i name="BMIX">      1.00000000</i>
    <i name="AMIN">      0.10000000</i>
    <i name="AMIX_MAG">      1.60000000</i>
    <i name="BMIX_MAG">      1.00000000</i>
    <separator name="electronic mixer details" >
     <i type="int" name="IMIX">     4</i>
     <i type="logical" name="MIXFIRST"> F  </i>
     <i type="int" name="MAXMIX">   -45</i>
     <i name="WC">    100.00000000</i>
     <i type="int" name="INIMIX">     1</i>
     <i type="int" name="MIXPRE">     1</i>
     <i type="int" name="MREMOVE">     5</i>
    </separator>
   </separator>
   <separator name="electronic dipolcorrection" >
    <i type="logical" name="LDIPOL"> F  </i>
    <i type="logical" name="LMONO"> F  </i>
    <i type="int" name="IDIPOL">     0</i>
    <i name="EPSILON">      1.00000000</i>
    <v name="DIPOL">   -100.00000000   -100.00000000   -100.00000000</v>
    <i name="EFIELD">      0.00000000</i>
   </separator>
  </separator>
  <separator name="grids" >
   <i type="int" name="NGX">    54</i>
   <i type="int" name="NGY">    54</i>
   <i type="int" name="NGZ">    54</i>
   <i type="int" name="NGXF">   108</i>
   <i type="int" name="NGYF">   108</i>
   <i type="int" name="NGZF">   108</i>
   <i type="logical" name="ADDGRID"> T  </i>
  </separator>
  <separator name="ionic" >
   <i type="int" name="NSW">     0</i>
   <i type="int" name="IBRION">    -1</i>
   <i type="int" name="MDALGO">     0</i>
   <i type="int" name="ISIF">    -1</i>
   <i name="PSTRESS">      0.00000000</i>
   <i name="EDIFFG">      0.00000001</i>
   <i type="int" name="NFREE">     0</i>
   <i name="POTIM">      0.50000000</i>
   <i name="SMASS">     -3.00000000</i>
   <i name="SCALEE">      1.00000000</i>
  </separator>
  <separator name="ionic md" >
   <i name="TEBEG">      0.00010000</i>
   <i name="TEEND">      0.00010000</i>
   <i type="int" name="NBLOCK">     1</i>
   <i type="int" name="KBLOCK">     1</i>
   <i type="int" name="NPACO">   256</i>
   <i name="APACO">     16.00000000</i>
  </separator>
  <separator name="symmetry" >
   <i type="int" name="ISYM">     2</i>
   <i name="SYMPREC">      0.00001000</i>
  </separator>
  <separator name="dos" >
   <i type="int" name="LORBIT">     0</i>
   <v name="RWIGS">     -1.00000000     -1.00000000     -1.00000000</v>
   <i type="int" name="NEDOS">   301</i>
   <i name="EMIN">     10.00000000</i>
   <i name="EMAX">    -10.00000000</i>
   <i name="EFERMI">      0.00000000</i>
  </separator>
  <separator name="writing" >
   <i type="int" name="NWRITE">     2</i>
   <i type="logical" name="LWAVE"> T  </i>
   <i type="logical" name="LDOWNSAMPLE"> F  </i>
   <i type="logical" name="LCHARG"> T  </i>
   <i type="logical" name="LPARD"> F  </i>
   <i type="logical" name="LVTOT"> F  </i>
   <i type="logical" name="LVHAR"> F  </i>
   <i type="logical" name="LELF"> F  </i>
   <i type="logical" name="LOPTICS"> F  </i>
   <v name="STM">      0.00000000      0.00000000      0.00000000      0.00000000      0.00000000      0.00000000      0.00000000</v>
  </separator>
  <separator name="performance" >
   <i type="int" name="NPAR">     6</i>
   <i type="int" name="NSIM">     4</i>
   <i type="int" name="NBLK">    -1</i>
   <i type="logical" name="LPLANE"> T  </i>
   <i type="logical" name="LSCALAPACK"> T  </i>
   <i type="logical" name="LSCAAWARE"> F  </i>
   <i type="logical" name="LSCALU"> F  </i>
   <i type="logical" name="LASYNC"> F  </i>
   <i type="logical" name="LORBITALREAL"> F  </i>
  </separator>
  <separator name="miscellaneous" >
   <i type="int" name="IDIOT">     3</i>
   <i type="int" name="PHON_NSTRUCT">    -1</i>
   <i type="logical" name="LMUSIC"> F  </i>
   <v name="POMASS">     10.81100000     95.94000000     28.08500000</v>
   <v name="DARWINR">      0.00000000      0.00000000      0.00000000</v>
   <v name="DARWINV">      1.00000000      1.00000000      1.00000000</v>
   <i type="logical" name="LCORR"> T  </i>
  </separator>
  <i type="logical" name="GGA_COMPAT"> T  </i>
  <i type="logical" name="LBERRY"> F  </i>
  <i type="int" name="ICORELEVEL">     0</i>
  <i type="logical" name="LDAU"> F  </i>
  <i type="int" name="I_CONSTRAINED_M">     0</i>
  <separator name="electronic exchange-correlation" >
   <i type="string" name="GGA">--</i>
   <i type="int" name="VOSKOWN">     0</i>
   <i type="logical" name="LHFCALC"> F  </i>
   <i type="string" name="PRECFOCK"></i>
   <i type="logical" name="LSYMGRAD"> F  </i>
   <i type="logical" name="LHFONE"> F  </i>
   <i type="logical" name="LRHFCALC"> F  </i>
   <i type="logical" name="LTHOMAS"> F  </i>
   <i type="logical" name="LMODELHF"> F  </i>
   <i type="logical" name="LFOCKACE"> F  </i>
   <i name="ENCUT4O">     -1.00000000</i>
   <i type="int" name="EXXOEP">     0</i>
   <i type="int" name="FOURORBIT">     0</i>
   <i name="AEXX">      0.00000000</i>
   <i name="HFALPHA">      0.00000000</i>
   <i name="MCALPHA">      0.00000000</i>
   <i name="ALDAX">      1.00000000</i>
   <i name="AGGAX">      1.00000000</i>
   <i name="ALDAC">      1.00000000</i>
   <i name="AGGAC">      1.00000000</i>
   <i type="int" name="NKREDX">     1</i>
   <i type="int" name="NKREDY">     1</i>
   <i type="int" name="NKREDZ">     1</i>
   <i type="logical" name="SHIFTRED"> F  </i>
   <i type="logical" name="ODDONLY"> F  </i>
   <i type="logical" name="EVENONLY"> F  </i>
   <i type="int" name="LMAXFOCK">     0</i>
   <i type="int" name="NMAXFOCKAE">     0</i>
   <i type="logical" name="LFOCKAEDFT"> F  </i>
   <i name="HFSCREEN">      0.00000000</i>
   <i name="HFSCREENC">      0.00000000</i>
   <i type="int" name="NBANDSGWLOW">     0</i>
  </separator>
  <separator name="vdW DFT" >
   <i type="logical" name="LUSE_VDW"> F  </i>
   <i name="Zab_VDW">     -0.84910000</i>
   <i name="PARAM1">      0.12340000</i>
   <i name="PARAM2">      1.00000000</i>
   <i name="PARAM3">      0.00000000</i>
  </separator>
  <separator name="model GW" >
   <i type="int" name="MODEL_GW">     0</i>
   <i name="MODEL_EPS0">      7.69506489</i>
   <i name="MODEL_ALPHA">      1.00000000</i>
  </separator>
  <separator name="linear response parameters" >
   <i type="logical" name="LEPSILON"> F  </i>
   <i type="logical" name="LRPA"> F  </i>
   <i type="logical" name="LNABLA"> F  </i>
   <i type="logical" name="LVEL"> F  </i>
   <i type="int" name="KINTER">     0</i>
   <i name="CSHIFT">      0.10000000</i>
   <i name="OMEGAMAX">     -1.00000000</i>
   <i name="DEG_THRESHOLD">      0.00200000</i>
   <i name="RTIME">     -0.10000000</i>
   <i name="WPLASMAI">      0.00000000</i>
   <v name="DFIELD">      0.00000000      0.00000000      0.00000000</v>
   <v name="WPLASMA">      0.00000000      0.00000000      0.00000000      0.00000000      0.00000000      0.00000000      0.00000000      0.00000000      0.00000000</v>
  </separator>
  <separator name="orbital magnetization" >
   <i type="logical" name="NUCIND"> F  </i>
   <v name="MAGPOS">      0.00000000      0.00000000      0.00000000</v>
   <i type="logical" name="LNICSALL"> T  </i>
   <i type="logical" name="ORBITALMAG"> F  </i>
   <i type="logical" name="LMAGBLOCH"> F  </i>
   <i type="logical" name="LCHIMAG"> F  </i>
   <i type="logical" name="LGAUGE"> T  </i>
   <i type="int" name="MAGATOM">     0</i>
   <v name="MAGDIPOL">      0.00000000      0.00000000      0.00000000</v>
   <v name="AVECCONST">      0.00000000      0.00000000      0.00000000</v>
  </separator>
  <separator name="response functions" >
   <i type="logical" name="LFINITE_TEMPERATURE"> F  </i>
   <i type="logical" name="LADDER"> F  </i>
   <i type="logical" name="LRPAFORCE"> F  </i>
   <i type="logical" name="LFXC"> F  </i>
   <i type="logical" name="LHARTREE"> T  </i>
   <i type="int" name="IBSE">     0</i>
   <v type="int" name="KPOINT">    -1     0     0     0</v>
   <i type="logical" name="LTCTC"> F  </i>
   <i type="logical" name="LTCTE"> F  </i>
   <i type="logical" name="LTETE"> F  </i>
   <i type="logical" name="LTRIPLET"> F  </i>
   <i type="logical" name="LFXCEPS"> F  </i>
   <i type="logical" name="LFXHEG"> F  </i>
   <i type="int" name="NATURALO">     2</i>
   <i type="logical" name="LHOLEGF"> F  </i>
   <i type="logical" name="L2ORDER"> F  </i>
   <i type="logical" name="LDMP1"> F  </i>
   <i type="logical" name="LMP2LT"> F  </i>
   <i type="logical" name="LSMP2LT"> F  </i>
   <i type="logical" name="LGWLF"> F  </i>
   <i name="ENCUTGW">     -2.00000000</i>
   <i name="ENCUTGWSOFT">     -2.00000000</i>
   <i name="ENCUTLF">     -1.00000000</i>
   <i type="logical" name="LESF_SPLINES"> F  </i>
   <i type="int" name="LMAXMP2">    -1</i>
   <i name="SCISSOR">      0.00000000</i>
   <i type="int" name="NOMEGA">     0</i>
   <i type="int" name="NOMEGAR">     0</i>
   <i type="int" name="NBANDSGW">    -1</i>
   <i type="int" name="NBANDSO">    -1</i>
   <i type="int" name="NBANDSV">    -1</i>
   <i type="int" name="NELM">   100</i>
   <i type="int" name="NELMHF">     1</i>
   <i type="int" name="DIM">     3</i>
   <i type="int" name="IESPILON">     4</i>
   <i type="int" name="ANTIRES">     0</i>
   <i name="OMEGAMAX">    -30.00000000</i>
   <i name="OMEGAMIN">    -30.00000000</i>
   <i name="OMEGATL">   -200.00000000</i>
   <i type="int" name="OMEGAGRID">     0</i>
   <i name="CSHIFT">     -0.10000000</i>
   <i type="logical" name="LSELFENERGY"> F  </i>
   <i type="logical" name="LSPECTRAL"> F  </i>
   <i type="logical" name="LSPECTRALGW"> F  </i>
   <i type="logical" name="LSINGLES"> F  </i>
   <i type="logical" name="LFERMIGW"> F  </i>
   <i type="logical" name="ODDONLYGW"> F  </i>
   <i type="logical" name="EVENONLYGW"> F  </i>
   <i type="int" name="NKREDLFX">     1</i>
   <i type="int" name="NKREDLFY">     1</i>
   <i type="int" name="NKREDLFZ">     1</i>
   <i type="int" name="MAXMEM">  2800</i>
   <i type="int" name="TELESCOPE">     0</i>
   <i type="int" name="NTAUPAR">    -1</i>
   <i type="int" name="NOMEGAPAR">    -1</i>
   <i name="DAMP_NEWTON">      0.80000001</i>
   <i name="LAMBDA">      1.00000000</i>
  </separator>
  <separator name="External order field" >
   <i name="OFIELD_KAPPA">      0.00000000</i>
   <v name="OFIELD_K">      0.00000000      0.00000000      0.00000000</v>
   <i name="OFIELD_Q6_NEAR">      0.00000000</i>
   <i name="OFIELD_Q6_FAR">      0.00000000</i>
   <i name="OFIELD_A">      0.00000000</i>
  </separator>
 </parameters>
 <atominfo>
  <atoms>      16 </atoms>
  <types>       3 </types>
  <array name="atoms" >
   <dimension dim="1">ion</dimension>
   <field type="string">element</field>
   <field type="int">atomtype</field>
   <set>
    <rc><c>B </c><c>   1</c></rc>
    <rc><c>B </c><c>   1</c></rc>
    <rc><c>B </c><c>   1</c></rc>
    <rc><c>B </c><c>   1</c></rc>
    <rc><c>B </c><c>   1</c></rc>
    <rc><c>B </c><c>   1</c></rc>
    <rc><c>B </c><c>   1</c></rc>
    <rc><c>B </c><c>   1</c></rc>
    <rc><c>Mo</c><c>   2</c></rc>
    <rc><c>Mo</c><c>   2</c></rc>
    <rc><c>Mo</c><c>   2</c></rc>
    <rc><c>Mo</c><c>   2</c></rc>
    <rc><c>Mo</c><c>   2</c></rc>
    <rc><c>Mo</c><c>   2</c></rc>
    <rc><c>Si</c><c>   3</c></rc>
    <rc><c>Si</c><c>   3</c></rc>
   </set>
  </array>
  <array name="atomtypes" >
   <dimension dim="1">type</dimension>
   <field type="int">atomspertype</field>
   <field type="string">element</field>
   <field>mass</field>
   <field>valence</field>
   <field type="string">pseudopotential</field>
   <set>
    <rc><c>   8</c><c>B </c><c>     10.81100000</c><c>      3.00000000</c><c>  PAW_PBE B 06Sep2000                   </c></rc>
    <rc><c>   6</c><c>Mo</c><c>     95.94000000</c><c>     14.00000000</c><c>  PAW_PBE Mo_sv 02Feb2006               </c></rc>
    <rc><c>   2</c><c>Si</c><c>     28.08500000</c><c>      4.00000000</c><c>  PAW_PBE Si 05Jan2001                  </c></rc>
   </set>
  </array>
 </atominfo>
 <structure name="initialpos" >
  <crystal>
   <varray name="basis" >
    <v>       5.61444165       0.00000000      -3.80669575 </v>
    <v>      -1.57811904       5.38808828      -3.80669575 </v>
    <v>       0.00000000       0.00000000       6.78328000 </v>
   </varray>
   <i name="volume">    205.20173052 </i>
   <varray name="rec_basis" >
    <v>       0.17811210       0.05216732       0.00000000 </v>
    <v>       0.00000000       0.18559458       0.00000000 </v>
    <v>       0.09995438       0.13342914       0.14742131 </v>
   </varray>
  </crystal>
  <varray name="positions" >
   <v>       0.08119000       0.58119000       0.99371000 </v>
   <v>       0.91881000       0.41881000       0.00629000 </v>
   <v>       0.58119000       0.58748000       0.50000000 </v>
   <v>       0.41881000       0.41252000       0.50000000 </v>
   <v>       0.58748000       0.08748000       0.00629000 </v>
   <v>       0.41252000       0.91252000       0.99371000 </v>
   <v>       0.08748000       0.08119000       0.50000000 </v>
   <v>       0.91252000       0.91881000       0.50000000 </v>
   <v>       0.73516000       0.23516000       0.97031000 </v>
   <v>       0.25000000       0.25000000       0.00000000 </v>
   <v>       0.26484000       0.76484000       0.02969000 </v>
   <v>       0.75000000       0.75000000       0.00000000 </v>
   <v>       0.23516000       0.26484000       0.50000000 </v>
   <v>       0.76484000       0.73516000       0.50000000 </v>
   <v>       0.00000000       0.00000000       0.00000000 </v>
   <v>       0.50000000       0.50000000       0.00000000 </v>
  </varray>
 </structure>
 <calculation>
  <scstep>
   <time name="total">   37.97   38.35</time>
   <energy>
    <i name="alphaZ">    559.69219192 </i>
    <i name="ewald">  -8774.86345419 </i>
    <i name="hartreedc">  -3119.22229437 </i>
    <i name="XCdc">    521.56816589 </i>
    <i name="pawpsdc">   9417.46121024 </i>
    <i name="pawaedc">  -9379.23717351 </i>
    <i name="eentropy">     -0.00052757 </i>
    <i name="bandstr">     -5.07804622 </i>
    <i name="atom">  11949.18504973 </i>
    <i name="e_fr_energy">   1169.50512192 </i>
    <i name="e_wo_entrp">   1169.50564949 </i>
    <i name="e_0_energy">   1169.50538571 </i>
   </energy>
  </scstep>
  <scstep>
   <time name="total">   43.55   44.54</time>
   <energy>
    <i name="e_fr_energy">   -190.95787767 </i>
    <i name="e_wo_entrp">   -190.95638905 </i>
    <i name="e_0_energy">   -190.95713336 </i>
   </energy>
  </scstep>
  <scstep>
   <time name="total">   48.13   49.15</time>
   <energy>
    <i name="e_fr_energy">   -251.38811931 </i>
    <i name="e_wo_entrp">   -251.38706320 </i>
    <i name="e_0_energy">   -251.38759125 </i>
   </energy>
  </scstep>
  <scstep>
   <time name="total">   47.23   48.16</time>
   <energy>
    <i name="e_fr_energy">   -252.88173440 </i>
    <i name="e_wo_entrp">   -252.88071373 </i>
    <i name="e_0_energy">   -252.88122407 </i>
   </energy>
  </scstep>
  <scstep>
   <time name="total">   49.53   50.40</time>
   <energy>
    <i name="e_fr_energy">   -252.91360664 </i>
    <i name="e_wo_entrp">   -252.91257864 </i>
    <i name="e_0_energy">   -252.91309264 </i>
   </energy>
  </scstep>
  <scstep>
   <time name="total">   48.60   49.37</time>
   <energy>
    <i name="e_fr_energy">   -159.85975031 </i>
    <i name="e_wo_entrp">   -159.85858899 </i>
    <i name="e_0_energy">   -159.85916965 </i>
   </energy>
  </scstep>
  <scstep>
   <time name="total">   51.58   52.25</time>
   <energy>
    <i name="e_fr_energy">   -193.08020877 </i>
    <i name="e_wo_entrp">   -193.07875797 </i>
    <i name="e_0_energy">   -193.07948337 </i>
   </energy>
  </scstep>
  <scstep>
   <time name="total">   53.38   54.09</time>
   <energy>
    <i name="e_fr_energy">   -198.85245205 </i>
    <i name="e_wo_entrp">   -198.85103958 </i>
    <i name="e_0_energy">   -198.85174581 </i>
   </energy>
  </scstep>
  <scstep>
   <time name="total">   54.31   54.91</time>
   <energy>
    <i name="e_fr_energy">   -200.37796076 </i>
    <i name="e_wo_entrp">   -200.37639930 </i>
    <i name="e_0_energy">   -200.37718003 </i>
   </energy>
  </scstep>
  <scstep>
   <time name="total">   49.95   50.92</time>
   <energy>
    <i name="e_fr_energy">   -200.97466431 </i>
    <i name="e_wo_entrp">   -200.97288667 </i>
    <i name="e_0_energy">   -200.97377549 </i>
   </energy>
  </scstep>
  <scstep>
   <time name="total">   55.11   55.72</time>
   <energy>
    <i name="e_fr_energy">   -201.19152154 </i>
    <i name="e_wo_entrp">   -201.18984034 </i>
    <i name="e_0_energy">   -201.19068094 </i>
   </energy>
  </scstep>
  <scstep>
   <time name="total">   56.06   56.61</time>
   <energy>
    <i name="e_fr_energy">   -201.27511519 </i>
    <i name="e_wo_entrp">   -201.27342806 </i>
    <i name="e_0_energy">   -201.27427162 </i>
   </energy>
  </scstep>
  <scstep>
   <time name="total">   60.40   61.20</time>
   <energy>
    <i name="e_fr_energy">   -201.32188195 </i>
    <i name="e_wo_entrp">   -201.31994340 </i>
    <i name="e_0_energy">   -201.32091268 </i>
   </energy>
  </scstep>
  <scstep>
   <time name="total">   57.43   58.32</time>
   <energy>
    <i name="e_fr_energy">   -201.34321506 </i>
    <i name="e_wo_entrp">   -201.34113228 </i>
    <i name="e_0_energy">   -201.34217367 </i>
   </energy>
  </scstep>
  <scstep>
   <time name="total">   58.01   58.74</time>
   <energy>
    <i name="e_fr_energy">   -201.35628073 </i>
    <i name="e_wo_entrp">   -201.35413189 </i>
    <i name="e_0_energy">   -201.35520631 </i>
   </energy>
  </scstep>
  <scstep>
   <time name="total">   57.58   58.31</time>
   <energy>
    <i name="e_fr_energy">   -201.36189990 </i>
    <i name="e_wo_entrp">   -201.35967101 </i>
    <i name="e_0_energy">   -201.36078545 </i>
   </energy>
  </scstep>
  <scstep>
   <time name="total">   55.54   56.28</time>
   <energy>
    <i name="e_fr_energy">   -201.36399957 </i>
    <i name="e_wo_entrp">   -201.36174450 </i>
    <i name="e_0_energy">   -201.36287204 </i>
   </energy>
  </scstep>
  <scstep>
   <time name="total">   51.58   52.14</time>
   <energy>
    <i name="e_fr_energy">   -201.36504201 </i>
    <i name="e_wo_entrp">   -201.36277750 </i>
    <i name="e_0_energy">   -201.36390976 </i>
   </energy>
  </scstep>
  <scstep>
   <time name="total">   53.85   54.38</time>
   <energy>
    <i name="e_fr_energy">   -201.36545226 </i>
    <i name="e_wo_entrp">   -201.36317209 </i>
    <i name="e_0_energy">   -201.36431218 </i>
   </energy>
  </scstep>
  <scstep>
   <time name="total">   57.43   58.03</time>
   <energy>
    <i name="e_fr_energy">   -201.36562050 </i>
    <i name="e_wo_entrp">   -201.36334518 </i>
    <i name="e_0_energy">   -201.36448284 </i>
   </energy>
  </scstep>
  <scstep>
   <time name="total">   53.54   54.23</time>
   <energy>
    <i name="e_fr_energy">   -201.36572152 </i>
    <i name="e_wo_entrp">   -201.36345306 </i>
    <i name="e_0_energy">   -201.36458729 </i>
   </energy>
  </scstep>
  <scstep>
   <time name="total">   52.98   53.51</time>
   <energy>
    <i name="e_fr_energy">   -201.36576076 </i>
    <i name="e_wo_entrp">   -201.36349352 </i>
    <i name="e_0_energy">   -201.36462714 </i>
   </energy>
  </scstep>
  <scstep>
   <time name="total">   51.54   52.02</time>
   <energy>
    <i name="e_fr_energy">   -201.36577453 </i>
    <i name="e_wo_entrp">   -201.36351279 </i>
    <i name="e_0_energy">   -201.36464366 </i>
   </energy>
  </scstep>
  <scstep>
   <time name="total">   53.89   54.49</time>
   <energy>
    <i name="e_fr_energy">   -201.36578249 </i>
    <i name="e_wo_entrp">   -201.36352263 </i>
    <i name="e_0_energy">   -201.36465256 </i>
   </energy>
  </scstep>
  <scstep>
   <time name="total">   50.97   51.46</time>
   <energy>
    <i name="e_fr_energy">   -201.36578544 </i>
    <i name="e_wo_entrp">   -201.36352685 </i>
    <i name="e_0_energy">   -201.36465615 </i>
   </energy>
  </scstep>
  <scstep>
   <time name="total">   52.73   53.31</time>
   <energy>
    <i name="e_fr_energy">   -201.36578678 </i>
    <i name="e_wo_entrp">   -201.36352920 </i>
    <i name="e_0_energy">   -201.36465799 </i>
   </energy>
  </scstep>
  <scstep>
   <time name="total">   50.79   51.25</time>
   <energy>
    <i name="e_fr_energy">   -201.36578751 </i>
    <i name="e_wo_entrp">   -201.36352987 </i>
    <i name="e_0_energy">   -201.36465869 </i>
   </energy>
  </scstep>
  <scstep>
   <time name="total">   52.59   53.07</time>
   <energy>
    <i name="e_fr_energy">   -201.36578776 </i>
    <i name="e_wo_entrp">   -201.36353022 </i>
    <i name="e_0_energy">   -201.36465899 </i>
   </energy>
  </scstep>
  <scstep>
   <time name="total">   51.26   51.83</time>
   <energy>
    <i name="e_fr_energy">   -201.36578786 </i>
    <i name="e_wo_entrp">   -201.36353012 </i>
    <i name="e_0_energy">   -201.36465899 </i>
   </energy>
  </scstep>
  <scstep>
   <time name="total">   55.98   56.48</time>
   <energy>
    <i name="e_fr_energy">   -201.36578789 </i>
    <i name="e_wo_entrp">   -201.36352979 </i>
    <i name="e_0_energy">   -201.36465884 </i>
   </energy>
  </scstep>
  <scstep>
   <time name="total">   51.58   52.07</time>
   <energy>
    <i name="e_fr_energy">   -201.36578792 </i>
    <i name="e_wo_entrp">   -201.36352970 </i>
    <i name="e_0_energy">   -201.36465881 </i>
   </energy>
  </scstep>
  <scstep>
   <time name="total">   49.59   50.08</time>
   <energy>
    <i name="e_fr_energy">   -201.36578793 </i>
    <i name="e_wo_entrp">   -201.36352961 </i>
    <i name="e_0_energy">   -201.36465877 </i>
   </energy>
  </scstep>
  <scstep>
   <time name="total">   51.00   51.84</time>
   <energy>
    <i name="e_fr_energy">   -201.36578793 </i>
    <i name="e_wo_entrp">   -201.36352959 </i>
    <i name="e_0_energy">   -201.36465876 </i>
   </energy>
  </scstep>
  <scstep>
   <time name="total">   53.92   54.85</time>
   <energy>
    <i name="e_fr_energy">   -201.36578794 </i>
    <i name="e_wo_entrp">   -201.36352963 </i>
    <i name="e_0_energy">   -201.36465878 </i>
   </energy>
  </scstep>
  <scstep>
   <time name="total">   51.35   52.09</time>
   <energy>
    <i name="e_fr_energy">   -201.36578794 </i>
    <i name="e_wo_entrp">   -201.36352963 </i>
    <i name="e_0_energy">   -201.36465878 </i>
   </energy>
  </scstep>
  <scstep>
   <time name="total">   52.42   53.25</time>
   <energy>
    <i name="e_fr_energy">   -201.36578794 </i>
    <i name="e_wo_entrp">   -201.36352963 </i>
    <i name="e_0_energy">   -201.36465878 </i>
   </energy>
  </scstep>
  <scstep>
   <time name="total">   57.02   57.76</time>
   <energy>
    <i name="alphaZ">    559.69219192 </i>
    <i name="ewald">  -8774.86345419 </i>
    <i name="hartreedc">  -3061.81482472 </i>
    <i name="XCdc">    536.77413418 </i>
    <i name="pawpsdc">  16629.63322107 </i>
    <i name="pawaedc"> -16606.29013846 </i>
    <i name="eentropy">     -0.00225831 </i>
    <i name="bandstr">  -1433.67970916 </i>
    <i name="atom">  11949.18504973 </i>
    <i name="e_fr_energy">   -201.36578794 </i>
    <i name="e_wo_entrp">   -201.36352963 </i>
    <i name="e_0_energy">   -201.36465878 </i>
   </energy>
  </scstep>
  <structure>
   <crystal>
    <varray name="basis" >
     <v>       5.61444165       0.00000000      -3.80669575 </v>
     <v>      -1.57811904       5.38808828      -3.80669575 </v>
     <v>       0.00000000       0.00000000       6.78328000 </v>
    </varray>
    <i name="volume">    205.20173052 </i>
    <varray name="rec_basis" >
     <v>       0.17811210       0.05216732       0.00000000 </v>
     <v>       0.00000000       0.18559458       0.00000000 </v>
     <v>       0.09995438       0.13342914       0.14742131 </v>
    </varray>
   </crystal>
   <varray name="positions" >
    <v>       0.08119000       0.58119000       0.99371000 </v>
    <v>       0.91881000       0.41881000       0.00629000 </v>
    <v>       0.58119000       0.58748000       0.50000000 </v>
    <v>       0.41881000       0.41252000       0.50000000 </v>
    <v>       0.58748000       0.08748000       0.00629000 </v>
    <v>       0.41252000       0.91252000       0.99371000 </v>
    <v>       0.08748000       0.08119000       0.50000000 </v>
    <v>       0.91252000       0.91881000       0.50000000 </v>
    <v>       0.73516000       0.23516000       0.97031000 </v>
    <v>       0.25000000       0.25000000       0.00000000 </v>
    <v>       0.26484000       0.76484000       0.02969000 </v>
    <v>       0.75000000       0.75000000       0.00000000 </v>
    <v>       0.23516000       0.26484000       0.50000000 </v>
    <v>       0.76484000       0.73516000       0.50000000 </v>
    <v>       0.00000000       0.00000000       0.00000000 </v>
    <v>       0.50000000       0.50000000       0.00000000 </v>
   </varray>
  </structure>
  <varray name="forces" >
   <v>       0.00000000       0.00000000       0.00000000 </v>
   <v>       0.00000000       0.00000000       0.00000000 </v>
   <v>       0.00000000       0.00000000       0.00000000 </v>
   <v>       0.00000000       0.00000000       0.00000000 </v>
   <v>       0.00000000       0.00000000       0.00000000 </v>
   <v>       0.00000000       0.00000000       0.00000000 </v>
   <v>       0.00000000       0.00000000       0.00000000 </v>
   <v>       0.00000000       0.00000000       0.00000000 </v>
   <v>       0.00000000       0.00000000       0.00000000 </v>
   <v>       0.00000000       0.00000000       0.00000000 </v>
   <v>       0.00000000       0.00000000       0.00000000 </v>
   <v>       0.00000000       0.00000000       0.00000000 </v>
   <v>       0.00000000       0.00000000       0.00000000 </v>
   <v>       0.00000000       0.00000000       0.00000000 </v>
   <v>       0.00000000       0.00000000       0.00000000 </v>
   <v>       0.00000000       0.00000000       0.00000000 </v>
  </varray>
  <varray name="stress" >
   <v>       0.00000000       0.00000000       0.00000000 </v>
   <v>       0.00000000       0.00000000       0.00000000 </v>
   <v>       0.00000000       0.00000000       0.00000000 </v>
  </varray>
  <energy>
   <i name="e_fr_energy">   -201.36578794 </i>
   <i name="e_wo_entrp">   -201.36352963 </i>
   <i name="e_0_energy">   -201.36465878 </i>
  </energy>
  <time name="totalsc"> 1945.68 1970.82</time>
  <eigenvalues>
   <array>
    <dimension dim="1">band</dimension>
    <dimension dim="2">kpoint</dimension>
    <dimension dim="3">spin</dimension>
    <field>eigene</field>
    <field>occ</field>
    <set>
     <set comment="spin 1">
      <set comment="kpoint 1">
       <r>  -55.1682    1.0000 </r>
       <r>  -55.1677    1.0000 </r>
       <r>  -54.0759    1.0000 </r>
       <r>  -54.0566    1.0000 </r>
       <r>  -54.0487    1.0000 </r>
       <r>  -54.0312    1.0000 </r>
       <r>  -28.8709    1.0000 </r>
       <r>  -28.7886    1.0000 </r>
       <r>  -28.7789    1.0000 </r>
       <r>  -28.7236    1.0000 </r>
       <r>  -28.7211    1.0000 </r>
       <r>  -28.6016    1.0000 </r>
       <r>  -28.5311    1.0000 </r>
       <r>  -28.5286    1.0000 </r>
       <r>  -28.4991    1.0000 </r>
       <r>  -28.4957    1.0000 </r>
       <r>  -27.9258    1.0000 </r>
       <r>  -27.7656    1.0000 </r>
       <r>  -27.7602    1.0000 </r>
       <r>  -27.5774    1.0000 </r>
       <r>  -27.2024    1.0000 </r>
       <r>  -27.0375    1.0000 </r>
       <r>  -27.0312    1.0000 </r>
       <r>  -26.9224    1.0000 </r>
       <r>   -3.9728    1.0000 </r>
       <r>   -1.7270    1.0000 </r>
       <r>   -1.3796    1.0000 </r>
       <r>   -0.4424    1.0000 </r>
       <r>   -0.4361    1.0000 </r>
       <r>   -0.1366    1.0000 </r>
       <r>    0.2373    1.0000 </r>
       <r>    0.2431    1.0000 </r>
       <r>    0.2445    1.0000 </r>
       <r>    2.0464    1.0000 </r>
       <r>    2.3972    1.0000 </r>
       <r>    2.4006    1.0000 </r>
       <r>    2.4681    1.0000 </r>
       <r>    2.4715    1.0000 </r>
       <r>    2.5967    1.0000 </r>
       <r>    3.0512    1.0000 </r>
       <r>    3.2300    1.0000 </r>
       <r>    3.2940    1.0000 </r>
       <r>    4.4359    1.0000 </r>
       <r>    4.4377    1.0000 </r>
       <r>    4.9971    1.0000 </r>
       <r>    5.0730    1.0000 </r>
       <r>    5.8655    1.0000 </r>
       <r>    5.9484    1.0000 </r>
       <r>    5.9545    1.0000 </r>
       <r>    6.2295    1.0000 </r>
       <r>    6.8925    1.0000 </r>
       <r>    7.3620    1.0000 </r>
       <r>    7.4976    1.0000 </r>
       <r>    7.4995    1.0000 </r>
       <r>    7.6390    1.0000 </r>
       <r>    8.2563    0.0000 </r>
       <r>    8.3484    0.0000 </r>
       <r>    8.3490    0.0000 </r>
       <r>    8.4314    0.0000 </r>
       <r>    8.4740    0.0000 </r>
       <r>    8.7352    0.0000 </r>
       <r>    8.8073    0.0000 </r>
       <r>    8.8108    0.0000 </r>
       <r>    9.0938    0.0000 </r>
       <r>    9.0960    0.0000 </r>
       <r>    9.9619    0.0000 </r>
       <r>    9.9652    0.0000 </r>
       <r>   10.0254    0.0000 </r>
       <r>   10.0312    0.0000 </r>
       <r>   10.1152    0.0000 </r>
       <r>   10.2021    0.0000 </r>
       <r>   10.3911    0.0000 </r>
      </set>
      <set comment="kpoint 2">
       <r>  -55.1682    1.0000 </r>
       <r>  -55.1678    1.0000 </r>
       <r>  -54.0748    1.0000 </r>
       <r>  -54.0568    1.0000 </r>
       <r>  -54.0487    1.0000 </r>
       <r>  -54.0323    1.0000 </r>
       <r>  -28.8642    1.0000 </r>
       <r>  -28.7865    1.0000 </r>
       <r>  -28.7762    1.0000 </r>
       <r>  -28.7252    1.0000 </r>
       <r>  -28.7177    1.0000 </r>
       <r>  -28.6073    1.0000 </r>
       <r>  -28.5307    1.0000 </r>
       <r>  -28.5281    1.0000 </r>
       <r>  -28.5016    1.0000 </r>
       <r>  -28.4983    1.0000 </r>
       <r>  -27.9188    1.0000 </r>
       <r>  -27.7721    1.0000 </r>
       <r>  -27.7530    1.0000 </r>
       <r>  -27.5860    1.0000 </r>
       <r>  -27.1953    1.0000 </r>
       <r>  -27.0446    1.0000 </r>
       <r>  -27.0292    1.0000 </r>
       <r>  -26.9292    1.0000 </r>
       <r>   -3.8622    1.0000 </r>
       <r>   -1.6642    1.0000 </r>
       <r>   -1.3589    1.0000 </r>
       <r>   -0.9036    1.0000 </r>
       <r>   -0.5897    1.0000 </r>
       <r>   -0.1370    1.0000 </r>
       <r>    0.1167    1.0000 </r>
       <r>    0.4713    1.0000 </r>
       <r>    0.6806    1.0000 </r>
       <r>    2.1786    1.0000 </r>
       <r>    2.3469    1.0000 </r>
       <r>    2.4303    1.0000 </r>
       <r>    2.4964    1.0000 </r>
       <r>    2.5180    1.0000 </r>
       <r>    2.5619    1.0000 </r>
       <r>    2.9593    1.0000 </r>
       <r>    3.2631    1.0000 </r>
       <r>    3.4366    1.0000 </r>
       <r>    4.2716    1.0000 </r>
       <r>    4.3397    1.0000 </r>
       <r>    4.9960    1.0000 </r>
       <r>    5.0787    1.0000 </r>
       <r>    5.8213    1.0000 </r>
       <r>    5.9530    1.0000 </r>
       <r>    5.9539    1.0000 </r>
       <r>    6.1993    1.0000 </r>
       <r>    6.5835    1.0000 </r>
       <r>    7.3447    1.0000 </r>
       <r>    7.3620    1.0000 </r>
       <r>    7.5667    1.0000 </r>
       <r>    7.7107    1.0000 </r>
       <r>    7.7978    1.0000 </r>
       <r>    7.9408    1.0000 </r>
       <r>    8.0986    0.0003 </r>
       <r>    8.3039    0.0000 </r>
       <r>    8.4237    0.0000 </r>
       <r>    8.6084    0.0000 </r>
       <r>    8.8660    0.0000 </r>
       <r>    8.9192    0.0000 </r>
       <r>    9.3412    0.0000 </r>
       <r>    9.4886    0.0000 </r>
       <r>    9.7419    0.0000 </r>
       <r>    9.8277    0.0000 </r>
       <r>    9.9049    0.0000 </r>
       <r>   10.1470    0.0000 </r>
       <r>   10.2426    0.0000 </r>
       <r>   10.4803    0.0000 </r>
       <r>   11.2123    0.0000 </r>
      </set>
      <set comment="kpoint 3">
       <r>  -55.1681    1.0000 </r>
       <r>  -55.1678    1.0000 </r>
       <r>  -54.0718    1.0000 </r>
       <r>  -54.0586    1.0000 </r>
       <r>  -54.0472    1.0000 </r>
       <r>  -54.0351    1.0000 </r>
       <r>  -28.8464    1.0000 </r>
       <r>  -28.7876    1.0000 </r>
       <r>  -28.7678    1.0000 </r>
       <r>  -28.7305    1.0000 </r>
       <r>  -28.7042    1.0000 </r>
       <r>  -28.6242    1.0000 </r>
       <r>  -28.5287    1.0000 </r>
       <r>  -28.5261    1.0000 </r>
       <r>  -28.5083    1.0000 </r>
       <r>  -28.5050    1.0000 </r>
       <r>  -27.8982    1.0000 </r>
       <r>  -27.7961    1.0000 </r>
       <r>  -27.7267    1.0000 </r>
       <r>  -27.6106    1.0000 </r>
       <r>  -27.1747    1.0000 </r>
       <r>  -27.0703    1.0000 </r>
       <r>  -27.0165    1.0000 </r>
       <r>  -26.9473    1.0000 </r>
       <r>   -3.5391    1.0000 </r>
       <r>   -1.6345    1.0000 </r>
       <r>   -1.4829    1.0000 </r>
       <r>   -1.2959    1.0000 </r>
       <r>   -0.8270    1.0000 </r>
       <r>   -0.4833    1.0000 </r>
       <r>    0.4380    1.0000 </r>
       <r>    0.9371    1.0000 </r>
       <r>    1.1131    1.0000 </r>
       <r>    1.8874    1.0000 </r>
       <r>    2.2563    1.0000 </r>
       <r>    2.4448    1.0000 </r>
       <r>    2.5624    1.0000 </r>
       <r>    2.7594    1.0000 </r>
       <r>    2.8894    1.0000 </r>
       <r>    2.9264    1.0000 </r>
       <r>    3.3201    1.0000 </r>
       <r>    3.5747    1.0000 </r>
       <r>    3.9873    1.0000 </r>
       <r>    4.0626    1.0000 </r>
       <r>    4.9054    1.0000 </r>
       <r>    5.0868    1.0000 </r>
       <r>    5.6147    1.0000 </r>
       <r>    5.9152    1.0000 </r>
       <r>    6.0891    1.0000 </r>
       <r>    6.1328    1.0000 </r>
       <r>    6.1460    1.0000 </r>
       <r>    6.9778    1.0000 </r>
       <r>    7.0818    1.0000 </r>
       <r>    7.1857    1.0000 </r>
       <r>    7.2604    1.0000 </r>
       <r>    7.6106    1.0000 </r>
       <r>    7.8741    1.0000 </r>
       <r>    7.9380    1.0000 </r>
       <r>    8.1206    0.0000 </r>
       <r>    8.3992    0.0000 </r>
       <r>    8.5345    0.0000 </r>
       <r>    8.9248    0.0000 </r>
       <r>    9.2757    0.0000 </r>
       <r>    9.5831    0.0000 </r>
       <r>    9.6693    0.0000 </r>
       <r>    9.6728    0.0000 </r>
       <r>    9.7964    0.0000 </r>
       <r>    9.9006    0.0000 </r>
       <r>   10.2693    0.0000 </r>
       <r>   10.4226    0.0000 </r>
       <r>   11.1907    0.0000 </r>
       <r>   11.7390    0.0000 </r>
      </set>
      <set comment="kpoint 4">
       <r>  -55.1680    1.0000 </r>
       <r>  -55.1679    1.0000 </r>
       <r>  -54.0673    1.0000 </r>
       <r>  -54.0625    1.0000 </r>
       <r>  -54.0436    1.0000 </r>
       <r>  -54.0392    1.0000 </r>
       <r>  -28.8228    1.0000 </r>
       <r>  -28.8009    1.0000 </r>
       <r>  -28.7542    1.0000 </r>
       <r>  -28.7405    1.0000 </r>
       <r>  -28.6793    1.0000 </r>
       <r>  -28.6500    1.0000 </r>
       <r>  -28.5241    1.0000 </r>
       <r>  -28.5212    1.0000 </r>
       <r>  -28.5167    1.0000 </r>
       <r>  -28.5135    1.0000 </r>
       <r>  -27.8670    1.0000 </r>
       <r>  -27.8304    1.0000 </r>
       <r>  -27.6887    1.0000 </r>
       <r>  -27.6471    1.0000 </r>
       <r>  -27.1434    1.0000 </r>
       <r>  -27.1061    1.0000 </r>
       <r>  -26.9963    1.0000 </r>
       <r>  -26.9716    1.0000 </r>
       <r>   -3.0290    1.0000 </r>
       <r>   -2.3739    1.0000 </r>
       <r>   -1.2043    1.0000 </r>
       <r>   -1.1881    1.0000 </r>
       <r>   -1.0303    1.0000 </r>
       <r>   -0.8550    1.0000 </r>
       <r>    0.8716    1.0000 </r>
       <r>    1.3738    1.0000 </r>
       <r>    1.4818    1.0000 </r>
       <r>    1.5193    1.0000 </r>
       <r>    1.9234    1.0000 </r>
       <r>    2.0265    1.0000 </r>
       <r>    3.0163    1.0000 </r>
       <r>    3.1552    1.0000 </r>
       <r>    3.2107    1.0000 </r>
       <r>    3.2305    1.0000 </r>
       <r>    3.2861    1.0000 </r>
       <r>    3.4708    1.0000 </r>
       <r>    3.6463    1.0000 </r>
       <r>    3.6860    1.0000 </r>
       <r>    4.8418    1.0000 </r>
       <r>    5.0085    1.0000 </r>
       <r>    5.6178    1.0000 </r>
       <r>    5.7964    1.0000 </r>
       <r>    5.9177    1.0000 </r>
       <r>    5.9792    1.0000 </r>
       <r>    6.3329    1.0000 </r>
       <r>    6.5913    1.0000 </r>
       <r>    6.6125    1.0000 </r>
       <r>    6.6668    1.0000 </r>
       <r>    7.3037    1.0000 </r>
       <r>    7.4308    1.0000 </r>
       <r>    7.9064    1.0000 </r>
       <r>    7.9379    1.0000 </r>
       <r>    8.3153    0.0000 </r>
       <r>    8.4387    0.0000 </r>
       <r>    8.4533    0.0000 </r>
       <r>    8.7590    0.0000 </r>
       <r>    9.5891    0.0000 </r>
       <r>    9.6084    0.0000 </r>
       <r>    9.7914    0.0000 </r>
       <r>    9.8009    0.0000 </r>
       <r>   10.0169    0.0000 </r>
       <r>   10.1197    0.0000 </r>
       <r>   10.3280    0.0000 </r>
       <r>   10.3868    0.0000 </r>
       <r>   10.5860    0.0000 </r>
       <r>   10.8439    0.0000 </r>
      </set>
      <set comment="kpoint 5">
       <r>  -55.1681    1.0000 </r>
       <r>  -55.1678    1.0000 </r>
       <r>  -54.0738    1.0000 </r>
       <r>  -54.0568    1.0000 </r>
       <r>  -54.0488    1.0000 </r>
       <r>  -54.0333    1.0000 </r>
       <r>  -28.8528    1.0000 </r>
       <r>  -28.7829    1.0000 </r>
       <r>  -28.7736    1.0000 </r>
       <r>  -28.7279    1.0000 </r>
       <r>  -28.7097    1.0000 </r>
       <r>  -28.6185    1.0000 </r>
       <r>  -28.5288    1.0000 </r>
       <r>  -28.5272    1.0000 </r>
       <r>  -28.5081    1.0000 </r>
       <r>  -28.5014    1.0000 </r>
       <r>  -27.9135    1.0000 </r>
       <r>  -27.7675    1.0000 </r>
       <r>  -27.7576    1.0000 </r>
       <r>  -27.5945    1.0000 </r>
       <r>  -27.1883    1.0000 </r>
       <r>  -27.0419    1.0000 </r>
       <r>  -27.0367    1.0000 </r>
       <r>  -26.9360    1.0000 </r>
       <r>   -3.6884    1.0000 </r>
       <r>   -1.6083    1.0000 </r>
       <r>   -1.3020    1.0000 </r>
       <r>   -1.2951    1.0000 </r>
       <r>   -0.8594    1.0000 </r>
       <r>   -0.2594    1.0000 </r>
       <r>    0.3633    1.0000 </r>
       <r>    0.8024    1.0000 </r>
       <r>    1.0990    1.0000 </r>
       <r>    1.8980    1.0000 </r>
       <r>    2.3113    1.0000 </r>
       <r>    2.4059    1.0000 </r>
       <r>    2.4933    1.0000 </r>
       <r>    2.5350    1.0000 </r>
       <r>    2.7344    1.0000 </r>
       <r>    2.7675    1.0000 </r>
       <r>    3.3466    1.0000 </r>
       <r>    3.6009    1.0000 </r>
       <r>    4.0965    1.0000 </r>
       <r>    4.2829    1.0000 </r>
       <r>    4.9901    1.0000 </r>
       <r>    5.0508    1.0000 </r>
       <r>    5.7183    1.0000 </r>
       <r>    5.7889    1.0000 </r>
       <r>    5.9957    1.0000 </r>
       <r>    6.1340    1.0000 </r>
       <r>    6.2314    1.0000 </r>
       <r>    7.2432    1.0000 </r>
       <r>    7.2799    1.0000 </r>
       <r>    7.3626    1.0000 </r>
       <r>    7.4371    1.0000 </r>
       <r>    7.6276    1.0000 </r>
       <r>    7.7098    1.0000 </r>
       <r>    7.9548    1.0000 </r>
       <r>    8.1872    0.0000 </r>
       <r>    8.4153    0.0000 </r>
       <r>    8.8034    0.0000 </r>
       <r>    8.9450    0.0000 </r>
       <r>    9.0109    0.0000 </r>
       <r>    9.3833    0.0000 </r>
       <r>    9.5306    0.0000 </r>
       <r>    9.7658    0.0000 </r>
       <r>    9.9663    0.0000 </r>
       <r>   10.0012    0.0000 </r>
       <r>   10.2838    0.0000 </r>
       <r>   10.6065    0.0000 </r>
       <r>   11.1585    0.0000 </r>
       <r>   11.9471    0.0000 </r>
      </set>
      <set comment="kpoint 6">
       <r>  -55.1680    1.0000 </r>
       <r>  -55.1678    1.0000 </r>
       <r>  -54.0707    1.0000 </r>
       <r>  -54.0580    1.0000 </r>
       <r>  -54.0478    1.0000 </r>
       <r>  -54.0362    1.0000 </r>
       <r>  -28.8325    1.0000 </r>
       <r>  -28.7886    1.0000 </r>
       <r>  -28.7647    1.0000 </r>
       <r>  -28.7355    1.0000 </r>
       <r>  -28.6902    1.0000 </r>
       <r>  -28.6388    1.0000 </r>
       <r>  -28.5252    1.0000 </r>
       <r>  -28.5241    1.0000 </r>
       <r>  -28.5164    1.0000 </r>
       <r>  -28.5084    1.0000 </r>
       <r>  -27.8930    1.0000 </r>
       <r>  -27.7871    1.0000 </r>
       <r>  -27.7352    1.0000 </r>
       <r>  -27.6188    1.0000 </r>
       <r>  -27.1682    1.0000 </r>
       <r>  -27.0652    1.0000 </r>
       <r>  -27.0257    1.0000 </r>
       <r>  -26.9545    1.0000 </r>
       <r>   -3.3146    1.0000 </r>
       <r>   -1.9181    1.0000 </r>
       <r>   -1.4520    1.0000 </r>
       <r>   -1.1968    1.0000 </r>
       <r>   -1.0859    1.0000 </r>
       <r>   -0.5301    1.0000 </r>
       <r>    0.7525    1.0000 </r>
       <r>    1.2806    1.0000 </r>
       <r>    1.4285    1.0000 </r>
       <r>    1.5469    1.0000 </r>
       <r>    2.0204    1.0000 </r>
       <r>    2.2827    1.0000 </r>
       <r>    2.6716    1.0000 </r>
       <r>    2.7095    1.0000 </r>
       <r>    2.8725    1.0000 </r>
       <r>    3.0822    1.0000 </r>
       <r>    3.4279    1.0000 </r>
       <r>    3.6071    1.0000 </r>
       <r>    3.9533    1.0000 </r>
       <r>    4.0602    1.0000 </r>
       <r>    4.8499    1.0000 </r>
       <r>    4.9903    1.0000 </r>
       <r>    5.4746    1.0000 </r>
       <r>    5.7385    1.0000 </r>
       <r>    5.7731    1.0000 </r>
       <r>    6.0803    1.0000 </r>
       <r>    6.1574    1.0000 </r>
       <r>    6.7703    1.0000 </r>
       <r>    6.8825    1.0000 </r>
       <r>    7.0263    1.0000 </r>
       <r>    7.2136    1.0000 </r>
       <r>    7.3196    1.0000 </r>
       <r>    7.8504    1.0000 </r>
       <r>    8.0432    0.6753 </r>
       <r>    8.1145    0.0000 </r>
       <r>    8.4583    0.0000 </r>
       <r>    8.7780    0.0000 </r>
       <r>    9.0125    0.0000 </r>
       <r>    9.3461    0.0000 </r>
       <r>    9.4853    0.0000 </r>
       <r>    9.5654    0.0000 </r>
       <r>    9.9109    0.0000 </r>
       <r>   10.1294    0.0000 </r>
       <r>   10.2342    0.0000 </r>
       <r>   10.3998    0.0000 </r>
       <r>   10.7335    0.0000 </r>
       <r>   10.9892    0.0000 </r>
       <r>   11.1820    0.0000 </r>
      </set>
      <set comment="kpoint 7">
       <r>  -55.1679    1.0000 </r>
       <r>  -55.1679    1.0000 </r>
       <r>  -54.0663    1.0000 </r>
       <r>  -54.0616    1.0000 </r>
       <r>  -54.0446    1.0000 </r>
       <r>  -54.0403    1.0000 </r>
       <r>  -28.8097    1.0000 </r>
       <r>  -28.8063    1.0000 </r>
       <r>  -28.7514    1.0000 </r>
       <r>  -28.7477    1.0000 </r>
       <r>  -28.6650    1.0000 </r>
       <r>  -28.6633    1.0000 </r>
       <r>  -28.5238    1.0000 </r>
       <r>  -28.5208    1.0000 </r>
       <r>  -28.5169    1.0000 </r>
       <r>  -28.5166    1.0000 </r>
       <r>  -27.8601    1.0000 </r>
       <r>  -27.8197    1.0000 </r>
       <r>  -27.6972    1.0000 </r>
       <r>  -27.6548    1.0000 </r>
       <r>  -27.1374    1.0000 </r>
       <r>  -27.1005    1.0000 </r>
       <r>  -27.0048    1.0000 </r>
       <r>  -26.9794    1.0000 </r>
       <r>   -2.7715    1.0000 </r>
       <r>   -2.5688    1.0000 </r>
       <r>   -1.2479    1.0000 </r>
       <r>   -1.2125    1.0000 </r>
       <r>   -1.0611    1.0000 </r>
       <r>   -0.8610    1.0000 </r>
       <r>    1.0084    1.0000 </r>
       <r>    1.2517    1.0000 </r>
       <r>    1.5350    1.0000 </r>
       <r>    1.7699    1.0000 </r>
       <r>    1.8201    1.0000 </r>
       <r>    1.9854    1.0000 </r>
       <r>    2.9713    1.0000 </r>
       <r>    2.9845    1.0000 </r>
       <r>    3.2316    1.0000 </r>
       <r>    3.3257    1.0000 </r>
       <r>    3.4454    1.0000 </r>
       <r>    3.5491    1.0000 </r>
       <r>    3.6600    1.0000 </r>
       <r>    3.7579    1.0000 </r>
       <r>    4.7366    1.0000 </r>
       <r>    4.8564    1.0000 </r>
       <r>    5.3867    1.0000 </r>
       <r>    5.5831    1.0000 </r>
       <r>    5.8534    1.0000 </r>
       <r>    5.9247    1.0000 </r>
       <r>    6.3229    1.0000 </r>
       <r>    6.4656    1.0000 </r>
       <r>    6.6328    1.0000 </r>
       <r>    6.8434    1.0000 </r>
       <r>    7.1584    1.0000 </r>
       <r>    7.3692    1.0000 </r>
       <r>    7.8867    1.0000 </r>
       <r>    8.0362    0.8279 </r>
       <r>    8.1065    0.0000 </r>
       <r>    8.4771    0.0000 </r>
       <r>    8.5803    0.0000 </r>
       <r>    8.8550    0.0000 </r>
       <r>    9.5431    0.0000 </r>
       <r>    9.7590    0.0000 </r>
       <r>    9.8984    0.0000 </r>
       <r>   10.0097    0.0000 </r>
       <r>   10.0967    0.0000 </r>
       <r>   10.1237    0.0000 </r>
       <r>   10.4119    0.0000 </r>
       <r>   10.6124    0.0000 </r>
       <r>   10.6564    0.0000 </r>
       <r>   10.8103    0.0000 </r>
      </set>
      <set comment="kpoint 8">
       <r>  -55.1680    1.0000 </r>
       <r>  -55.1678    1.0000 </r>
       <r>  -54.0663    1.0000 </r>
       <r>  -54.0615    1.0000 </r>
       <r>  -54.0447    1.0000 </r>
       <r>  -54.0402    1.0000 </r>
       <r>  -28.8295    1.0000 </r>
       <r>  -28.7922    1.0000 </r>
       <r>  -28.7605    1.0000 </r>
       <r>  -28.7390    1.0000 </r>
       <r>  -28.6915    1.0000 </r>
       <r>  -28.6368    1.0000 </r>
       <r>  -28.5284    1.0000 </r>
       <r>  -28.5239    1.0000 </r>
       <r>  -28.5139    1.0000 </r>
       <r>  -28.5083    1.0000 </r>
       <r>  -27.8551    1.0000 </r>
       <r>  -27.8215    1.0000 </r>
       <r>  -27.6961    1.0000 </r>
       <r>  -27.6555    1.0000 </r>
       <r>  -27.1372    1.0000 </r>
       <r>  -27.1007    1.0000 </r>
       <r>  -27.0047    1.0000 </r>
       <r>  -26.9795    1.0000 </r>
       <r>   -3.1436    1.0000 </r>
       <r>   -2.1102    1.0000 </r>
       <r>   -1.3343    1.0000 </r>
       <r>   -1.1820    1.0000 </r>
       <r>   -0.9593    1.0000 </r>
       <r>   -0.8797    1.0000 </r>
       <r>    0.6804    1.0000 </r>
       <r>    1.0005    1.0000 </r>
       <r>    1.3500    1.0000 </r>
       <r>    1.7955    1.0000 </r>
       <r>    2.1617    1.0000 </r>
       <r>    2.4277    1.0000 </r>
       <r>    2.9534    1.0000 </r>
       <r>    2.9910    1.0000 </r>
       <r>    3.1222    1.0000 </r>
       <r>    3.1981    1.0000 </r>
       <r>    3.3353    1.0000 </r>
       <r>    3.4464    1.0000 </r>
       <r>    3.7911    1.0000 </r>
       <r>    3.8901    1.0000 </r>
       <r>    4.6492    1.0000 </r>
       <r>    4.9768    1.0000 </r>
       <r>    5.4164    1.0000 </r>
       <r>    5.6951    1.0000 </r>
       <r>    5.9256    1.0000 </r>
       <r>    6.1300    1.0000 </r>
       <r>    6.2427    1.0000 </r>
       <r>    6.4028    1.0000 </r>
       <r>    6.6589    1.0000 </r>
       <r>    7.1750    1.0000 </r>
       <r>    7.2932    1.0000 </r>
       <r>    7.3938    1.0000 </r>
       <r>    7.8439    1.0000 </r>
       <r>    7.8636    1.0000 </r>
       <r>    8.2316    0.0000 </r>
       <r>    8.3858    0.0000 </r>
       <r>    8.5953    0.0000 </r>
       <r>    8.7028    0.0000 </r>
       <r>    9.2530    0.0000 </r>
       <r>    9.6036    0.0000 </r>
       <r>    9.8732    0.0000 </r>
       <r>    9.9114    0.0000 </r>
       <r>   10.0647    0.0000 </r>
       <r>   10.2053    0.0000 </r>
       <r>   10.4265    0.0000 </r>
       <r>   10.5147    0.0000 </r>
       <r>   10.8545    0.0000 </r>
       <r>   11.3908    0.0000 </r>
      </set>
      <set comment="kpoint 9">
       <r>  -55.1681    1.0000 </r>
       <r>  -55.1678    1.0000 </r>
       <r>  -54.0707    1.0000 </r>
       <r>  -54.0578    1.0000 </r>
       <r>  -54.0480    1.0000 </r>
       <r>  -54.0362    1.0000 </r>
       <r>  -28.8506    1.0000 </r>
       <r>  -28.7874    1.0000 </r>
       <r>  -28.7681    1.0000 </r>
       <r>  -28.7305    1.0000 </r>
       <r>  -28.7108    1.0000 </r>
       <r>  -28.6169    1.0000 </r>
       <r>  -28.5304    1.0000 </r>
       <r>  -28.5278    1.0000 </r>
       <r>  -28.5061    1.0000 </r>
       <r>  -28.5017    1.0000 </r>
       <r>  -27.8866    1.0000 </r>
       <r>  -27.7860    1.0000 </r>
       <r>  -27.7343    1.0000 </r>
       <r>  -27.6190    1.0000 </r>
       <r>  -27.1680    1.0000 </r>
       <r>  -27.0656    1.0000 </r>
       <r>  -27.0254    1.0000 </r>
       <r>  -26.9546    1.0000 </r>
       <r>   -3.5758    1.0000 </r>
       <r>   -1.4407    1.0000 </r>
       <r>   -1.4186    1.0000 </r>
       <r>   -1.3816    1.0000 </r>
       <r>   -0.7010    1.0000 </r>
       <r>   -0.6637    1.0000 </r>
       <r>    0.4359    1.0000 </r>
       <r>    0.5491    1.0000 </r>
       <r>    0.9327    1.0000 </r>
       <r>    2.2425    1.0000 </r>
       <r>    2.4475    1.0000 </r>
       <r>    2.5457    1.0000 </r>
       <r>    2.6461    1.0000 </r>
       <r>    2.6817    1.0000 </r>
       <r>    2.9463    1.0000 </r>
       <r>    3.0987    1.0000 </r>
       <r>    3.2481    1.0000 </r>
       <r>    3.4196    1.0000 </r>
       <r>    3.8027    1.0000 </r>
       <r>    4.2556    1.0000 </r>
       <r>    4.8930    1.0000 </r>
       <r>    5.0550    1.0000 </r>
       <r>    5.5749    1.0000 </r>
       <r>    5.8438    1.0000 </r>
       <r>    6.0739    1.0000 </r>
       <r>    6.2086    1.0000 </r>
       <r>    6.4151    1.0000 </r>
       <r>    6.6908    1.0000 </r>
       <r>    7.0064    1.0000 </r>
       <r>    7.1923    1.0000 </r>
       <r>    7.3533    1.0000 </r>
       <r>    7.6738    1.0000 </r>
       <r>    7.8402    1.0000 </r>
       <r>    8.1175    0.0000 </r>
       <r>    8.2554    0.0000 </r>
       <r>    8.3778    0.0000 </r>
       <r>    8.5823    0.0000 </r>
       <r>    8.6224    0.0000 </r>
       <r>    9.1393    0.0000 </r>
       <r>    9.2762    0.0000 </r>
       <r>    9.7039    0.0000 </r>
       <r>    9.8181    0.0000 </r>
       <r>    9.9240    0.0000 </r>
       <r>   10.1001    0.0000 </r>
       <r>   10.3581    0.0000 </r>
       <r>   10.5710    0.0000 </r>
       <r>   10.9515    0.0000 </r>
       <r>   11.4828    0.0000 </r>
      </set>
      <set comment="kpoint 10">
       <r>  -55.1682    1.0000 </r>
       <r>  -55.1678    1.0000 </r>
       <r>  -54.0737    1.0000 </r>
       <r>  -54.0567    1.0000 </r>
       <r>  -54.0489    1.0000 </r>
       <r>  -54.0333    1.0000 </r>
       <r>  -28.8635    1.0000 </r>
       <r>  -28.7887    1.0000 </r>
       <r>  -28.7735    1.0000 </r>
       <r>  -28.7261    1.0000 </r>
       <r>  -28.7183    1.0000 </r>
       <r>  -28.6067    1.0000 </r>
       <r>  -28.5309    1.0000 </r>
       <r>  -28.5287    1.0000 </r>
       <r>  -28.5001    1.0000 </r>
       <r>  -28.4992    1.0000 </r>
       <r>  -27.9091    1.0000 </r>
       <r>  -27.7617    1.0000 </r>
       <r>  -27.7614    1.0000 </r>
       <r>  -27.5945    1.0000 </r>
       <r>  -27.1883    1.0000 </r>
       <r>  -27.0431    1.0000 </r>
       <r>  -27.0356    1.0000 </r>
       <r>  -26.9360    1.0000 </r>
       <r>   -3.8230    1.0000 </r>
       <r>   -1.6074    1.0000 </r>
       <r>   -1.3886    1.0000 </r>
       <r>   -0.9122    1.0000 </r>
       <r>   -0.5020    1.0000 </r>
       <r>   -0.4044    1.0000 </r>
       <r>    0.2300    1.0000 </r>
       <r>    0.3182    1.0000 </r>
       <r>    0.6426    1.0000 </r>
       <r>    2.2320    1.0000 </r>
       <r>    2.4635    1.0000 </r>
       <r>    2.4698    1.0000 </r>
       <r>    2.5193    1.0000 </r>
       <r>    2.6353    1.0000 </r>
       <r>    2.7651    1.0000 </r>
       <r>    3.0402    1.0000 </r>
       <r>    3.2385    1.0000 </r>
       <r>    3.2799    1.0000 </r>
       <r>    4.0851    1.0000 </r>
       <r>    4.4088    1.0000 </r>
       <r>    4.9881    1.0000 </r>
       <r>    5.0832    1.0000 </r>
       <r>    5.8385    1.0000 </r>
       <r>    5.8783    1.0000 </r>
       <r>    6.0192    1.0000 </r>
       <r>    6.1690    1.0000 </r>
       <r>    6.7788    1.0000 </r>
       <r>    7.2079    1.0000 </r>
       <r>    7.2911    1.0000 </r>
       <r>    7.2938    1.0000 </r>
       <r>    7.4390    1.0000 </r>
       <r>    7.6797    1.0000 </r>
       <r>    8.1050    0.0000 </r>
       <r>    8.3289    0.0000 </r>
       <r>    8.4136    0.0000 </r>
       <r>    8.4163    0.0000 </r>
       <r>    8.4762    0.0000 </r>
       <r>    8.7290    0.0000 </r>
       <r>    9.1154    0.0000 </r>
       <r>    9.1811    0.0000 </r>
       <r>    9.5290    0.0000 </r>
       <r>    9.5497    0.0000 </r>
       <r>    9.8962    0.0000 </r>
       <r>   10.0901    0.0000 </r>
       <r>   10.0939    0.0000 </r>
       <r>   10.3915    0.0000 </r>
       <r>   10.5734    0.0000 </r>
       <r>   10.7939    0.0000 </r>
      </set>
      <set comment="kpoint 11">
       <r>  -55.1679    1.0000 </r>
       <r>  -55.1679    1.0000 </r>
       <r>  -54.0676    1.0000 </r>
       <r>  -54.0572    1.0000 </r>
       <r>  -54.0489    1.0000 </r>
       <r>  -54.0391    1.0000 </r>
       <r>  -28.8127    1.0000 </r>
       <r>  -28.7945    1.0000 </r>
       <r>  -28.7608    1.0000 </r>
       <r>  -28.7457    1.0000 </r>
       <r>  -28.6689    1.0000 </r>
       <r>  -28.6584    1.0000 </r>
       <r>  -28.5243    1.0000 </r>
       <r>  -28.5235    1.0000 </r>
       <r>  -28.5169    1.0000 </r>
       <r>  -28.5150    1.0000 </r>
       <r>  -27.8707    1.0000 </r>
       <r>  -27.7668    1.0000 </r>
       <r>  -27.7513    1.0000 </r>
       <r>  -27.6424    1.0000 </r>
       <r>  -27.1491    1.0000 </r>
       <r>  -27.0520    1.0000 </r>
       <r>  -27.0490    1.0000 </r>
       <r>  -26.9742    1.0000 </r>
       <r>   -2.9199    1.0000 </r>
       <r>   -2.2785    1.0000 </r>
       <r>   -1.3731    1.0000 </r>
       <r>   -1.3246    1.0000 </r>
       <r>   -1.0817    1.0000 </r>
       <r>   -0.7053    1.0000 </r>
       <r>    1.0366    1.0000 </r>
       <r>    1.2158    1.0000 </r>
       <r>    1.5698    1.0000 </r>
       <r>    1.7195    1.0000 </r>
       <r>    2.0055    1.0000 </r>
       <r>    2.0499    1.0000 </r>
       <r>    2.7067    1.0000 </r>
       <r>    2.7364    1.0000 </r>
       <r>    3.2333    1.0000 </r>
       <r>    3.2717    1.0000 </r>
       <r>    3.5025    1.0000 </r>
       <r>    3.5996    1.0000 </r>
       <r>    3.9638    1.0000 </r>
       <r>    4.0281    1.0000 </r>
       <r>    4.5316    1.0000 </r>
       <r>    4.7744    1.0000 </r>
       <r>    5.0192    1.0000 </r>
       <r>    5.4825    1.0000 </r>
       <r>    5.8408    1.0000 </r>
       <r>    5.8873    1.0000 </r>
       <r>    6.2234    1.0000 </r>
       <r>    6.6634    1.0000 </r>
       <r>    6.8335    1.0000 </r>
       <r>    6.8404    1.0000 </r>
       <r>    7.0807    1.0000 </r>
       <r>    7.2124    1.0000 </r>
       <r>    7.7351    1.0000 </r>
       <r>    7.9736    1.0000 </r>
       <r>    8.1461    0.0000 </r>
       <r>    8.6007    0.0000 </r>
       <r>    8.6414    0.0000 </r>
       <r>    9.0618    0.0000 </r>
       <r>    9.5576    0.0000 </r>
       <r>    9.7253    0.0000 </r>
       <r>    9.8550    0.0000 </r>
       <r>   10.0696    0.0000 </r>
       <r>   10.2307    0.0000 </r>
       <r>   10.3050    0.0000 </r>
       <r>   10.4852    0.0000 </r>
       <r>   10.9052    0.0000 </r>
       <r>   10.9345    0.0000 </r>
       <r>   11.1037    0.0000 </r>
      </set>
      <set comment="kpoint 12">
       <r>  -55.1680    1.0000 </r>
       <r>  -55.1679    1.0000 </r>
       <r>  -54.0633    1.0000 </r>
       <r>  -54.0592    1.0000 </r>
       <r>  -54.0470    1.0000 </r>
       <r>  -54.0432    1.0000 </r>
       <r>  -28.8104    1.0000 </r>
       <r>  -28.7943    1.0000 </r>
       <r>  -28.7563    1.0000 </r>
       <r>  -28.7513    1.0000 </r>
       <r>  -28.6808    1.0000 </r>
       <r>  -28.6466    1.0000 </r>
       <r>  -28.5281    1.0000 </r>
       <r>  -28.5223    1.0000 </r>
       <r>  -28.5216    1.0000 </r>
       <r>  -28.5085    1.0000 </r>
       <r>  -27.8354    1.0000 </r>
       <r>  -27.7924    1.0000 </r>
       <r>  -27.7196    1.0000 </r>
       <r>  -27.6779    1.0000 </r>
       <r>  -27.1198    1.0000 </r>
       <r>  -27.0844    1.0000 </r>
       <r>  -27.0280    1.0000 </r>
       <r>  -27.0007    1.0000 </r>
       <r>   -2.7102    1.0000 </r>
       <r>   -2.3975    1.0000 </r>
       <r>   -1.4563    1.0000 </r>
       <r>   -1.2638    1.0000 </r>
       <r>   -0.9417    1.0000 </r>
       <r>   -0.9210    1.0000 </r>
       <r>    0.7305    1.0000 </r>
       <r>    1.1247    1.0000 </r>
       <r>    1.6410    1.0000 </r>
       <r>    1.6917    1.0000 </r>
       <r>    2.1990    1.0000 </r>
       <r>    2.4042    1.0000 </r>
       <r>    2.8918    1.0000 </r>
       <r>    2.9261    1.0000 </r>
       <r>    3.1347    1.0000 </r>
       <r>    3.1680    1.0000 </r>
       <r>    3.7321    1.0000 </r>
       <r>    3.8143    1.0000 </r>
       <r>    3.8711    1.0000 </r>
       <r>    3.9339    1.0000 </r>
       <r>    4.3664    1.0000 </r>
       <r>    4.5725    1.0000 </r>
       <r>    4.7848    1.0000 </r>
       <r>    5.2064    1.0000 </r>
       <r>    5.7094    1.0000 </r>
       <r>    6.0831    1.0000 </r>
       <r>    6.1812    1.0000 </r>
       <r>    6.5102    1.0000 </r>
       <r>    6.7124    1.0000 </r>
       <r>    7.1254    1.0000 </r>
       <r>    7.2052    1.0000 </r>
       <r>    7.3591    1.0000 </r>
       <r>    7.8339    1.0000 </r>
       <r>    7.8743    1.0000 </r>
       <r>    7.9637    1.0000 </r>
       <r>    8.3489    0.0000 </r>
       <r>    8.7623    0.0000 </r>
       <r>    8.9809    0.0000 </r>
       <r>    9.3437    0.0000 </r>
       <r>    9.6620    0.0000 </r>
       <r>    9.8086    0.0000 </r>
       <r>   10.2852    0.0000 </r>
       <r>   10.3779    0.0000 </r>
       <r>   10.5024    0.0000 </r>
       <r>   10.6503    0.0000 </r>
       <r>   10.7796    0.0000 </r>
       <r>   11.0919    0.0000 </r>
       <r>   11.2679    0.0000 </r>
      </set>
      <set comment="kpoint 13">
       <r>  -55.1680    1.0000 </r>
       <r>  -55.1678    1.0000 </r>
       <r>  -54.0635    1.0000 </r>
       <r>  -54.0589    1.0000 </r>
       <r>  -54.0474    1.0000 </r>
       <r>  -54.0430    1.0000 </r>
       <r>  -28.8293    1.0000 </r>
       <r>  -28.7880    1.0000 </r>
       <r>  -28.7584    1.0000 </r>
       <r>  -28.7413    1.0000 </r>
       <r>  -28.7017    1.0000 </r>
       <r>  -28.6288    1.0000 </r>
       <r>  -28.5300    1.0000 </r>
       <r>  -28.5274    1.0000 </r>
       <r>  -28.5167    1.0000 </r>
       <r>  -28.5019    1.0000 </r>
       <r>  -27.8281    1.0000 </r>
       <r>  -27.7953    1.0000 </r>
       <r>  -27.7189    1.0000 </r>
       <r>  -27.6786    1.0000 </r>
       <r>  -27.1194    1.0000 </r>
       <r>  -27.0850    1.0000 </r>
       <r>  -27.0276    1.0000 </r>
       <r>  -27.0009    1.0000 </r>
       <r>   -3.1222    1.0000 </r>
       <r>   -1.8291    1.0000 </r>
       <r>   -1.4815    1.0000 </r>
       <r>   -1.1675    1.0000 </r>
       <r>   -1.1413    1.0000 </r>
       <r>   -0.7613    1.0000 </r>
       <r>    0.4128    1.0000 </r>
       <r>    0.8688    1.0000 </r>
       <r>    1.2239    1.0000 </r>
       <r>    2.1214    1.0000 </r>
       <r>    2.5585    1.0000 </r>
       <r>    2.7233    1.0000 </r>
       <r>    2.8480    1.0000 </r>
       <r>    2.8988    1.0000 </r>
       <r>    3.0896    1.0000 </r>
       <r>    3.1448    1.0000 </r>
       <r>    3.3276    1.0000 </r>
       <r>    3.5921    1.0000 </r>
       <r>    3.6844    1.0000 </r>
       <r>    4.2189    1.0000 </r>
       <r>    4.6588    1.0000 </r>
       <r>    4.7904    1.0000 </r>
       <r>    5.0684    1.0000 </r>
       <r>    5.1198    1.0000 </r>
       <r>    5.6365    1.0000 </r>
       <r>    6.0544    1.0000 </r>
       <r>    6.3826    1.0000 </r>
       <r>    6.4352    1.0000 </r>
       <r>    6.7357    1.0000 </r>
       <r>    7.1144    1.0000 </r>
       <r>    7.3063    1.0000 </r>
       <r>    7.5998    1.0000 </r>
       <r>    7.8882    1.0000 </r>
       <r>    8.0027    0.9995 </r>
       <r>    8.1727    0.0000 </r>
       <r>    8.2923    0.0000 </r>
       <r>    8.7019    0.0000 </r>
       <r>    8.7930    0.0000 </r>
       <r>    8.9376    0.0000 </r>
       <r>    9.3455    0.0000 </r>
       <r>    9.9897    0.0000 </r>
       <r>   10.2449    0.0000 </r>
       <r>   10.3081    0.0000 </r>
       <r>   10.4164    0.0000 </r>
       <r>   10.5694    0.0000 </r>
       <r>   11.1212    0.0000 </r>
       <r>   11.3590    0.0000 </r>
       <r>   11.5263    0.0000 </r>
      </set>
      <set comment="kpoint 14">
       <r>  -55.1681    1.0000 </r>
       <r>  -55.1678    1.0000 </r>
       <r>  -54.0677    1.0000 </r>
       <r>  -54.0567    1.0000 </r>
       <r>  -54.0493    1.0000 </r>
       <r>  -54.0390    1.0000 </r>
       <r>  -28.8443    1.0000 </r>
       <r>  -28.7889    1.0000 </r>
       <r>  -28.7607    1.0000 </r>
       <r>  -28.7341    1.0000 </r>
       <r>  -28.7120    1.0000 </r>
       <r>  -28.6185    1.0000 </r>
       <r>  -28.5305    1.0000 </r>
       <r>  -28.5289    1.0000 </r>
       <r>  -28.5107    1.0000 </r>
       <r>  -28.4993    1.0000 </r>
       <r>  -27.8616    1.0000 </r>
       <r>  -27.7641    1.0000 </r>
       <r>  -27.7526    1.0000 </r>
       <r>  -27.6429    1.0000 </r>
       <r>  -27.1488    1.0000 </r>
       <r>  -27.0556    1.0000 </r>
       <r>  -27.0456    1.0000 </r>
       <r>  -26.9743    1.0000 </r>
       <r>   -3.4282    1.0000 </r>
       <r>   -1.4484    1.0000 </r>
       <r>   -1.4135    1.0000 </r>
       <r>   -1.3223    1.0000 </r>
       <r>   -1.0184    1.0000 </r>
       <r>   -0.6178    1.0000 </r>
       <r>    0.2122    1.0000 </r>
       <r>    0.8209    1.0000 </r>
       <r>    0.8645    1.0000 </r>
       <r>    2.3245    1.0000 </r>
       <r>    2.6475    1.0000 </r>
       <r>    2.6541    1.0000 </r>
       <r>    2.7188    1.0000 </r>
       <r>    2.8499    1.0000 </r>
       <r>    3.0269    1.0000 </r>
       <r>    3.2248    1.0000 </r>
       <r>    3.2491    1.0000 </r>
[...]
       <r>    9.7531    0.0000 </r>
       <r>   10.1296    0.0000 </r>
       <r>   10.1847    0.0000 </r>
       <r>   10.3575    0.0000 </r>
       <r>   10.6190    0.0000 </r>
       <r>   10.9176    0.0000 </r>
       <r>   11.1029    0.0000 </r>
       <r>   11.2869    0.0000 </r>
       <r>   11.3075    0.0000 </r>
       <r>   11.5353    0.0000 </r>
       <r>   11.7987    0.0000 </r>
      </set>
      <set comment="kpoint 116">
       <r>  -55.1679    1.0000 </r>
       <r>  -55.1678    1.0000 </r>
       <r>  -54.0756    1.0000 </r>
       <r>  -54.0567    1.0000 </r>
       <r>  -54.0488    1.0000 </r>
       <r>  -54.0317    1.0000 </r>
       <r>  -28.7832    1.0000 </r>
       <r>  -28.7578    1.0000 </r>
       <r>  -28.7538    1.0000 </r>
       <r>  -28.7256    1.0000 </r>
       <r>  -28.6963    1.0000 </r>
       <r>  -28.6867    1.0000 </r>
       <r>  -28.5309    1.0000 </r>
       <r>  -28.5284    1.0000 </r>
       <r>  -28.5244    1.0000 </r>
       <r>  -28.5205    1.0000 </r>
       <r>  -27.9490    1.0000 </r>
       <r>  -27.7719    1.0000 </r>
       <r>  -27.7669    1.0000 </r>
       <r>  -27.5817    1.0000 </r>
       <r>  -27.1990    1.0000 </r>
       <r>  -27.0388    1.0000 </r>
       <r>  -27.0322    1.0000 </r>
       <r>  -26.9259    1.0000 </r>
       <r>   -2.6016    1.0000 </r>
       <r>   -2.4147    1.0000 </r>
       <r>   -1.6237    1.0000 </r>
       <r>   -1.4676    1.0000 </r>
       <r>   -0.8033    1.0000 </r>
       <r>   -0.7083    1.0000 </r>
       <r>    0.5360    1.0000 </r>
       <r>    1.2877    1.0000 </r>
       <r>    1.5863    1.0000 </r>
       <r>    2.3903    1.0000 </r>
       <r>    2.4792    1.0000 </r>
       <r>    2.5102    1.0000 </r>
       <r>    2.5320    1.0000 </r>
       <r>    3.2951    1.0000 </r>
       <r>    3.3508    1.0000 </r>
       <r>    3.3724    1.0000 </r>
       <r>    3.4837    1.0000 </r>
       <r>    3.8085    1.0000 </r>
       <r>    3.9234    1.0000 </r>
       <r>    3.9920    1.0000 </r>
       <r>    4.0584    1.0000 </r>
       <r>    4.1401    1.0000 </r>
       <r>    4.2080    1.0000 </r>
       <r>    4.4751    1.0000 </r>
       <r>    5.3161    1.0000 </r>
       <r>    5.3184    1.0000 </r>
       <r>    5.4198    1.0000 </r>
       <r>    5.6824    1.0000 </r>
       <r>    5.9260    1.0000 </r>
       <r>    6.7590    1.0000 </r>
       <r>    7.3636    1.0000 </r>
       <r>    7.5794    1.0000 </r>
       <r>    7.6607    1.0000 </r>
       <r>    7.9248    1.0000 </r>
       <r>    9.2775    0.0000 </r>
       <r>    9.5275    0.0000 </r>
       <r>    9.6567    0.0000 </r>
       <r>    9.8291    0.0000 </r>
       <r>   10.0789    0.0000 </r>
       <r>   10.2052    0.0000 </r>
       <r>   10.4621    0.0000 </r>
       <r>   10.7802    0.0000 </r>
       <r>   10.9512    0.0000 </r>
       <r>   11.1921    0.0000 </r>
       <r>   11.2861    0.0000 </r>
       <r>   11.5800    0.0000 </r>
       <r>   11.8562    0.0000 </r>
       <r>   11.9488    0.0000 </r>
      </set>
     </set>
    </set>
   </array>
  </eigenvalues>
  <separator name="orbital magnetization" >
   <v name="MAGDIPOLOUT">      0.00000000      0.00000000      0.00000000</v>
  </separator>
  <dos>
   <i name="efermi">      8.04960471 </i>
   <total>
    <array>
     <dimension dim="1">gridpoints</dimension>
     <dimension dim="2">spin</dimension>
     <field>energy</field>
     <field>total</field>
     <field>integrated</field>
     <set>
      <set comment="spin 1">
       <r>   -58.5273     0.0000     0.0000 </r>
       <r>   -58.2810     0.0000     0.0000 </r>
       <r>   -58.0347     0.0000     0.0000 </r>
       <r>   -57.7883     0.0000     0.0000 </r>
       <r>   -57.5420     0.0000     0.0000 </r>
       <r>   -57.2956     0.0000     0.0000 </r>
       <r>   -57.0493     0.0000     0.0000 </r>
       <r>   -56.8030     0.0000     0.0000 </r>
       <r>   -56.5566     0.0000     0.0000 </r>
       <r>   -56.3103     0.0000     0.0000 </r>
       <r>   -56.0640     0.0000     0.0000 </r>
       <r>   -55.8176     0.0000     0.0000 </r>
       <r>   -55.5713     0.0000     0.0000 </r>
       <r>   -55.3249     0.0000     0.0000 </r>
       <r>   -55.0786    16.2379     4.0000 </r>
       <r>   -54.8323     0.0000     4.0000 </r>
       <r>   -54.5859     0.0000     4.0000 </r>
       <r>   -54.3396     0.0000     4.0000 </r>
       <r>   -54.0933     0.4373     4.1077 </r>
       <r>   -53.8469     0.0000    12.0000 </r>
       <r>   -53.6006     0.0000    12.0000 </r>
       <r>   -53.3542     0.0000    12.0000 </r>
       <r>   -53.1079     0.0000    12.0000 </r>
       <r>   -52.8616     0.0000    12.0000 </r>
       <r>   -52.6152     0.0000    12.0000 </r>
       <r>   -52.3689     0.0000    12.0000 </r>
       <r>   -52.1226     0.0000    12.0000 </r>
       <r>   -51.8762     0.0000    12.0000 </r>
       <r>   -51.6299     0.0000    12.0000 </r>
       <r>   -51.3836     0.0000    12.0000 </r>
       <r>   -51.1372     0.0000    12.0000 </r>
       <r>   -50.8909     0.0000    12.0000 </r>
       <r>   -50.6445     0.0000    12.0000 </r>
       <r>   -50.3982     0.0000    12.0000 </r>
       <r>   -50.1519     0.0000    12.0000 </r>
       <r>   -49.9055     0.0000    12.0000 </r>
       <r>   -49.6592     0.0000    12.0000 </r>
       <r>   -49.4129     0.0000    12.0000 </r>
       <r>   -49.1665     0.0000    12.0000 </r>
       <r>   -48.9202     0.0000    12.0000 </r>
       <r>   -48.6738     0.0000    12.0000 </r>
       <r>   -48.4275     0.0000    12.0000 </r>
       <r>   -48.1812     0.0000    12.0000 </r>
       <r>   -47.9348     0.0000    12.0000 </r>
       <r>   -47.6885     0.0000    12.0000 </r>
       <r>   -47.4422     0.0000    12.0000 </r>
       <r>   -47.1958     0.0000    12.0000 </r>
       <r>   -46.9495     0.0000    12.0000 </r>
       <r>   -46.7031     0.0000    12.0000 </r>
       <r>   -46.4568     0.0000    12.0000 </r>
       <r>   -46.2105     0.0000    12.0000 </r>
       <r>   -45.9641     0.0000    12.0000 </r>
       <r>   -45.7178     0.0000    12.0000 </r>
       <r>   -45.4715     0.0000    12.0000 </r>
       <r>   -45.2251     0.0000    12.0000 </r>
       <r>   -44.9788     0.0000    12.0000 </r>
       <r>   -44.7325     0.0000    12.0000 </r>
       <r>   -44.4861     0.0000    12.0000 </r>
       <r>   -44.2398     0.0000    12.0000 </r>
       <r>   -43.9934     0.0000    12.0000 </r>
       <r>   -43.7471     0.0000    12.0000 </r>
       <r>   -43.5008     0.0000    12.0000 </r>
       <r>   -43.2544     0.0000    12.0000 </r>
       <r>   -43.0081     0.0000    12.0000 </r>
       <r>   -42.7618     0.0000    12.0000 </r>
       <r>   -42.5154     0.0000    12.0000 </r>
       <r>   -42.2691     0.0000    12.0000 </r>
       <r>   -42.0227     0.0000    12.0000 </r>
       <r>   -41.7764     0.0000    12.0000 </r>
       <r>   -41.5301     0.0000    12.0000 </r>
       <r>   -41.2837     0.0000    12.0000 </r>
       <r>   -41.0374     0.0000    12.0000 </r>
       <r>   -40.7911     0.0000    12.0000 </r>
       <r>   -40.5447     0.0000    12.0000 </r>
       <r>   -40.2984     0.0000    12.0000 </r>
       <r>   -40.0520     0.0000    12.0000 </r>
       <r>   -39.8057     0.0000    12.0000 </r>
       <r>   -39.5594     0.0000    12.0000 </r>
       <r>   -39.3130     0.0000    12.0000 </r>
       <r>   -39.0667     0.0000    12.0000 </r>
       <r>   -38.8204     0.0000    12.0000 </r>
       <r>   -38.5740     0.0000    12.0000 </r>
       <r>   -38.3277     0.0000    12.0000 </r>
       <r>   -38.0814     0.0000    12.0000 </r>
       <r>   -37.8350     0.0000    12.0000 </r>
       <r>   -37.5887     0.0000    12.0000 </r>
       <r>   -37.3423     0.0000    12.0000 </r>
       <r>   -37.0960     0.0000    12.0000 </r>
       <r>   -36.8497     0.0000    12.0000 </r>
       <r>   -36.6033     0.0000    12.0000 </r>
       <r>   -36.3570     0.0000    12.0000 </r>
       <r>   -36.1107     0.0000    12.0000 </r>
       <r>   -35.8643     0.0000    12.0000 </r>
       <r>   -35.6180     0.0000    12.0000 </r>
       <r>   -35.3716     0.0000    12.0000 </r>
       <r>   -35.1253     0.0000    12.0000 </r>
       <r>   -34.8790     0.0000    12.0000 </r>
       <r>   -34.6326     0.0000    12.0000 </r>
       <r>   -34.3863     0.0000    12.0000 </r>
       <r>   -34.1400     0.0000    12.0000 </r>
       <r>   -33.8936     0.0000    12.0000 </r>
       <r>   -33.6473     0.0000    12.0000 </r>
       <r>   -33.4009     0.0000    12.0000 </r>
       <r>   -33.1546     0.0000    12.0000 </r>
       <r>   -32.9083     0.0000    12.0000 </r>
       <r>   -32.6619     0.0000    12.0000 </r>
       <r>   -32.4156     0.0000    12.0000 </r>
       <r>   -32.1693     0.0000    12.0000 </r>
       <r>   -31.9229     0.0000    12.0000 </r>
       <r>   -31.6766     0.0000    12.0000 </r>
       <r>   -31.4303     0.0000    12.0000 </r>
       <r>   -31.1839     0.0000    12.0000 </r>
       <r>   -30.9376     0.0000    12.0000 </r>
       <r>   -30.6912     0.0000    12.0000 </r>
       <r>   -30.4449     0.0000    12.0000 </r>
       <r>   -30.1986     0.0000    12.0000 </r>
       <r>   -29.9522     0.0000    12.0000 </r>
       <r>   -29.7059     0.0000    12.0000 </r>
       <r>   -29.4596     0.0000    12.0000 </r>
       <r>   -29.2132     0.0000    12.0000 </r>
       <r>   -28.9669     0.0000    12.0000 </r>
       <r>   -28.7205    32.0306    19.8903 </r>
       <r>   -28.4742    35.2326    31.9648 </r>
       <r>   -28.2279     0.0000    32.0000 </r>
       <r>   -27.9815     0.0018    32.0004 </r>
       <r>   -27.7352    17.1060    36.8822 </r>
       <r>   -27.4889     4.8258    40.0000 </r>
       <r>   -27.2425     0.0007    40.0002 </r>
       <r>   -26.9962    21.7384    46.2274 </r>
       <r>   -26.7498     0.0000    48.0000 </r>
       <r>   -26.5035     0.0000    48.0000 </r>
       <r>   -26.2572     0.0000    48.0000 </r>
       <r>   -26.0108     0.0000    48.0000 </r>
       <r>   -25.7645     0.0000    48.0000 </r>
       <r>   -25.5182     0.0000    48.0000 </r>
       <r>   -25.2718     0.0000    48.0000 </r>
       <r>   -25.0255     0.0000    48.0000 </r>
       <r>   -24.7792     0.0000    48.0000 </r>
       <r>   -24.5328     0.0000    48.0000 </r>
       <r>   -24.2865     0.0000    48.0000 </r>
       <r>   -24.0401     0.0000    48.0000 </r>
       <r>   -23.7938     0.0000    48.0000 </r>
       <r>   -23.5475     0.0000    48.0000 </r>
       <r>   -23.3011     0.0000    48.0000 </r>
       <r>   -23.0548     0.0000    48.0000 </r>
       <r>   -22.8085     0.0000    48.0000 </r>
       <r>   -22.5621     0.0000    48.0000 </r>
       <r>   -22.3158     0.0000    48.0000 </r>
       <r>   -22.0694     0.0000    48.0000 </r>
       <r>   -21.8231     0.0000    48.0000 </r>
       <r>   -21.5768     0.0000    48.0000 </r>
       <r>   -21.3304     0.0000    48.0000 </r>
       <r>   -21.0841     0.0000    48.0000 </r>
       <r>   -20.8378     0.0000    48.0000 </r>
       <r>   -20.5914     0.0000    48.0000 </r>
       <r>   -20.3451     0.0000    48.0000 </r>
       <r>   -20.0988     0.0000    48.0000 </r>
       <r>   -19.8524     0.0000    48.0000 </r>
       <r>   -19.6061     0.0000    48.0000 </r>
       <r>   -19.3597     0.0000    48.0000 </r>
       <r>   -19.1134     0.0000    48.0000 </r>
       <r>   -18.8671     0.0000    48.0000 </r>
       <r>   -18.6207     0.0000    48.0000 </r>
       <r>   -18.3744     0.0000    48.0000 </r>
       <r>   -18.1281     0.0000    48.0000 </r>
       <r>   -17.8817     0.0000    48.0000 </r>
       <r>   -17.6354     0.0000    48.0000 </r>
       <r>   -17.3890     0.0000    48.0000 </r>
       <r>   -17.1427     0.0000    48.0000 </r>
       <r>   -16.8964     0.0000    48.0000 </r>
       <r>   -16.6500     0.0000    48.0000 </r>
       <r>   -16.4037     0.0000    48.0000 </r>
       <r>   -16.1574     0.0000    48.0000 </r>
       <r>   -15.9110     0.0000    48.0000 </r>
       <r>   -15.6647     0.0000    48.0000 </r>
       <r>   -15.4183     0.0000    48.0000 </r>
       <r>   -15.1720     0.0000    48.0000 </r>
       <r>   -14.9257     0.0000    48.0000 </r>
       <r>   -14.6793     0.0000    48.0000 </r>
       <r>   -14.4330     0.0000    48.0000 </r>
       <r>   -14.1867     0.0000    48.0000 </r>
       <r>   -13.9403     0.0000    48.0000 </r>
       <r>   -13.6940     0.0000    48.0000 </r>
       <r>   -13.4477     0.0000    48.0000 </r>
       <r>   -13.2013     0.0000    48.0000 </r>
       <r>   -12.9550     0.0000    48.0000 </r>
       <r>   -12.7086     0.0000    48.0000 </r>
       <r>   -12.4623     0.0000    48.0000 </r>
       <r>   -12.2160     0.0000    48.0000 </r>
       <r>   -11.9696     0.0000    48.0000 </r>
       <r>   -11.7233     0.0000    48.0000 </r>
       <r>   -11.4770     0.0000    48.0000 </r>
       <r>   -11.2306     0.0000    48.0000 </r>
       <r>   -10.9843     0.0000    48.0000 </r>
       <r>   -10.7379     0.0000    48.0000 </r>
       <r>   -10.4916     0.0000    48.0000 </r>
       <r>   -10.2453     0.0000    48.0000 </r>
       <r>    -9.9989     0.0000    48.0000 </r>
       <r>    -9.7526     0.0000    48.0000 </r>
       <r>    -9.5063     0.0000    48.0000 </r>
       <r>    -9.2599     0.0000    48.0000 </r>
       <r>    -9.0136     0.0000    48.0000 </r>
       <r>    -8.7672     0.0000    48.0000 </r>
       <r>    -8.5209     0.0000    48.0000 </r>
       <r>    -8.2746     0.0000    48.0000 </r>
       <r>    -8.0282     0.0000    48.0000 </r>
       <r>    -7.7819     0.0000    48.0000 </r>
       <r>    -7.5356     0.0000    48.0000 </r>
       <r>    -7.2892     0.0000    48.0000 </r>
       <r>    -7.0429     0.0000    48.0000 </r>
       <r>    -6.7966     0.0000    48.0000 </r>
       <r>    -6.5502     0.0000    48.0000 </r>
       <r>    -6.3039     0.0000    48.0000 </r>
       <r>    -6.0575     0.0000    48.0000 </r>
       <r>    -5.8112     0.0000    48.0000 </r>
       <r>    -5.5649     0.0000    48.0000 </r>
       <r>    -5.3185     0.0000    48.0000 </r>
       <r>    -5.0722     0.0000    48.0000 </r>
       <r>    -4.8259     0.0000    48.0000 </r>
       <r>    -4.5795     0.0000    48.0000 </r>
       <r>    -4.3332     0.0000    48.0000 </r>
       <r>    -4.0868     0.0000    48.0000 </r>
       <r>    -3.8405     0.2361    48.0582 </r>
       <r>    -3.5942     0.6100    48.2268 </r>
       <r>    -3.3478     0.4854    48.4308 </r>
       <r>    -3.1015     0.9292    48.8463 </r>
       <r>    -2.8552     1.7299    49.3394 </r>
       <r>    -2.6088     1.1671    49.8385 </r>
       <r>    -2.3625     1.5556    50.3832 </r>
       <r>    -2.1161     1.0976    50.9132 </r>
       <r>    -1.8698     1.3227    51.4483 </r>
       <r>    -1.6235     2.0265    52.1931 </r>
       <r>    -1.3771     5.6937    53.8975 </r>
       <r>    -1.1308     4.7749    55.9466 </r>
       <r>    -0.8845     4.7688    57.6084 </r>
       <r>    -0.6381     4.7860    59.3524 </r>
       <r>    -0.3918     1.0801    59.8732 </r>
       <r>    -0.1455     0.1940    59.9611 </r>
       <r>     0.1009     0.0475    60.0117 </r>
       <r>     0.3472     0.4520    60.1522 </r>
       <r>     0.5936     1.9981    60.9922 </r>
       <r>     0.8399     3.2130    62.0976 </r>
       <r>     1.0862     4.1166    63.3916 </r>
       <r>     1.3326     3.2608    64.4614 </r>
       <r>     1.5789     3.2621    65.7117 </r>
       <r>     1.8252     3.7107    66.9753 </r>
       <r>     2.0716     2.4122    68.1452 </r>
       <r>     2.3179     4.4214    69.5228 </r>
       <r>     2.5643     5.6121    71.3416 </r>
       <r>     2.8106     7.3503    74.1015 </r>
       <r>     3.0569     8.5312    77.1985 </r>
       <r>     3.3033     6.9128    79.8457 </r>
       <r>     3.5496     6.5421    82.1626 </r>
       <r>     3.7959     6.2712    84.6367 </r>
       <r>     4.0423     5.8019    86.9853 </r>
       <r>     4.2886     3.0923    88.2924 </r>
       <r>     4.5350     3.3604    89.3839 </r>
       <r>     4.7813     3.6717    90.6290 </r>
       <r>     5.0276     5.3063    92.6337 </r>
       <r>     5.2740     2.2580    94.0256 </r>
       <r>     5.5203     3.8530    95.2859 </r>
       <r>     5.7666     5.4719    97.1183 </r>
       <r>     6.0130     4.9249    99.1163 </r>
       <r>     6.2593     6.4075   101.5835 </r>
       <r>     6.5056     5.1791   103.6279 </r>
       <r>     6.7520     4.4479   105.2283 </r>
       <r>     6.9983     3.2221   106.5335 </r>
       <r>     7.2447     5.5656   108.4884 </r>
       <r>     7.4910     5.8448   110.7204 </r>
       <r>     7.7373     5.1433   112.5731 </r>
       <r>     7.9837     8.3045   115.3671 </r>
       <r>     8.2300     4.5520   117.3050 </r>
       <r>     8.4763     4.7237   118.9442 </r>
       <r>     8.7227     4.7715   120.5734 </r>
       <r>     8.9690     4.6280   122.3594 </r>
       <r>     9.2154     3.5494   123.8284 </r>
       <r>     9.4617     4.4376   125.5472 </r>
       <r>     9.7080     5.3424   127.6119 </r>
       <r>     9.9544     8.0827   130.4298 </r>
       <r>    10.2007     6.7255   132.8608 </r>
       <r>    10.4470     6.2412   135.2415 </r>
       <r>    10.6934     6.4984   137.6212 </r>
       <r>    10.9397     5.2835   139.7097 </r>
       <r>    11.1861     4.8506   141.4500 </r>
       <r>    11.4324     2.9826   142.7449 </r>
       <r>    11.6787     2.0098   143.6737 </r>
       <r>    11.9251     0.4617   143.9199 </r>
       <r>    12.1714     0.0414   144.0000 </r>
       <r>    12.4177     0.0000   144.0000 </r>
       <r>    12.6641     0.0000   144.0000 </r>
       <r>    12.9104     0.0000   144.0000 </r>
       <r>    13.1567     0.0000   144.0000 </r>
       <r>    13.4031     0.0000   144.0000 </r>
       <r>    13.6494     0.0000   144.0000 </r>
       <r>    13.8958     0.0000   144.0000 </r>
       <r>    14.1421     0.0000   144.0000 </r>
       <r>    14.3884     0.0000   144.0000 </r>
       <r>    14.6348     0.0000   144.0000 </r>
       <r>    14.8811     0.0000   144.0000 </r>
       <r>    15.1274     0.0000   144.0000 </r>
       <r>    15.3738     0.0000   144.0000 </r>
      </set>
     </set>
    </array>
   </total>
  </dos>
 </calculation>
 <structure name="finalpos" >
  <crystal>
   <varray name="basis" >
    <v>       5.61444165       0.00000000      -3.80669575 </v>
    <v>      -1.57811904       5.38808828      -3.80669575 </v>
    <v>       0.00000000       0.00000000       6.78328000 </v>
   </varray>
   <i name="volume">    205.20173052 </i>
   <varray name="rec_basis" >
    <v>       0.17811210       0.05216732       0.00000000 </v>
    <v>       0.00000000       0.18559458       0.00000000 </v>
    <v>       0.09995438       0.13342914       0.14742131 </v>
   </varray>
  </crystal>
  <varray name="positions" >
   <v>       0.08119000       0.58119000       0.99371000 </v>
   <v>       0.91881000       0.41881000       0.00629000 </v>
   <v>       0.58119000       0.58748000       0.50000000 </v>
   <v>       0.41881000       0.41252000       0.50000000 </v>
   <v>       0.58748000       0.08748000       0.00629000 </v>
   <v>       0.41252000       0.91252000       0.99371000 </v>
   <v>       0.08748000       0.08119000       0.50000000 </v>
   <v>       0.91252000       0.91881000       0.50000000 </v>
   <v>       0.73516000       0.23516000       0.97031000 </v>
   <v>       0.25000000       0.25000000       0.00000000 </v>
   <v>       0.26484000       0.76484000       0.02969000 </v>
   <v>       0.75000000       0.75000000       0.00000000 </v>
   <v>       0.23516000       0.26484000       0.50000000 </v>
   <v>       0.76484000       0.73516000       0.50000000 </v>
   <v>       0.00000000       0.00000000       0.00000000 </v>
   <v>       0.50000000       0.50000000       0.00000000 </v>
  </varray>
 </structure>
</modeling>
