 vasp.6.2.0 18Jan21 (build Jan 05 2022 15:41:44) complex                        
  
 executed on             LinuxIFC date 2025.05.07  17:10:04
 running on   24 total cores
 distrk:  each k-point on   12 cores,    2 groups
 distr:  one band on NCORE=   2 cores,    6 groups


--------------------------------------------------------------------------------------------------------


 INCAR:
   SYSTEM = routine with relax: pwdword
   ICHARG = 2
   NPAR = 6
   KPAR = 2
   NCORE = 2
   ADDGRID = T
   PREC = Acc
   ENCUT = 600
   METAGGA = R2SCAN
   LASPH = .TRUE.
   LMIXTAU = .FALSE.
   ALGO = A
   EDIFF = 1E-9
   NELM = 100
   NELMIN = 6
   IALGO = 38
   LREAL = F
   NSW = 0
   ISIF = -1
   ISMEAR = 0
   SIGMA = 0.02
   SYMPREC = 1E-4

 POTCAR:    PAW_PBE B 06Sep2000                   
 POTCAR:    PAW_PBE Mo_sv 02Feb2006               
 POTCAR:    PAW_PBE Si 05Jan2001                  
 -----------------------------------------------------------------------------
|                                                                             |
|           W    W    AA    RRRRR   N    N  II  N    N   GGGG   !!!           |
|           W    W   A  A   R    R  NN   N  II  NN   N  G    G  !!!           |
|           W    W  A    A  R    R  N N  N  II  N N  N  G       !!!           |
|           W WW W  AAAAAA  RRRRR   N  N N  II  N  N N  G  GGG   !            |
|           WW  WW  A    A  R   R   N   NN  II  N   NN  G    G                |
|           W    W  A    A  R    R  N    N  II  N    N   GGGG   !!!           |
|                                                                             |
|     For optimal performance we recommend to set                             |
|       NCORE = 2 up to number-of-cores-per-socket                            |
|     NCORE specifies how many cores store one orbital (NPAR=cpu/NCORE).      |
|     This setting can greatly improve the performance of VASP for DFT.       |
|     The default, NCORE=1 might be grossly inefficient on modern             |
|     multi-core architectures or massively parallel machines. Do your        |
|     own testing! More info at https://www.vasp.at/wiki/index.php/NCORE      |
|     Unfortunately you need to use the default for GW and RPA                |
|     calculations (for HF NCORE is supported but not extensively tested      |
|     yet).                                                                   |
|                                                                             |
 -----------------------------------------------------------------------------

 POTCAR:    PAW_PBE B 06Sep2000                   
   VRHFIN =B: s2p1                                                                                  
   LEXCH  = PE                                                                                      
   EATOM  =    71.1703 eV,    5.2309 Ry                                                             
                                                                                                    
   TITEL  = PAW_PBE B 06Sep2000                                                                     
   LULTRA =        F    use ultrasoft PP ?                                                          
   IUNSCR =        1    unscreen: 0-lin 1-nonlin 2-no                                               
   RPACOR =    1.200    partial core radius                                                         
   POMASS =   10.811; ZVAL   =    3.000    mass and valenz                                          
   RCORE  =    1.700    outmost cutoff radius                                                       
   RWIGS  =    1.710; RWIGS  =    0.905    wigner-seitz radius (au A)                               
   ENMAX  =  318.614; ENMIN  =  238.960 eV                                                          
   ICORE  =        2    local potential                                                             
   LCOR   =        T    correct aug charges                                                         
   LPAW   =        T    paw PP                                                                      
   EAUG   =  535.514                                                                                
   DEXC   =    0.000                                                                                
   RMAX   =    1.732    core radius for proj-oper                                                   
   RAUG   =    1.300    factor for augmentation sphere                                              
   RDEP   =    1.757    radius for radial grids                                                     
   RDEPT  =    1.436    core radius for aug-charge                                                  
                                                                                                    
   Atomic configuration                                                                             
    4 entries                                                                                       
     n  l   j            E        occ.                                                              
     1  0  0.50      -180.5896   2.0000                                                             
     2  0  0.50        -9.4431   2.0000                                                             
     2  1  0.50        -3.6068   1.0000                                                             
     3  2  1.50        -4.0817   0.0000                                                             
   Description                                                                                      
     l       E           TYP  RCUT    TYP  RCUT                                                     
     0     -9.4430752     23  1.500                                                                 
     0      0.8675899     23  1.500                                                                 
     1     -3.6067955     23  1.700                                                                 
     1      6.1086146     23  1.700                                                                 
     2     -4.0817478      7  1.700                                                                 
  local pseudopotential read in
  partial core-charges read in
  partial kinetic energy density read in
  atomic valenz-charges read in
  non local Contribution for L=           0  read in
    real space projection operators read in
  non local Contribution for L=           0  read in
    real space projection operators read in
  non local Contribution for L=           1  read in
    real space projection operators read in
  non local Contribution for L=           1  read in
    real space projection operators read in
    PAW grid and wavefunctions read in
 
   number of l-projection  operators is LMAX  =           4
   number of lm-projection operators is LMMAX =           8
 
 POTCAR:    PAW_PBE Mo_sv 02Feb2006               
   VRHFIN =Mo: 4p5s4d                                                                               
   LEXCH  = PE                                                                                      
   EATOM  =  1862.2866 eV,  136.8742 Ry                                                             
                                                                                                    
   TITEL  = PAW_PBE Mo_sv 02Feb2006                                                                 
   LULTRA =        F    use ultrasoft PP ?                                                          
   IUNSCR =        1    unscreen: 0-lin 1-nonlin 2-no                                               
   RPACOR =    2.200    partial core radius                                                         
   POMASS =   95.940; ZVAL   =   14.000    mass and valenz                                          
   RCORE  =    2.500    outmost cutoff radius                                                       
   RWIGS  =    2.750; RWIGS  =    1.455    wigner-seitz radius (au A)                               
   ENMAX  =  242.676; ENMIN  =  182.007 eV                                                          
   ICORE  =        3    local potential                                                             
   LCOR   =        T    correct aug charges                                                         
   LPAW   =        T    paw PP                                                                      
   EAUG   =  446.014                                                                                
   DEXC   =    0.000                                                                                
   RMAX   =    2.563    core radius for proj-oper                                                   
   RAUG   =    1.300    factor for augmentation sphere                                              
   RDEP   =    2.641    radius for radial grids                                                     
   RDEPT  =    2.031    core radius for aug-charge                                                  
                                                                                                    
   Atomic configuration                                                                             
   11 entries                                                                                       
     n  l   j            E        occ.                                                              
     1  0  0.50    -19819.0341   2.0000                                                             
     2  0  0.50     -2799.0127   2.0000                                                             
     2  1  1.50     -2502.0276   6.0000                                                             
     3  0  0.50      -476.4449   2.0000                                                             
     3  1  1.50      -379.1496   6.0000                                                             
     3  2  2.50      -220.9367  10.0000                                                             
     4  0  0.50       -64.3378   2.0000                                                             
     5  0  0.50        -4.0862   1.0000                                                             
     4  1  1.50       -38.4773   6.0000                                                             
     4  2  2.50        -3.7535   5.0000                                                             
     4  3  2.50        -1.3606   0.0000                                                             
   Description                                                                                      
     l       E           TYP  RCUT    TYP  RCUT                                                     
     0    -64.3377829     23  2.100                                                                 
     0     -4.0861640     23  2.400                                                                 
     1    -38.4772993     23  2.100                                                                 
     1     13.6058260     23  2.100                                                                 
     2     -3.7534941     23  2.400                                                                 
     2     -5.1140767     23  2.400                                                                 
     3     -4.0817478     23  2.500                                                                 
  local pseudopotential read in
  partial core-charges read in
  partial kinetic energy density read in
  atomic valenz-charges read in
  non local Contribution for L=           0  read in
    real space projection operators read in
  non local Contribution for L=           0  read in
    real space projection operators read in
  non local Contribution for L=           1  read in
    real space projection operators read in
  non local Contribution for L=           1  read in
    real space projection operators read in
  non local Contribution for L=           2  read in
    real space projection operators read in
  non local Contribution for L=           2  read in
    real space projection operators read in
    PAW grid and wavefunctions read in
 
   number of l-projection  operators is LMAX  =           6
   number of lm-projection operators is LMMAX =          18
 
 POTCAR:    PAW_PBE Si 05Jan2001                  
   VRHFIN =Si: s2p2                                                                                 
   LEXCH  = PE                                                                                      
   EATOM  =   103.0669 eV,    7.5752 Ry                                                             
                                                                                                    
   TITEL  = PAW_PBE Si 05Jan2001                                                                    
   LULTRA =        F    use ultrasoft PP ?                                                          
   IUNSCR =        1    unscreen: 0-lin 1-nonlin 2-no                                               
   RPACOR =    1.500    partial core radius                                                         
   POMASS =   28.085; ZVAL   =    4.000    mass and valenz                                          
   RCORE  =    1.900    outmost cutoff radius                                                       
   RWIGS  =    2.480; RWIGS  =    1.312    wigner-seitz radius (au A)                               
   ENMAX  =  245.345; ENMIN  =  184.009 eV                                                          
   ICORE  =        2    local potential                                                             
   LCOR   =        T    correct aug charges                                                         
   LPAW   =        T    paw PP                                                                      
   EAUG   =  322.069                                                                                
   DEXC   =    0.000                                                                                
   RMAX   =    1.950    core radius for proj-oper                                                   
   RAUG   =    1.300    factor for augmentation sphere                                              
   RDEP   =    1.993    radius for radial grids                                                     
   RDEPT  =    1.837    core radius for aug-charge                                                  
                                                                                                    
   Atomic configuration                                                                             
    6 entries                                                                                       
     n  l   j            E        occ.                                                              
     1  0  0.50     -1785.8828   2.0000                                                             
     2  0  0.50      -139.4969   2.0000                                                             
     2  1  1.50       -95.5546   6.0000                                                             
     3  0  0.50       -10.8127   2.0000                                                             
     3  1  0.50        -4.0811   2.0000                                                             
     3  2  1.50        -4.0817   0.0000                                                             
   Description                                                                                      
     l       E           TYP  RCUT    TYP  RCUT                                                     
     0    -10.8127223     23  1.900                                                                 
     0     -7.6451159     23  1.900                                                                 
     1     -4.0811372     23  1.900                                                                 
     1      2.4879257     23  1.900                                                                 
     2     -4.0817478      7  1.900                                                                 
  local pseudopotential read in
  partial core-charges read in
  partial kinetic energy density read in
  atomic valenz-charges read in
  non local Contribution for L=           0  read in
    real space projection operators read in
  non local Contribution for L=           0  read in
    real space projection operators read in
  non local Contribution for L=           1  read in
    real space projection operators read in
  non local Contribution for L=           1  read in
    real space projection operators read in
    PAW grid and wavefunctions read in
 
   number of l-projection  operators is LMAX  =           4
   number of lm-projection operators is LMMAX =           8
 
 -----------------------------------------------------------------------------
|                                                                             |
|               ----> ADVICE to this user running VASP <----                  |
|                                                                             |
|     You have a (more or less) 'large supercell' and for larger cells it     |
|     might be more efficient to use real-space projection operators.         |
|     Therefore, try LREAL= Auto in the INCAR file.                           |
|     Mind: For very accurate calculation, you might also keep the            |
|     reciprocal projection scheme (i.e. LREAL=.FALSE.).                      |
|                                                                             |
 -----------------------------------------------------------------------------

  PAW_PBE B 06Sep2000                   :
 energy of atom  1       EATOM=  -71.1703
 kinetic energy error for atom=    0.0007 (will be added to EATOM!!)
  PAW_PBE Mo_sv 02Feb2006               :
 energy of atom  2       EATOM=-1862.2866
 kinetic energy error for atom=    0.0041 (will be added to EATOM!!)
  PAW_PBE Si 05Jan2001                  :
 energy of atom  3       EATOM= -103.0669
 kinetic energy error for atom=    0.0003 (will be added to EATOM!!)
 
 
 POSCAR: EA108
  positions in direct lattice
  No initial velocities read in

 METAGGA = R2SCA    LMAXTAU =  6    LMIXTAU =  F

 exchange correlation table for  LEXCH =        8
   RHO(1)=    0.500       N(1)  =     2000
   RHO(2)=  100.500       N(2)  =     4000
 


--------------------------------------------------------------------------------------------------------


 ion  position               nearest neighbor table
   1  0.365  0.546  0.188-   9 1.74  15 1.74  22 2.23  18 2.24  21 2.39  24 2.49
   2  0.643  0.823  0.188-   4 1.74   7 1.74  22 2.23  18 2.24  17 2.39  24 2.49
   3  0.357  0.177  0.812-  15 1.74   9 1.74  19 2.23  20 2.24  21 2.39  24 2.60
   4  0.823  0.635  0.180-   2 1.74   6 1.74  20 2.23  22 2.24  21 2.39  23 2.49
   5  0.954  0.135  0.812-  10 1.74  14 1.74  22 2.23  20 2.24  17 2.39  24 2.49
   6  0.635  0.454  0.812-   7 1.74   4 1.74  19 2.23  20 2.24  17 2.39  24 2.60
   7  0.454  0.643  0.820-   6 1.74   2 1.74  18 2.23  19 2.24  21 2.39  23 2.60
   8  0.046  0.865  0.188-  16 1.74  13 1.74  19 2.23  18 2.24  21 2.39  24 2.60
   9  0.546  0.357  0.180-   1 1.74   3 1.74  20 2.23  22 2.24  17 2.39  23 2.49
  10  0.143  0.954  0.820-   5 1.74  12 1.74  18 2.23  22 2.24  21 2.39  23 2.60
  11  0.677  0.857  0.812-  13 1.74  16 1.74  22 2.23  20 2.24  21 2.39  24 2.49
  12  0.323  0.143  0.188-  14 1.74  10 1.74  19 2.23  18 2.24  17 2.39  24 2.60
  13  0.865  0.677  0.820-  11 1.74   8 1.74  18 2.23  22 2.24  17 2.39  23 2.60
  14  0.135  0.323  0.180-  12 1.74   5 1.74  20 2.23  19 2.24  21 2.39  23 2.49
  15  0.177  0.365  0.820-   3 1.74   1 1.74  18 2.23  19 2.24  17 2.39  23 2.60
  16  0.857  0.046  0.180-   8 1.74  11 1.74  20 2.23  19 2.24  17 2.39  23 2.49
  17  0.750  0.250  0.500-   9 2.39  16 2.39  15 2.39  13 2.39   2 2.39  12 2.39   6 2.39   5 2.39
                            24 2.58  23 2.58  18 3.47  22 3.47  19 3.47  20 3.47
  18  0.254  0.754  0.008-  13 2.23  15 2.23   7 2.23  10 2.23   2 2.24  12 2.24   1 2.24   8 2.24
                            24 2.32  23 2.48  19 3.33  22 3.33  19 3.33  22 3.33  17 3.47  21 3.47
  19  0.246  0.254  0.500-   6 2.23   8 2.23   3 2.23  12 2.23  14 2.24  15 2.24   7 2.24  16 2.24
                            23 2.32  24 2.48  18 3.33  20 3.33  18 3.33  20 3.33  21 3.47  17 3.47
  20  0.746  0.246  0.992-   4 2.23  14 2.23   9 2.23  16 2.23   3 2.24  11 2.24   5 2.24   6 2.24
                            23 2.30  24 2.32  19 3.33  22 3.33  22 3.33  19 3.33  21 3.47  17 3.47
  21  0.250  0.750  0.500-   7 2.39  10 2.39   4 2.39  14 2.39   3 2.39  11 2.39   8 2.39   1 2.39
                            23 2.58  24 2.58  20 3.47  19 3.47  22 3.47  18 3.47
  22  0.754  0.746  0.500-   1 2.23   5 2.23   2 2.23  11 2.23   4 2.24  13 2.24   9 2.24  10 2.24
                            24 2.30  23 2.32  18 3.33  20 3.33  20 3.33  18 3.33  17 3.47  21 3.47
  23  0.990  0.490  0.480-  20 2.30  19 2.32  22 2.32  18 2.48  14 2.49   4 2.49  16 2.49   9 2.49
                            21 2.58  17 2.58  13 2.60  15 2.60  10 2.60   7 2.60
  24  0.510  0.990  0.500-  22 2.30  20 2.32  18 2.32  19 2.48   1 2.49   5 2.49   2 2.49  11 2.49
                            21 2.58  17 2.58   6 2.60   8 2.60   3 2.60  12 2.60
 
  LATTYP: Found a body centered tetragonal cell.
 ALAT       =     6.6543552597
 C/A-ratio  =     1.5518947021
  
  Lattice vectors:
  
 A1 = (   5.8511448318,   0.0000000000,  -3.8164964972)
 A2 = (  -1.7167891293,   5.5936151931,  -3.8164964972)
 A3 = (   0.0000000000,   0.0000000000,   6.9858100000)


Analysis of symmetry for initial positions (statically):
=====================================================================
 Subroutine PRICEL returns:
 Original cell was already a primitive cell.
 

 Routine SETGRP: Setting up the symmetry group for a 
 body centered tetragonal supercell.


 Subroutine GETGRP returns: Found  4 space group operations
 (whereof  2 operations were pure point group operations)
 out of a pool of 16 trial point group operations.


The static configuration has the point symmetry C_1h.
 The point group associated with its full space group is C_2v.


Analysis of symmetry for dynamics (positions and initial velocities):
=====================================================================
 Subroutine PRICEL returns:
 Original cell was already a primitive cell.
 

 Routine SETGRP: Setting up the symmetry group for a 
 body centered tetragonal supercell.


 Subroutine GETGRP returns: Found  4 space group operations
 (whereof  2 operations were pure point group operations)
 out of a pool of 16 trial point group operations.


The dynamic configuration has the point symmetry C_1h.
 The point group associated with its full space group is C_2v.


 Subroutine INISYM returns: Found  4 space group operations
 (whereof  2 operations are pure point group operations),
 and found     1 'primitive' translations


----------------------------------------------------------------------------------------

                                     Primitive cell                                     

  volume of cell :     228.6389

  direct lattice vectors                    reciprocal lattice vectors
     5.851144832  0.000000000 -3.816496497     0.170906725  0.052454593  0.000000000
    -1.716789129  5.593615193 -3.816496497     0.000000000  0.178775258  0.000000000
     0.000000000  0.000000000  6.985810000     0.093369977  0.126325783  0.143147323

  length of vectors
     6.985810000  6.985810000  6.985810000     0.178775258  0.178775258  0.212526027

  position of ions in fractional coordinates (direct lattice)
     0.365120000  0.545590000  0.188330000
     0.642740000  0.823210000  0.188330000
     0.357260000  0.176790000  0.811670000
     0.823210000  0.634880000  0.180480000
     0.954410000  0.134880000  0.811670000
     0.634880000  0.454410000  0.811670000
     0.454410000  0.642740000  0.819520000
     0.045590000  0.865120000  0.188330000
     0.545590000  0.357260000  0.180480000
     0.142740000  0.954410000  0.819520000
     0.676790000  0.857260000  0.811670000
     0.323210000  0.142740000  0.188330000
     0.865120000  0.676790000  0.819520000
     0.134880000  0.323210000  0.180480000
     0.176790000  0.365120000  0.819520000
     0.857260000  0.045590000  0.180480000
     0.750000000  0.250000000  0.500000000
     0.254030000  0.754030000  0.008060000
     0.245970000  0.254030000  0.500000000
     0.745970000  0.245970000  0.991940000
     0.250000000  0.750000000  0.500000000
     0.754030000  0.745970000  0.500000000
     0.990210000  0.490210000  0.480420000
     0.509790000  0.990210000  0.500000000

  ion indices of the primitive-cell ions
   primitive index   ion index
                 1           1
                 2           2
                 3           3
                 4           4
                 5           5
                 6           6
                 7           7
                 8           8
                 9           9
                10          10
                11          11
                12          12
                13          13
                14          14
                15          15
                16          16
                17          17
                18          18
                19          19
                20          20
                21          21
                22          22
                23          23
                24          24

----------------------------------------------------------------------------------------

 
 
 KPOINTS: EA                                      

Automatic generation of k-mesh.
 Grid dimensions read from file:
 generate k-points for:    6    6    8

 Generating k-lattice:

  Cartesian coordinates                     Fractional coordinates (reciprocal lattice)
     0.028484454  0.008742432  0.000000000     0.166666667  0.000000000  0.000000000
     0.000000000  0.029795876  0.000000000     0.000000000  0.166666667  0.000000000
     0.011671247  0.015790723  0.017893415    -0.000000000 -0.000000000  0.125000000

  Length of vectors
     0.029795876  0.029795876  0.026565753

  Shift w.r.t. Gamma in fractional coordinates (k-lattice)
     0.000000000  0.000000000  0.000000000

 -----------------------------------------------------------------------------
|                                                                             |
|           W    W    AA    RRRRR   N    N  II  N    N   GGGG   !!!           |
|           W    W   A  A   R    R  NN   N  II  NN   N  G    G  !!!           |
|           W    W  A    A  R    R  N N  N  II  N N  N  G       !!!           |
|           W WW W  AAAAAA  RRRRR   N  N N  II  N  N N  G  GGG   !            |
|           WW  WW  A    A  R   R   N   NN  II  N   NN  G    G                |
|           W    W  A    A  R    R  N    N  II  N    N   GGGG   !!!           |
|                                                                             |
|     Your reciprocal lattice and k-lattice belong to different lattice       |
|     classes:                                                                |
|                                                                             |
|        The reciprocal lattice is body-centered tetragonal,                  |
|        whereas your k-lattice is base-centered monoclinic.                  |
|                                                                             |
|     Results are often still useful ...                                      |
|                                                                             |
 -----------------------------------------------------------------------------

 WARNING: IBZKPT: internal override: KBLOWUP is changed to .FALSE.
      ... skipping the blow-up phase ...

 
 Subroutine IBZKPT returns following result:
 ===========================================
 
 Found    130 irreducible k-points:
 
 Following reciprocal coordinates:
            Coordinates               Weight
  0.000000  0.000000  0.000000      1.000000
  0.166667 -0.000000  0.000000      2.000000
  0.333333 -0.000000  0.000000      2.000000
  0.500000  0.000000  0.000000      2.000000
  0.000000  0.166667  0.000000      2.000000
  0.166667  0.166667  0.000000      2.000000
  0.333333  0.166667  0.000000      4.000000
  0.500000  0.166667  0.000000      4.000000
 -0.333333  0.166667  0.000000      2.000000
 -0.166667  0.166667  0.000000      2.000000
  0.000000  0.333333  0.000000      2.000000
  0.166667  0.333333  0.000000      4.000000
  0.333333  0.333333  0.000000      2.000000
  0.500000  0.333333  0.000000      4.000000
 -0.333333  0.333333  0.000000      2.000000
 -0.166667  0.333333  0.000000      2.000000
  0.000000  0.500000  0.000000      2.000000
  0.166667  0.500000  0.000000      4.000000
  0.333333  0.500000  0.000000      4.000000
  0.500000  0.500000  0.000000      2.000000
  0.000000  0.000000  0.125000      2.000000
  0.166667  0.000000  0.125000      2.000000
  0.333333 -0.000000  0.125000      2.000000
  0.500000 -0.000000  0.125000      4.000000
 -0.333333  0.000000  0.125000      2.000000
 -0.166667  0.000000  0.125000      2.000000
  0.000000  0.166667  0.125000      2.000000
  0.166667  0.166667  0.125000      2.000000
  0.333333  0.166667  0.125000      4.000000
  0.500000  0.166667  0.125000      2.000000
 -0.333333  0.166667  0.125000      2.000000
 -0.166667  0.166667  0.125000      2.000000
  0.000000  0.333333  0.125000      2.000000
  0.166667  0.333333  0.125000      4.000000
  0.333333  0.333333  0.125000      2.000000
  0.500000  0.333333  0.125000      2.000000
 -0.333333  0.333333  0.125000      2.000000
 -0.166667  0.333333  0.125000      2.000000
  0.000000  0.500000  0.125000      4.000000
  0.166667  0.500000  0.125000      2.000000
  0.333333  0.500000  0.125000      2.000000
  0.500000  0.500000  0.125000      2.000000
 -0.333333  0.500000  0.125000      2.000000
 -0.166667  0.500000  0.125000      2.000000
  0.000000 -0.333333  0.125000      2.000000
  0.166667 -0.333333  0.125000      2.000000
  0.333333 -0.333333  0.125000      2.000000
  0.500000 -0.333333  0.125000      2.000000
 -0.333333 -0.333333  0.125000      2.000000
 -0.166667 -0.333333  0.125000      4.000000
  0.000000 -0.166667  0.125000      2.000000
  0.166667 -0.166667  0.125000      2.000000
  0.333333 -0.166667  0.125000      2.000000
  0.500000 -0.166667  0.125000      2.000000
 -0.333333 -0.166667  0.125000      4.000000
 -0.166667 -0.166667  0.125000      2.000000
  0.000000  0.000000  0.250000      2.000000
  0.166667  0.000000  0.250000      2.000000
  0.333333 -0.000000  0.250000      2.000000
  0.500000  0.000000  0.250000      4.000000
 -0.333333  0.000000  0.250000      2.000000
 -0.166667  0.000000  0.250000      2.000000
  0.000000  0.166667  0.250000      2.000000
  0.166667  0.166667  0.250000      2.000000
  0.333333  0.166667  0.250000      4.000000
  0.500000  0.166667  0.250000      2.000000
 -0.333333  0.166667  0.250000      2.000000
 -0.166667  0.166667  0.250000      2.000000
  0.000000  0.333333  0.250000      2.000000
  0.333333  0.333333  0.250000      2.000000
  0.500000  0.333333  0.250000      2.000000
 -0.333333  0.333333  0.250000      2.000000
 -0.166667  0.333333  0.250000      2.000000
  0.166667  0.500000  0.250000      2.000000
  0.333333  0.500000  0.250000      2.000000
  0.500000  0.500000  0.250000      2.000000
 -0.333333  0.500000  0.250000      2.000000
 -0.166667  0.500000  0.250000      2.000000
  0.000000 -0.333333  0.250000      2.000000
  0.166667 -0.333333  0.250000      2.000000
  0.333333 -0.333333  0.250000      2.000000
  0.500000 -0.333333  0.250000      2.000000
 -0.333333 -0.333333  0.250000      2.000000
 -0.166667 -0.333333  0.250000      4.000000
  0.000000 -0.166667  0.250000      2.000000
  0.166667 -0.166667  0.250000      2.000000
  0.333333 -0.166667  0.250000      2.000000
  0.500000 -0.166667  0.250000      2.000000
 -0.166667 -0.166667  0.250000      2.000000
  0.000000  0.000000  0.375000      2.000000
  0.166667  0.000000  0.375000      2.000000
  0.333333  0.000000  0.375000      2.000000
 -0.333333  0.000000  0.375000      2.000000
 -0.166667  0.000000  0.375000      2.000000
  0.000000  0.166667  0.375000      2.000000
  0.166667  0.166667  0.375000      2.000000
  0.500000  0.166667  0.375000      2.000000
 -0.333333  0.166667  0.375000      2.000000
 -0.166667  0.166667  0.375000      2.000000
  0.000000  0.333333  0.375000      2.000000
  0.333333  0.333333  0.375000      2.000000
  0.500000  0.333333  0.375000      2.000000
 -0.333333  0.333333  0.375000      2.000000
 -0.166667  0.333333  0.375000      2.000000
  0.166667  0.500000  0.375000      2.000000
  0.333333  0.500000  0.375000      2.000000
  0.500000  0.500000  0.375000      2.000000
 -0.333333  0.500000  0.375000      2.000000
 -0.166667  0.500000  0.375000      2.000000
  0.000000 -0.333333  0.375000      2.000000
  0.166667 -0.333333  0.375000      2.000000
  0.333333 -0.333333  0.375000      2.000000
  0.500000 -0.333333  0.375000      2.000000
 -0.333333 -0.333333  0.375000      2.000000
  0.000000 -0.166667  0.375000      2.000000
  0.166667 -0.166667  0.375000      2.000000
  0.333333 -0.166667  0.375000      2.000000
  0.500000 -0.166667  0.375000      2.000000
 -0.166667 -0.166667  0.375000      2.000000
  0.166667  0.166667  0.500000      2.000000
  0.500000  0.166667  0.500000      2.000000
 -0.333333  0.166667  0.500000      2.000000
 -0.166667  0.166667  0.500000      2.000000
  0.333333  0.333333  0.500000      2.000000
  0.500000  0.333333  0.500000      2.000000
 -0.333333  0.333333  0.500000      2.000000
 -0.166667  0.333333  0.500000      2.000000
  0.166667  0.500000  0.500000      2.000000
  0.333333  0.500000  0.500000      2.000000
  0.500000  0.500000  0.500000      1.000000
 
 Following cartesian coordinates:
            Coordinates               Weight
  0.000000  0.000000  0.000000      1.000000
  0.028484  0.008742  0.000000      2.000000
  0.056969  0.017485  0.000000      2.000000
  0.085453  0.026227  0.000000      2.000000
  0.000000  0.029796  0.000000      2.000000
  0.028484  0.038538  0.000000      2.000000
  0.056969  0.047281  0.000000      4.000000
  0.085453  0.056023  0.000000      4.000000
 -0.056969  0.012311  0.000000      2.000000
 -0.028484  0.021053  0.000000      2.000000
  0.000000  0.059592  0.000000      2.000000
  0.028484  0.068334  0.000000      4.000000
  0.056969  0.077077  0.000000      2.000000
  0.085453  0.085819  0.000000      4.000000
 -0.056969  0.042107  0.000000      2.000000
 -0.028484  0.050849  0.000000      2.000000
  0.000000  0.089388  0.000000      2.000000
  0.028484  0.098130  0.000000      4.000000
  0.056969  0.106872  0.000000      4.000000
  0.085453  0.115615  0.000000      2.000000
  0.011671  0.015791  0.017893      2.000000
  0.040156  0.024533  0.017893      2.000000
  0.068640  0.033276  0.017893      2.000000
  0.097125  0.042018  0.017893      4.000000
 -0.045298 -0.001694  0.017893      2.000000
 -0.016813  0.007048  0.017893      2.000000
  0.011671  0.045587  0.017893      2.000000
  0.040156  0.054329  0.017893      2.000000
  0.068640  0.063071  0.017893      4.000000
  0.097125  0.071814  0.017893      2.000000
 -0.045298  0.028102  0.017893      2.000000
 -0.016813  0.036844  0.017893      2.000000
  0.011671  0.075382  0.017893      2.000000
  0.040156  0.084125  0.017893      4.000000
  0.068640  0.092867  0.017893      2.000000
  0.097125  0.101610  0.017893      2.000000
 -0.045298  0.057898  0.017893      2.000000
 -0.016813  0.066640  0.017893      2.000000
  0.011671  0.105178  0.017893      4.000000
  0.040156  0.113921  0.017893      2.000000
  0.068640  0.122663  0.017893      2.000000
  0.097125  0.131406  0.017893      2.000000
 -0.045298  0.087693  0.017893      2.000000
 -0.016813  0.096436  0.017893      2.000000
  0.011671 -0.043801  0.017893      2.000000
  0.040156 -0.035059  0.017893      2.000000
  0.068640 -0.026316  0.017893      2.000000
  0.097125 -0.017574  0.017893      2.000000
 -0.045298 -0.061286  0.017893      2.000000
 -0.016813 -0.052543  0.017893      4.000000
  0.011671 -0.014005  0.017893      2.000000
  0.040156 -0.005263  0.017893      2.000000
  0.068640  0.003480  0.017893      2.000000
  0.097125  0.012222  0.017893      2.000000
 -0.045298 -0.031490  0.017893      4.000000
 -0.016813 -0.022748  0.017893      2.000000
  0.023342  0.031581  0.035787      2.000000
  0.051827  0.040324  0.035787      2.000000
  0.080311  0.049066  0.035787      2.000000
  0.108796  0.057809  0.035787      4.000000
 -0.033626  0.014097  0.035787      2.000000
 -0.005142  0.022839  0.035787      2.000000
  0.023342  0.061377  0.035787      2.000000
  0.051827  0.070120  0.035787      2.000000
  0.080311  0.078862  0.035787      4.000000
  0.108796  0.087605  0.035787      2.000000
 -0.033626  0.043892  0.035787      2.000000
 -0.005142  0.052635  0.035787      2.000000
  0.023342  0.091173  0.035787      2.000000
  0.080311  0.108658  0.035787      2.000000
  0.108796  0.117400  0.035787      2.000000
 -0.033626  0.073688  0.035787      2.000000
 -0.005142  0.082431  0.035787      2.000000
  0.051827  0.129712  0.035787      2.000000
  0.080311  0.138454  0.035787      2.000000
  0.108796  0.147196  0.035787      2.000000
 -0.033626  0.103484  0.035787      2.000000
 -0.005142  0.112227  0.035787      2.000000
  0.023342 -0.028010  0.035787      2.000000
  0.051827 -0.019268  0.035787      2.000000
  0.080311 -0.010525  0.035787      2.000000
  0.108796 -0.001783  0.035787      2.000000
 -0.033626 -0.045495  0.035787      2.000000
 -0.005142 -0.036753  0.035787      4.000000
  0.023342  0.001786  0.035787      2.000000
  0.051827  0.010528  0.035787      2.000000
  0.080311  0.019270  0.035787      2.000000
  0.108796  0.028013  0.035787      2.000000
 -0.005142 -0.006957  0.035787      2.000000
  0.035014  0.047372  0.053680      2.000000
  0.063498  0.056115  0.053680      2.000000
  0.091983  0.064857  0.053680      2.000000
 -0.021955  0.029887  0.053680      2.000000
  0.006529  0.038630  0.053680      2.000000
  0.035014  0.077168  0.053680      2.000000
  0.063498  0.085910  0.053680      2.000000
  0.120467  0.103395  0.053680      2.000000
 -0.021955  0.059683  0.053680      2.000000
  0.006529  0.068426  0.053680      2.000000
  0.035014  0.106964  0.053680      2.000000
  0.091983  0.124449  0.053680      2.000000
  0.120467  0.133191  0.053680      2.000000
 -0.021955  0.089479  0.053680      2.000000
  0.006529  0.098221  0.053680      2.000000
  0.063498  0.145502  0.053680      2.000000
  0.091983  0.154245  0.053680      2.000000
  0.120467  0.162987  0.053680      2.000000
 -0.021955  0.119275  0.053680      2.000000
  0.006529  0.128017  0.053680      2.000000
  0.035014 -0.012220  0.053680      2.000000
  0.063498 -0.003477  0.053680      2.000000
  0.091983  0.005265  0.053680      2.000000
  0.120467  0.014008  0.053680      2.000000
 -0.021955 -0.029704  0.053680      2.000000
  0.035014  0.017576  0.053680      2.000000
  0.063498  0.026319  0.053680      2.000000
  0.091983  0.035061  0.053680      2.000000
  0.120467  0.043804  0.053680      2.000000
  0.006529  0.008834  0.053680      2.000000
  0.075169  0.101701  0.071574      2.000000
  0.132138  0.119186  0.071574      2.000000
 -0.010284  0.075474  0.071574      2.000000
  0.018201  0.084216  0.071574      2.000000
  0.103654  0.140240  0.071574      2.000000
  0.132138  0.148982  0.071574      2.000000
 -0.010284  0.105270  0.071574      2.000000
  0.018201  0.114012  0.071574      2.000000
  0.075169  0.161293  0.071574      2.000000
  0.103654  0.170035  0.071574      2.000000
  0.132138  0.178778  0.071574      1.000000
 


--------------------------------------------------------------------------------------------------------




 Dimension of arrays:
   k-points           NKPTS =    130   k-points in BZ     NKDIM =    130   number of bands    NBANDS=     84
   number of dos      NEDOS =    301   number of ions     NIONS =     24
   non local maximal  LDIM  =      6   non local SUM 2l+1 LMDIM =     18
   total plane-waves  NPLWV = 175616
   max r-space proj   IRMAX =      1   max aug-charges    IRDMAX= 268888
   dimension x,y,z NGX =    56 NGY =   56 NGZ =   56
   dimension x,y,z NGXF=   112 NGYF=  112 NGZF=  112
   support grid    NGXF=   224 NGYF=  224 NGZF=  224
   ions per type =              16   6   2
   NGX,Y,Z   is equivalent  to a cutoff of  13.33, 13.33, 13.33 a.u.
   NGXF,Y,Z  is equivalent  to a cutoff of  26.65, 26.65, 26.65 a.u.

 SYSTEM =  routine with relax: pwdword             
 POSCAR =  EA108                                   

 Startparameter for this run:
   NWRITE =      2    write-flag & timer
   PREC   = acc       normal or accurate (medium, high low for compatibility)
   ISTART =      0    job   : 0-new  1-cont  2-samecut
   ICHARG =      2    charge: 1-file 2-atom 10-const
   ISPIN  =      1    spin polarized calculation?
   LNONCOLLINEAR =      F non collinear calculations
   LSORBIT =      F    spin-orbit coupling
   INIWAV =      1    electr: 0-lowe 1-rand  2-diag
   LASPH  =      T    aspherical Exc in radial PAW
   METAGGA=      F    non-selfconsistent MetaGGA calc.

 Electronic Relaxation 1
   ENCUT  =  600.0 eV  44.10 Ry    6.64 a.u.  13.95 13.95 13.95*2*pi/ulx,y,z
   ENINI  =  600.0     initial cutoff
   ENAUG  =  535.5 eV  augmentation charge cutoff
   NELM   =    100;   NELMIN=  6; NELMDL= -5     # of ELM steps 
   EDIFF  = 0.1E-08   stopping-criterion for ELM
   LREAL  =      F    real-space projection
   NLSPLINE    = F    spline interpolate recip. space projectors
   LCOMPAT=      F    compatible to vasp.4.4
   GGA_COMPAT  = T    GGA compatible to vasp.4.4-vasp.4.6
   LMAXPAW     = -100 max onsite density
   LMAXMIX     =    2 max onsite mixed and CHGCAR
   VOSKOWN=      0    Vosko Wilk Nusair interpolation
   ROPT   =    0.00000   0.00000   0.00000
 Ionic relaxation
   EDIFFG = 0.1E-07   stopping-criterion for IOM
   NSW    =      0    number of steps for IOM
   NBLOCK =      1;   KBLOCK =      1    inner block; outer block 
   IBRION =     -1    ionic relax: 0-MD 1-quasi-New 2-CG
   NFREE  =      0    steps in history (QN), initial steepest desc. (CG)
   ISIF   =     -1    stress and relaxation
   IWAVPR =     10    prediction:  0-non 1-charg 2-wave 3-comb
   ISYM   =      2    0-nonsym 1-usesym 2-fastsym
   LCORR  =      T    Harris-Foulkes like correction to forces

   POTIM  = 0.5000    time-step for ionic-motion
   TEIN   =    0.0    initial temperature
   TEBEG  =    0.0;   TEEND  =   0.0 temperature during run
   SMASS  =  -3.00    Nose mass-parameter (am)
   estimated Nose-frequenzy (Omega)   =  0.10E-29 period in steps = 0.13E+47 mass=  -0.112E-26a.u.
   SCALEE = 1.0000    scale energy and forces
   NPACO  =    256;   APACO  = 16.0  distance and # of slots for P.C.
   PSTRESS=    0.0 pullay stress

  Mass of Ions in am
   POMASS =  10.81 95.94 28.09
  Ionic Valenz
   ZVAL   =   3.00 14.00  4.00
  Atomic Wigner-Seitz radii
   RWIGS  =  -1.00 -1.00 -1.00
  virtual crystal weights 
   VCA    =   1.00  1.00  1.00
   NELECT =     140.0000    total number of electrons
   NUPDOWN=      -1.0000    fix difference up-down

 DOS related values:
   EMIN   =  10.00;   EMAX   =-10.00  energy-range for DOS
   EFERMI =   0.00
   ISMEAR =     0;   SIGMA  =   0.02  broadening in eV -4-tet -1-fermi 0-gaus

 Electronic relaxation 2 (details)
   IALGO  =     58    algorithm
   LDIAG  =      T    sub-space diagonalisation (order eigenvalues)
   LSUBROT=      F    optimize rotation matrix (better conditioning)
   TURBO    =      0    0=normal 1=particle mesh
   IRESTART =      0    0=no restart 2=restart with 2 vectors
   NREBOOT  =      0    no. of reboots
   NMIN     =      0    reboot dimension
   EREF     =   0.00    reference energy to select bands
   IMIX   =      4    mixing-type and parameters
     AMIX     =   0.40;   BMIX     =  1.00
     AMIX_MAG =   1.60;   BMIX_MAG =  1.00
     AMIN     =   0.10
     WC   =   100.;   INIMIX=   1;  MIXPRE=   1;  MAXMIX= -45

 Intra band minimization:
   WEIMIN = 0.0000     energy-eigenvalue tresh-hold
   EBREAK =  0.30E-11  absolut break condition
   DEPER  =   0.30     relativ break condition  

   TIME   =   0.40     timestep for ELM

  volume/ion in A,a.u.               =       9.53        64.29
  Fermi-wavevector in a.u.,A,eV,Ry     =   1.390168  2.627038 26.294190  1.932568
  Thomas-Fermi vector in A             =   2.514129
 
 Write flags
   LWAVE        =      T    write WAVECAR
   LDOWNSAMPLE  =      F    k-point downsampling of WAVECAR
   LCHARG       =      T    write CHGCAR
   LVTOT        =      F    write LOCPOT, total local potential
   LVHAR        =      F    write LOCPOT, Hartree potential only
   LELF         =      F    write electronic localiz. function (ELF)
   LORBIT       =      0    0 simple, 1 ext, 2 COOP (PROOUT), +10 PAW based schemes


 Dipole corrections
   LMONO  =      F    monopole corrections only (constant potential shift)
   LDIPOL =      F    correct potential (dipole corrections)
   IDIPOL =      0    1-x, 2-y, 3-z, 4-all directions 
   EPSILON=  1.0000000 bulk dielectric constant

 Exchange correlation treatment:
   GGA     =    --    GGA type
   LEXCH   =     8    internal setting for exchange type
   VOSKOWN=      0    Vosko Wilk Nusair interpolation
   LHFCALC =     F    Hartree Fock is set to
   LHFONE  =     F    Hartree Fock one center treatment
   AEXX    =    0.0000 exact exchange contribution

 Linear response parameters
   LEPSILON=     F    determine dielectric tensor
   LRPA    =     F    only Hartree local field effects (RPA)
   LNABLA  =     F    use nabla operator in PAW spheres
   LVEL    =     F    velocity operator in full k-point grid
   LINTERFAST=   F  fast interpolation
   KINTER  =     0    interpolate to denser k-point grid
   CSHIFT  =0.1000    complex shift for real part using Kramers Kronig
   OMEGAMAX=  -1.0    maximum frequency
   DEG_THRESHOLD= 0.2000000E-02 threshold for treating states as degnerate
   RTIME   =   -0.100 relaxation time in fs
  (WPLASMAI=    0.000 imaginary part of plasma frequency in eV, 0.658/RTIME)
   DFIELD  = 0.0000000 0.0000000 0.0000000 field for delta impulse in time
 
 Orbital magnetization related:
   ORBITALMAG=     F  switch on orbital magnetization
   LCHIMAG   =     F  perturbation theory with respect to B field
   DQ        =  0.001000  dq finite difference perturbation B field
   LLRAUG    =     F  two centre corrections for induced B field



--------------------------------------------------------------------------------------------------------


 Static calculation
 charge density and potential will be updated during run
 non-spin polarized calculation
 Conjugate gradient for all bands (Freysoldt, et al. PRB 79, 241103 (2009))
 preconditioned conjugated gradient                                        
 perform sub-space diagonalisation
    before iterative eigenvector-optimisation
 modified Broyden-mixing scheme, WC =      100.0
 initial mixing is a Kerker type mixing with AMIX =  0.4000 and BMIX =      1.0000
 Hartree-type preconditioning will be used
 using additional bands           14
 reciprocal scheme for non local part
 use partial core corrections
 no Harris-corrections to forces 
 use gradient corrections 
 use of overlap-Matrix (Vanderbilt PP)
 Gauss-broadening in eV      SIGMA  =   0.02


--------------------------------------------------------------------------------------------------------


  energy-cutoff  :      600.00
  volume of cell :      228.64
      direct lattice vectors                 reciprocal lattice vectors
     5.851144832  0.000000000 -3.816496497     0.170906725  0.052454593  0.000000000
    -1.716789129  5.593615193 -3.816496497     0.000000000  0.178775258  0.000000000
     0.000000000  0.000000000  6.985810000     0.093369977  0.126325783  0.143147323

  length of vectors
     6.985810000  6.985810000  6.985810000     0.178775258  0.178775258  0.212526027


 
 k-points in units of 2pi/SCALE and weight: EA                                      
   0.00000000  0.00000000  0.00000000       0.003
   0.02848445  0.00874243  0.00000000       0.007
   0.05696891  0.01748486  0.00000000       0.007
   0.08545336  0.02622730  0.00000000       0.007
   0.00000000  0.02979588  0.00000000       0.007
   0.02848445  0.03853831  0.00000000       0.007
   0.05696891  0.04728074  0.00000000       0.014
   0.08545336  0.05602317  0.00000000       0.014
  -0.05696891  0.01231101  0.00000000       0.007
  -0.02848445  0.02105344  0.00000000       0.007
   0.00000000  0.05959175  0.00000000       0.007
   0.02848445  0.06833418  0.00000000       0.014
   0.05696891  0.07707662  0.00000000       0.007
   0.08545336  0.08581905  0.00000000       0.014
  -0.05696891  0.04210689  0.00000000       0.007
  -0.02848445  0.05084932  0.00000000       0.007
   0.00000000  0.08938763  0.00000000       0.007
   0.02848445  0.09813006  0.00000000       0.014
   0.05696891  0.10687249  0.00000000       0.014
   0.08545336  0.11561493  0.00000000       0.007
   0.01167125  0.01579072  0.01789342       0.007
   0.04015570  0.02453315  0.01789342       0.007
   0.06864016  0.03327559  0.01789342       0.007
   0.09712461  0.04201802  0.01789342       0.014
  -0.04529766 -0.00169414  0.01789342       0.007
  -0.01681321  0.00704829  0.01789342       0.007
   0.01167125  0.04558660  0.01789342       0.007
   0.04015570  0.05432903  0.01789342       0.007
   0.06864016  0.06307146  0.01789342       0.014
   0.09712461  0.07181390  0.01789342       0.007
  -0.04529766  0.02810173  0.01789342       0.007
  -0.01681321  0.03684417  0.01789342       0.007
   0.01167125  0.07538248  0.01789342       0.007
   0.04015570  0.08412491  0.01789342       0.014
   0.06864016  0.09286734  0.01789342       0.007
   0.09712461  0.10160977  0.01789342       0.007
  -0.04529766  0.05789761  0.01789342       0.007
  -0.01681321  0.06664004  0.01789342       0.007
   0.01167125  0.10517835  0.01789342       0.014
   0.04015570  0.11392078  0.01789342       0.007
   0.06864016  0.12266322  0.01789342       0.007
   0.09712461  0.13140565  0.01789342       0.007
  -0.04529766  0.08769349  0.01789342       0.007
  -0.01681321  0.09643592  0.01789342       0.007
   0.01167125 -0.04380103  0.01789342       0.007
   0.04015570 -0.03505860  0.01789342       0.007
   0.06864016 -0.02631617  0.01789342       0.007
   0.09712461 -0.01757373  0.01789342       0.007
  -0.04529766 -0.06128589  0.01789342       0.007
  -0.01681321 -0.05254346  0.01789342       0.014
   0.01167125 -0.01400515  0.01789342       0.007
   0.04015570 -0.00526272  0.01789342       0.007
   0.06864016  0.00347971  0.01789342       0.007
   0.09712461  0.01222214  0.01789342       0.007
  -0.04529766 -0.03149002  0.01789342       0.014
  -0.01681321 -0.02274759  0.01789342       0.007
   0.02334249  0.03158145  0.03578683       0.007
   0.05182695  0.04032388  0.03578683       0.007
   0.08031140  0.04906631  0.03578683       0.007
   0.10879586  0.05780874  0.03578683       0.014
  -0.03362641  0.01409658  0.03578683       0.007
  -0.00514196  0.02283901  0.03578683       0.007
   0.02334249  0.06137732  0.03578683       0.007
   0.05182695  0.07011975  0.03578683       0.007
   0.08031140  0.07886219  0.03578683       0.014
   0.10879586  0.08760462  0.03578683       0.007
  -0.03362641  0.04389246  0.03578683       0.007
  -0.00514196  0.05263489  0.03578683       0.007
   0.02334249  0.09117320  0.03578683       0.007
   0.08031140  0.10865806  0.03578683       0.007
   0.10879586  0.11740049  0.03578683       0.007
  -0.03362641  0.07368833  0.03578683       0.007
  -0.00514196  0.08243077  0.03578683       0.007
   0.05182695  0.12971151  0.03578683       0.007
   0.08031140  0.13845394  0.03578683       0.007
   0.10879586  0.14719637  0.03578683       0.007
  -0.03362641  0.10348421  0.03578683       0.007
  -0.00514196  0.11222664  0.03578683       0.007
   0.02334249 -0.02801031  0.03578683       0.007
   0.05182695 -0.01926787  0.03578683       0.007
   0.08031140 -0.01052544  0.03578683       0.007
   0.10879586 -0.00178301  0.03578683       0.007
  -0.03362641 -0.04549517  0.03578683       0.007
  -0.00514196 -0.03675274  0.03578683       0.014
   0.02334249  0.00178557  0.03578683       0.007
   0.05182695  0.01052800  0.03578683       0.007
   0.08031140  0.01927043  0.03578683       0.007
   0.10879586  0.02801287  0.03578683       0.007
  -0.00514196 -0.00695686  0.03578683       0.007
   0.03501374  0.04737217  0.05368025       0.007
   0.06349820  0.05611460  0.05368025       0.007
   0.09198265  0.06485703  0.05368025       0.007
  -0.02195517  0.02988730  0.05368025       0.007
   0.00652929  0.03862974  0.05368025       0.007
   0.03501374  0.07716804  0.05368025       0.007
   0.06349820  0.08591048  0.05368025       0.007
   0.12046710  0.10339534  0.05368025       0.007
  -0.02195517  0.05968318  0.05368025       0.007
   0.00652929  0.06842561  0.05368025       0.007
   0.03501374  0.10696392  0.05368025       0.007
   0.09198265  0.12444879  0.05368025       0.007
   0.12046710  0.13319122  0.05368025       0.007
  -0.02195517  0.08947906  0.05368025       0.007
   0.00652929  0.09822149  0.05368025       0.007
   0.06349820  0.14550223  0.05368025       0.007
   0.09198265  0.15424466  0.05368025       0.007
   0.12046710  0.16298709  0.05368025       0.007
  -0.02195517  0.11927493  0.05368025       0.007
   0.00652929  0.12801737  0.05368025       0.007
   0.03501374 -0.01221958  0.05368025       0.007
   0.06349820 -0.00347715  0.05368025       0.007
   0.09198265  0.00526528  0.05368025       0.007
   0.12046710  0.01400771  0.05368025       0.007
  -0.02195517 -0.02970445  0.05368025       0.007
   0.03501374  0.01757629  0.05368025       0.007
   0.06349820  0.02631872  0.05368025       0.007
   0.09198265  0.03506116  0.05368025       0.007
   0.12046710  0.04380359  0.05368025       0.007
   0.00652929  0.00883386  0.05368025       0.007
   0.07516944  0.10170120  0.07157366       0.007
   0.13213835  0.11918606  0.07157366       0.007
  -0.01028392  0.07547390  0.07157366       0.007
   0.01820053  0.08421634  0.07157366       0.007
   0.10365390  0.14023951  0.07157366       0.007
   0.13213835  0.14898194  0.07157366       0.007
  -0.01028392  0.10526978  0.07157366       0.007
   0.01820053  0.11401221  0.07157366       0.007
   0.07516944  0.16129295  0.07157366       0.007
   0.10365390  0.17003538  0.07157366       0.007
   0.13213835  0.17877782  0.07157366       0.003
 
 k-points in reciprocal lattice and weights: EA                                      
   0.00000000  0.00000000  0.00000000       0.003
   0.16666667 -0.00000000  0.00000000       0.007
   0.33333333 -0.00000000  0.00000000       0.007
   0.50000000  0.00000000  0.00000000       0.007
   0.00000000  0.16666667  0.00000000       0.007
   0.16666667  0.16666667  0.00000000       0.007
   0.33333333  0.16666667  0.00000000       0.014
   0.50000000  0.16666667  0.00000000       0.014
  -0.33333333  0.16666667  0.00000000       0.007
  -0.16666667  0.16666667  0.00000000       0.007
   0.00000000  0.33333333  0.00000000       0.007
   0.16666667  0.33333333  0.00000000       0.014
   0.33333333  0.33333333  0.00000000       0.007
   0.50000000  0.33333333  0.00000000       0.014
  -0.33333333  0.33333333  0.00000000       0.007
  -0.16666667  0.33333333  0.00000000       0.007
   0.00000000  0.50000000  0.00000000       0.007
   0.16666667  0.50000000  0.00000000       0.014
   0.33333333  0.50000000  0.00000000       0.014
   0.50000000  0.50000000  0.00000000       0.007
   0.00000000  0.00000000  0.12500000       0.007
   0.16666667  0.00000000  0.12500000       0.007
   0.33333333 -0.00000000  0.12500000       0.007
   0.50000000 -0.00000000  0.12500000       0.014
  -0.33333333  0.00000000  0.12500000       0.007
  -0.16666667  0.00000000  0.12500000       0.007
   0.00000000  0.16666667  0.12500000       0.007
   0.16666667  0.16666667  0.12500000       0.007
   0.33333333  0.16666667  0.12500000       0.014
   0.50000000  0.16666667  0.12500000       0.007
  -0.33333333  0.16666667  0.12500000       0.007
  -0.16666667  0.16666667  0.12500000       0.007
   0.00000000  0.33333333  0.12500000       0.007
   0.16666667  0.33333333  0.12500000       0.014
   0.33333333  0.33333333  0.12500000       0.007
   0.50000000  0.33333333  0.12500000       0.007
  -0.33333333  0.33333333  0.12500000       0.007
  -0.16666667  0.33333333  0.12500000       0.007
   0.00000000  0.50000000  0.12500000       0.014
   0.16666667  0.50000000  0.12500000       0.007
   0.33333333  0.50000000  0.12500000       0.007
   0.50000000  0.50000000  0.12500000       0.007
  -0.33333333  0.50000000  0.12500000       0.007
  -0.16666667  0.50000000  0.12500000       0.007
   0.00000000 -0.33333333  0.12500000       0.007
   0.16666667 -0.33333333  0.12500000       0.007
   0.33333333 -0.33333333  0.12500000       0.007
   0.50000000 -0.33333333  0.12500000       0.007
  -0.33333333 -0.33333333  0.12500000       0.007
  -0.16666667 -0.33333333  0.12500000       0.014
   0.00000000 -0.16666667  0.12500000       0.007
   0.16666667 -0.16666667  0.12500000       0.007
   0.33333333 -0.16666667  0.12500000       0.007
   0.50000000 -0.16666667  0.12500000       0.007
  -0.33333333 -0.16666667  0.12500000       0.014
  -0.16666667 -0.16666667  0.12500000       0.007
   0.00000000  0.00000000  0.25000000       0.007
   0.16666667  0.00000000  0.25000000       0.007
   0.33333333 -0.00000000  0.25000000       0.007
   0.50000000  0.00000000  0.25000000       0.014
  -0.33333333  0.00000000  0.25000000       0.007
  -0.16666667  0.00000000  0.25000000       0.007
   0.00000000  0.16666667  0.25000000       0.007
   0.16666667  0.16666667  0.25000000       0.007
   0.33333333  0.16666667  0.25000000       0.014
   0.50000000  0.16666667  0.25000000       0.007
  -0.33333333  0.16666667  0.25000000       0.007
  -0.16666667  0.16666667  0.25000000       0.007
   0.00000000  0.33333333  0.25000000       0.007
   0.33333333  0.33333333  0.25000000       0.007
   0.50000000  0.33333333  0.25000000       0.007
  -0.33333333  0.33333333  0.25000000       0.007
  -0.16666667  0.33333333  0.25000000       0.007
   0.16666667  0.50000000  0.25000000       0.007
   0.33333333  0.50000000  0.25000000       0.007
   0.50000000  0.50000000  0.25000000       0.007
  -0.33333333  0.50000000  0.25000000       0.007
  -0.16666667  0.50000000  0.25000000       0.007
   0.00000000 -0.33333333  0.25000000       0.007
   0.16666667 -0.33333333  0.25000000       0.007
   0.33333333 -0.33333333  0.25000000       0.007
   0.50000000 -0.33333333  0.25000000       0.007
  -0.33333333 -0.33333333  0.25000000       0.007
  -0.16666667 -0.33333333  0.25000000       0.014
   0.00000000 -0.16666667  0.25000000       0.007
   0.16666667 -0.16666667  0.25000000       0.007
   0.33333333 -0.16666667  0.25000000       0.007
   0.50000000 -0.16666667  0.25000000       0.007
  -0.16666667 -0.16666667  0.25000000       0.007
   0.00000000  0.00000000  0.37500000       0.007
   0.16666667  0.00000000  0.37500000       0.007
   0.33333333  0.00000000  0.37500000       0.007
  -0.33333333  0.00000000  0.37500000       0.007
  -0.16666667  0.00000000  0.37500000       0.007
   0.00000000  0.16666667  0.37500000       0.007
   0.16666667  0.16666667  0.37500000       0.007
   0.50000000  0.16666667  0.37500000       0.007
  -0.33333333  0.16666667  0.37500000       0.007
  -0.16666667  0.16666667  0.37500000       0.007
   0.00000000  0.33333333  0.37500000       0.007
   0.33333333  0.33333333  0.37500000       0.007
   0.50000000  0.33333333  0.37500000       0.007
  -0.33333333  0.33333333  0.37500000       0.007
  -0.16666667  0.33333333  0.37500000       0.007
   0.16666667  0.50000000  0.37500000       0.007
   0.33333333  0.50000000  0.37500000       0.007
   0.50000000  0.50000000  0.37500000       0.007
  -0.33333333  0.50000000  0.37500000       0.007
  -0.16666667  0.50000000  0.37500000       0.007
   0.00000000 -0.33333333  0.37500000       0.007
   0.16666667 -0.33333333  0.37500000       0.007
   0.33333333 -0.33333333  0.37500000       0.007
   0.50000000 -0.33333333  0.37500000       0.007
  -0.33333333 -0.33333333  0.37500000       0.007
   0.00000000 -0.16666667  0.37500000       0.007
   0.16666667 -0.16666667  0.37500000       0.007
   0.33333333 -0.16666667  0.37500000       0.007
   0.50000000 -0.16666667  0.37500000       0.007
  -0.16666667 -0.16666667  0.37500000       0.007
   0.16666667  0.16666667  0.50000000       0.007
   0.50000000  0.16666667  0.50000000       0.007
  -0.33333333  0.16666667  0.50000000       0.007
  -0.16666667  0.16666667  0.50000000       0.007
   0.33333333  0.33333333  0.50000000       0.007
   0.50000000  0.33333333  0.50000000       0.007
  -0.33333333  0.33333333  0.50000000       0.007
  -0.16666667  0.33333333  0.50000000       0.007
   0.16666667  0.50000000  0.50000000       0.007
   0.33333333  0.50000000  0.50000000       0.007
   0.50000000  0.50000000  0.50000000       0.003
 
 position of ions in fractional coordinates (direct lattice) 
   0.36512000  0.54559000  0.18833000
   0.64274000  0.82321000  0.18833000
   0.35726000  0.17679000  0.81167000
   0.82321000  0.63488000  0.18048000
   0.95441000  0.13488000  0.81167000
   0.63488000  0.45441000  0.81167000
   0.45441000  0.64274000  0.81952000
   0.04559000  0.86512000  0.18833000
   0.54559000  0.35726000  0.18048000
   0.14274000  0.95441000  0.81952000
   0.67679000  0.85726000  0.81167000
   0.32321000  0.14274000  0.18833000
   0.86512000  0.67679000  0.81952000
   0.13488000  0.32321000  0.18048000
   0.17679000  0.36512000  0.81952000
   0.85726000  0.04559000  0.18048000
   0.75000000  0.25000000  0.50000000
   0.25403000  0.75403000  0.00806000
   0.24597000  0.25403000  0.50000000
   0.74597000  0.24597000  0.99194000
   0.25000000  0.75000000  0.50000000
   0.75403000  0.74597000  0.50000000
   0.99021000  0.49021000  0.48042000
   0.50979000  0.99021000  0.50000000
 
 position of ions in cartesian coordinates  (Angst):
   1.19970702  3.05182051 -2.16008393
   2.34748685  4.60471996 -4.27915544
   1.78686885  0.98889523  3.63197245
   3.72676585  3.55127441 -4.30399639
   5.35283062  0.75446682  1.51290093
   2.93464868  2.54179468  1.51290093
   1.55536968  3.59524023  1.53774188
  -1.21847492  4.83914838 -2.16008393
   2.57898602  1.99837496 -2.18492487
  -0.80332830  5.33860228  1.53774188
   2.48826166  4.79518256 -0.18452405
   1.64609404  0.79843263 -0.46265895
   3.90003670  3.78570283 -0.15968310
   0.23431900  1.80791237 -0.48749989
   0.40758985  2.04234078  3.65681339
   4.93768400  0.25501292 -2.18492487
   3.95916134  1.39840380 -0.32359150
   0.19185581  4.21775366 -3.79095183
   1.00309015  1.42094607  1.58465675
   3.94249989  1.37586153  3.14376884
   0.17519436  4.19521139 -0.32359150
   3.13126555  4.17266913 -2.23183975
   4.95227492  2.74204610 -2.29389490
   1.28287336  5.53885370 -2.23183975
 


--------------------------------------------------------------------------------------------------------


 k-point   1 :   0.0000 0.0000 0.0000  plane waves:    7601
 k-point   2 :   0.1667-0.0000 0.0000  plane waves:    7630
 k-point   3 :   0.3333-0.0000 0.0000  plane waves:    7629
 k-point   4 :   0.5000 0.0000 0.0000  plane waves:    7632
 k-point   5 :   0.0000 0.1667 0.0000  plane waves:    7630
 k-point   6 :   0.1667 0.1667 0.0000  plane waves:    7611
 k-point   7 :   0.3333 0.1667 0.0000  plane waves:    7630
 k-point   8 :   0.5000 0.1667 0.0000  plane waves:    7634
 k-point   9 :  -0.3333 0.1667 0.0000  plane waves:    7620
 k-point  10 :  -0.1667 0.1667 0.0000  plane waves:    7617
 k-point  11 :   0.0000 0.3333 0.0000  plane waves:    7629
 k-point  12 :   0.1667 0.3333 0.0000  plane waves:    7630
 k-point  13 :   0.3333 0.3333 0.0000  plane waves:    7629
 k-point  14 :   0.5000 0.3333 0.0000  plane waves:    7623
 k-point  15 :  -0.3333 0.3333 0.0000  plane waves:    7591
 k-point  16 :  -0.1667 0.3333 0.0000  plane waves:    7620
 k-point  17 :   0.0000 0.5000 0.0000  plane waves:    7632
 k-point  18 :   0.1667 0.5000 0.0000  plane waves:    7634
 k-point  19 :   0.3333 0.5000 0.0000  plane waves:    7623
 k-point  20 :   0.5000 0.5000 0.0000  plane waves:    7606
 k-point  21 :   0.0000 0.0000 0.1250  plane waves:    7629
 k-point  22 :   0.1667 0.0000 0.1250  plane waves:    7610
 k-point  23 :   0.3333-0.0000 0.1250  plane waves:    7629
 k-point  24 :   0.5000-0.0000 0.1250  plane waves:    7629
 k-point  25 :  -0.3333 0.0000 0.1250  plane waves:    7616
 k-point  26 :  -0.1667 0.0000 0.1250  plane waves:    7623
 k-point  27 :   0.0000 0.1667 0.1250  plane waves:    7610
 k-point  28 :   0.1667 0.1667 0.1250  plane waves:    7626
 k-point  29 :   0.3333 0.1667 0.1250  plane waves:    7633
 k-point  30 :   0.5000 0.1667 0.1250  plane waves:    7625
 k-point  31 :  -0.3333 0.1667 0.1250  plane waves:    7606
 k-point  32 :  -0.1667 0.1667 0.1250  plane waves:    7616
 k-point  33 :   0.0000 0.3333 0.1250  plane waves:    7629
 k-point  34 :   0.1667 0.3333 0.1250  plane waves:    7633
 k-point  35 :   0.3333 0.3333 0.1250  plane waves:    7628
 k-point  36 :   0.5000 0.3333 0.1250  plane waves:    7627
 k-point  37 :  -0.3333 0.3333 0.1250  plane waves:    7622
 k-point  38 :  -0.1667 0.3333 0.1250  plane waves:    7632
 k-point  39 :   0.0000 0.5000 0.1250  plane waves:    7629
 k-point  40 :   0.1667 0.5000 0.1250  plane waves:    7625
 k-point  41 :   0.3333 0.5000 0.1250  plane waves:    7627
 k-point  42 :   0.5000 0.5000 0.1250  plane waves:    7632
 k-point  43 :  -0.3333 0.5000 0.1250  plane waves:    7651
 k-point  44 :  -0.1667 0.5000 0.1250  plane waves:    7634
 k-point  45 :   0.0000-0.3333 0.1250  plane waves:    7616
 k-point  46 :   0.1667-0.3333 0.1250  plane waves:    7606
 k-point  47 :   0.3333-0.3333 0.1250  plane waves:    7622
 k-point  48 :   0.5000-0.3333 0.1250  plane waves:    7651
 k-point  49 :  -0.3333-0.3333 0.1250  plane waves:    7644
 k-point  50 :  -0.1667-0.3333 0.1250  plane waves:    7629
 k-point  51 :   0.0000-0.1667 0.1250  plane waves:    7623
 k-point  52 :   0.1667-0.1667 0.1250  plane waves:    7616
 k-point  53 :   0.3333-0.1667 0.1250  plane waves:    7632
 k-point  54 :   0.5000-0.1667 0.1250  plane waves:    7634
 k-point  55 :  -0.3333-0.1667 0.1250  plane waves:    7629
 k-point  56 :  -0.1667-0.1667 0.1250  plane waves:    7623
 k-point  57 :   0.0000 0.0000 0.2500  plane waves:    7601
 k-point  58 :   0.1667 0.0000 0.2500  plane waves:    7623
 k-point  59 :   0.3333-0.0000 0.2500  plane waves:    7623
 k-point  60 :   0.5000 0.0000 0.2500  plane waves:    7627
 k-point  61 :  -0.3333 0.0000 0.2500  plane waves:    7619
 k-point  62 :  -0.1667 0.0000 0.2500  plane waves:    7625
 k-point  63 :   0.0000 0.1667 0.2500  plane waves:    7623
 k-point  64 :   0.1667 0.1667 0.2500  plane waves:    7634
 k-point  65 :   0.3333 0.1667 0.2500  plane waves:    7634
 k-point  66 :   0.5000 0.1667 0.2500  plane waves:    7630
 k-point  67 :  -0.3333 0.1667 0.2500  plane waves:    7630
 k-point  68 :  -0.1667 0.1667 0.2500  plane waves:    7638
 k-point  69 :   0.0000 0.3333 0.2500  plane waves:    7623
 k-point  70 :   0.3333 0.3333 0.2500  plane waves:    7627
 k-point  71 :   0.5000 0.3333 0.2500  plane waves:    7634
 k-point  72 :  -0.3333 0.3333 0.2500  plane waves:    7641
 k-point  73 :  -0.1667 0.3333 0.2500  plane waves:    7639
 k-point  74 :   0.1667 0.5000 0.2500  plane waves:    7630
 k-point  75 :   0.3333 0.5000 0.2500  plane waves:    7634
 k-point  76 :   0.5000 0.5000 0.2500  plane waves:    7638
 k-point  77 :  -0.3333 0.5000 0.2500  plane waves:    7646
 k-point  78 :  -0.1667 0.5000 0.2500  plane waves:    7634
 k-point  79 :   0.0000-0.3333 0.2500  plane waves:    7619
 k-point  80 :   0.1667-0.3333 0.2500  plane waves:    7630
 k-point  81 :   0.3333-0.3333 0.2500  plane waves:    7641
 k-point  82 :   0.5000-0.3333 0.2500  plane waves:    7646
 k-point  83 :  -0.3333-0.3333 0.2500  plane waves:    7637
 k-point  84 :  -0.1667-0.3333 0.2500  plane waves:    7638
 k-point  85 :   0.0000-0.1667 0.2500  plane waves:    7625
 k-point  86 :   0.1667-0.1667 0.2500  plane waves:    7638
 k-point  87 :   0.3333-0.1667 0.2500  plane waves:    7639
 k-point  88 :   0.5000-0.1667 0.2500  plane waves:    7634
 k-point  89 :  -0.1667-0.1667 0.2500  plane waves:    7630
 k-point  90 :   0.0000 0.0000 0.3750  plane waves:    7607
 k-point  91 :   0.1667 0.0000 0.3750  plane waves:    7629
 k-point  92 :   0.3333 0.0000 0.3750  plane waves:    7629
 k-point  93 :  -0.3333 0.0000 0.3750  plane waves:    7628
 k-point  94 :  -0.1667 0.0000 0.3750  plane waves:    7618
 k-point  95 :   0.0000 0.1667 0.3750  plane waves:    7629
 k-point  96 :   0.1667 0.1667 0.3750  plane waves:    7641
 k-point  97 :   0.5000 0.1667 0.3750  plane waves:    7628
 k-point  98 :  -0.3333 0.1667 0.3750  plane waves:    7642
 k-point  99 :  -0.1667 0.1667 0.3750  plane waves:    7636
 k-point 100 :   0.0000 0.3333 0.3750  plane waves:    7629
 k-point 101 :   0.3333 0.3333 0.3750  plane waves:    7636
 k-point 102 :   0.5000 0.3333 0.3750  plane waves:    7641
 k-point 103 :  -0.3333 0.3333 0.3750  plane waves:    7642
 k-point 104 :  -0.1667 0.3333 0.3750  plane waves:    7646
 k-point 105 :   0.1667 0.5000 0.3750  plane waves:    7628
 k-point 106 :   0.3333 0.5000 0.3750  plane waves:    7641
 k-point 107 :   0.5000 0.5000 0.3750  plane waves:    7648
 k-point 108 :  -0.3333 0.5000 0.3750  plane waves:    7646
 k-point 109 :  -0.1667 0.5000 0.3750  plane waves:    7646
 k-point 110 :   0.0000-0.3333 0.3750  plane waves:    7628
 k-point 111 :   0.1667-0.3333 0.3750  plane waves:    7642
 k-point 112 :   0.3333-0.3333 0.3750  plane waves:    7642
 k-point 113 :   0.5000-0.3333 0.3750  plane waves:    7646
 k-point 114 :  -0.3333-0.3333 0.3750  plane waves:    7651
 k-point 115 :   0.0000-0.1667 0.3750  plane waves:    7618
 k-point 116 :   0.1667-0.1667 0.3750  plane waves:    7636
 k-point 117 :   0.3333-0.1667 0.3750  plane waves:    7646
 k-point 118 :   0.5000-0.1667 0.3750  plane waves:    7646
 k-point 119 :  -0.1667-0.1667 0.3750  plane waves:    7599
 k-point 120 :   0.1667 0.1667 0.5000  plane waves:    7634
 k-point 121 :   0.5000 0.1667 0.5000  plane waves:    7626
 k-point 122 :  -0.3333 0.1667 0.5000  plane waves:    7653
 k-point 123 :  -0.1667 0.1667 0.5000  plane waves:    7658
 k-point 124 :   0.3333 0.3333 0.5000  plane waves:    7641
 k-point 125 :   0.5000 0.3333 0.5000  plane waves:    7643
 k-point 126 :  -0.3333 0.3333 0.5000  plane waves:    7664
 k-point 127 :  -0.1667 0.3333 0.5000  plane waves:    7653
 k-point 128 :   0.1667 0.5000 0.5000  plane waves:    7626
 k-point 129 :   0.3333 0.5000 0.5000  plane waves:    7643
 k-point 130 :   0.5000 0.5000 0.5000  plane waves:    7656

 maximum and minimum number of plane-waves per node :      3850     3783

 maximum number of plane-waves:      7664
 maximum index in each direction: 
   IXMAX=   14   IYMAX=   14   IZMAX=   13
   IXMIN=  -14   IYMIN=  -14   IZMIN=  -14


 parallel 3D FFT for wavefunctions:
    minimum data exchange during FFTs selected (reduces bandwidth)
 parallel 3D FFT for charge:
    minimum data exchange during FFTs selected (reduces bandwidth)


 total amount of memory used by VASP MPI-rank0   630265. kBytes
=======================================================================

   base      :      30000. kBytes
   nonl-proj :     217468. kBytes
   fftplans  :      20115. kBytes
   grid      :      15504. kBytes
   one-center:        186. kBytes
   wavefun   :     346992. kBytes
 
     INWAV:  cpu time    0.0001: real time    0.0001
 Broyden mixing: mesh for mixing (old mesh)
   NGX = 27   NGY = 27   NGZ = 27
  (NGX  =112   NGY  =112   NGZ  =112)
  gives a total of  19683 points

 initial charge density was supplied:
 charge density of overlapping atoms calculated
 number of electron     140.0000000 magnetization 
 keeping initial charge density in first step


--------------------------------------------------------------------------------------------------------


 Maximum index for augmentation-charges        21917 (set IRDMAX)


--------------------------------------------------------------------------------------------------------


 First call to EWALD:  gamma=   0.290
 Maximum number of real-space cells 3x 3x 3
 Maximum number of reciprocal cells 3x 3x 3

    FEWALD:  cpu time    0.0636: real time    0.0640


--------------------------------------- Iteration      1(   1)  ---------------------------------------


    POTLOK:  cpu time    0.3352: real time    0.3378
    SETDIJ:  cpu time    0.7472: real time    0.7532
    TRIAL :  cpu time   57.4393: real time   57.9870
    CORREC:  cpu time    0.0031: real time    0.0031
    --------------------------------------------
      LOOP:  cpu time   58.6927: real time   59.2682

 eigenvalue-minimisations  : 22728
 total energy-change (2. order) : 0.1219736E+04  (-0.9114669E+04)
 number of electron     140.0000000 magnetization 
 augmentation part      140.0000000 magnetization 

 Free energy of the ion-electron system (eV)
  ---------------------------------------------------
  alpha Z        PSCENC =       718.57985284
  Ewald energy   TEWEN  =    -10389.49210813
  -Hartree energ DENC   =     -2708.21164348
  -exchange      EXHF   =         0.00000000
  -V(xc)+E(xc)   XCENC  =       593.85106400
  PAW double counting   =      9751.44097361    -9716.70682594
  entropy T*S    EENTRO =        -0.00107015
  eigenvalues    EBANDS =       451.73414334
  atomic energy  EATOM  =     12518.54185575
  ---------------------------------------------------
  free energy    TOTEN  =      1219.73624184 eV

  energy without entropy =     1219.73731199  energy(sigma->0) =     1219.73677691


--------------------------------------------------------------------------------------------------------




--------------------------------------- Iteration      1(   2)  ---------------------------------------


    TRIAL :  cpu time   68.7878: real time   69.9929
    CORREC:  cpu time    0.0029: real time    0.0029
    --------------------------------------------
      LOOP:  cpu time   68.7936: real time   69.9996

 eigenvalue-minimisations  : 24624
 total energy-change (2. order) :-0.1477426E+04  (-0.1441009E+04)
 number of electron     140.0000000 magnetization 
 augmentation part      140.0000000 magnetization 

 Free energy of the ion-electron system (eV)
  ---------------------------------------------------
  alpha Z        PSCENC =       718.57985284
  Ewald energy   TEWEN  =    -10389.49210813
  -Hartree energ DENC   =     -2708.21164348
  -exchange      EXHF   =         0.00000000
  -V(xc)+E(xc)   XCENC  =       593.85106400
  PAW double counting   =      9751.44097361    -9716.70682594
  entropy T*S    EENTRO =        -0.00152830
  eigenvalues    EBANDS =     -1025.69094076
  atomic energy  EATOM  =     12518.54185575
  ---------------------------------------------------
  free energy    TOTEN  =      -257.68930041 eV

  energy without entropy =     -257.68777212  energy(sigma->0) =     -257.68853626


--------------------------------------------------------------------------------------------------------




--------------------------------------- Iteration      1(   3)  ---------------------------------------


    TRIAL :  cpu time   75.4702: real time   76.6696
    CORREC:  cpu time    0.0029: real time    0.0029
    --------------------------------------------
      LOOP:  cpu time   75.4743: real time   76.6755

 eigenvalue-minimisations  : 27936
 total energy-change (2. order) :-0.7625284E+02  (-0.7296346E+02)
 number of electron     140.0000000 magnetization 
 augmentation part      140.0000000 magnetization 

 Free energy of the ion-electron system (eV)
  ---------------------------------------------------
  alpha Z        PSCENC =       718.57985284
  Ewald energy   TEWEN  =    -10389.49210813
  -Hartree energ DENC   =     -2708.21164348
  -exchange      EXHF   =         0.00000000
  -V(xc)+E(xc)   XCENC  =       593.85106400
  PAW double counting   =      9751.44097361    -9716.70682594
  entropy T*S    EENTRO =        -0.00218645
  eigenvalues    EBANDS =     -1101.94312673
  atomic energy  EATOM  =     12518.54185575
  ---------------------------------------------------
  free energy    TOTEN  =      -333.94214453 eV

  energy without entropy =     -333.93995809  energy(sigma->0) =     -333.94105131


--------------------------------------------------------------------------------------------------------




--------------------------------------- Iteration      1(   4)  ---------------------------------------


    TRIAL :  cpu time   73.1902: real time   74.3624
    CORREC:  cpu time    0.0027: real time    0.0027
    --------------------------------------------
      LOOP:  cpu time   73.1943: real time   74.3681

 eigenvalue-minimisations  : 26724
 total energy-change (2. order) :-0.2094458E+01  (-0.2029072E+01)
 number of electron     140.0000000 magnetization 
 augmentation part      140.0000000 magnetization 

 Free energy of the ion-electron system (eV)
  ---------------------------------------------------
  alpha Z        PSCENC =       718.57985284
  Ewald energy   TEWEN  =    -10389.49210813
  -Hartree energ DENC   =     -2708.21164348
  -exchange      EXHF   =         0.00000000
  -V(xc)+E(xc)   XCENC  =       593.85106400
  PAW double counting   =      9751.44097361    -9716.70682594
  entropy T*S    EENTRO =        -0.00219463
  eigenvalues    EBANDS =     -1104.03757648
  atomic energy  EATOM  =     12518.54185575
  ---------------------------------------------------
  free energy    TOTEN  =      -336.03660246 eV

  energy without entropy =     -336.03440783  energy(sigma->0) =     -336.03550515


--------------------------------------------------------------------------------------------------------




--------------------------------------- Iteration      1(   5)  ---------------------------------------


    TRIAL :  cpu time   71.5974: real time   72.9052
    CORREC:  cpu time    0.0029: real time    0.0029
    CHARGE:  cpu time    3.7142: real time    3.7490
    --------------------------------------------
      LOOP:  cpu time   75.3157: real time   76.6600

 eigenvalue-minimisations  : 25860
 total energy-change (2. order) :-0.4566646E-01  (-0.4543473E-01)
 number of electron     140.0000004 magnetization 
 augmentation part       11.1853744 magnetization 

 Free energy of the ion-electron system (eV)
  ---------------------------------------------------
  alpha Z        PSCENC =       718.57985284
  Ewald energy   TEWEN  =    -10389.49210813
  -Hartree energ DENC   =     -2708.21164348
  -exchange      EXHF   =         0.00000000
  -V(xc)+E(xc)   XCENC  =       593.85106400
  PAW double counting   =      9751.44097361    -9716.70682594
  entropy T*S    EENTRO =        -0.00225196
  eigenvalues    EBANDS =     -1104.08318561
  atomic energy  EATOM  =     12518.54185575
  ---------------------------------------------------
  free energy    TOTEN  =      -336.08226893 eV

  energy without entropy =     -336.08001697  energy(sigma->0) =     -336.08114295


--------------------------------------------------------------------------------------------------------




[...]
  free energy    TOTEN  =      -276.76104727 eV

  energy without entropy =     -276.75878088  energy(sigma->0) =     -276.75991407


--------------------------------------------------------------------------------------------------------




--------------------------------------- Iteration      1(  17)  ---------------------------------------


    POTLOK:  cpu time    0.1745: real time    0.1757
    SETDIJ:  cpu time    2.4205: real time    2.4358
    TRIAL :  cpu time   54.0779: real time   54.7731
    CORREC:  cpu time   21.6353: real time   22.0886
    CHARGE:  cpu time    3.8285: real time    3.8588
    --------------------------------------------
      LOOP:  cpu time   82.1530: real time   83.3488

 eigenvalue-minimisations  :     0
 total energy-change (2. order) :-0.1588128E-02  (-0.9231965E-03)
 number of electron     140.0000005 magnetization 
 augmentation part       14.0417187 magnetization 

 Free energy of the ion-electron system (eV)
  ---------------------------------------------------
  alpha Z        PSCENC =       718.57985284
  Ewald energy   TEWEN  =    -10389.49210813
  -Hartree energ DENC   =     -2548.29418202
  -exchange      EXHF   =         0.00000000
  -V(xc)+E(xc)   XCENC  =       607.74321207
  PAW double counting   =     17253.48096578   -17241.44950870
  entropy T*S    EENTRO =        -0.00226563
  eigenvalues    EBANDS =     -1195.87045660
  atomic energy  EATOM  =     12518.54185575
  ---------------------------------------------------
  free energy    TOTEN  =      -276.76263539 eV

  energy without entropy =     -276.76036976  energy(sigma->0) =     -276.76150258


--------------------------------------------------------------------------------------------------------




--------------------------------------- Iteration      1(  18)  ---------------------------------------


    POTLOK:  cpu time    0.1767: real time    0.1779
    SETDIJ:  cpu time    0.7347: real time    0.7404
    TRIAL :  cpu time   51.8805: real time   52.5355
    CORREC:  cpu time   18.5867: real time   19.2882
    CHARGE:  cpu time    7.7893: real time    7.8402
    --------------------------------------------
      LOOP:  cpu time   79.3190: real time   80.7353

 eigenvalue-minimisations  :     0
 total energy-change (2. order) :-0.9176818E-03  (-0.4440048E-03)
 number of electron     140.0000005 magnetization 
 augmentation part       14.0422739 magnetization 

 Free energy of the ion-electron system (eV)
  ---------------------------------------------------
  alpha Z        PSCENC =       718.57985284
  Ewald energy   TEWEN  =    -10389.49210813
  -Hartree energ DENC   =     -2548.58764250
  -exchange      EXHF   =         0.00000000
  -V(xc)+E(xc)   XCENC  =       607.75657169
  PAW double counting   =     17250.86742272   -17238.82878214
  entropy T*S    EENTRO =        -0.00226019
  eigenvalues    EBANDS =     -1195.59845768
  atomic energy  EATOM  =     12518.54185575
  ---------------------------------------------------
  free energy    TOTEN  =      -276.76355308 eV

  energy without entropy =     -276.76129289  energy(sigma->0) =     -276.76242298


--------------------------------------------------------------------------------------------------------




--------------------------------------- Iteration      1(  19)  ---------------------------------------


    POTLOK:  cpu time    0.1818: real time    0.1829
    SETDIJ:  cpu time    0.7006: real time    0.7051
    TRIAL :  cpu time   52.0644: real time   52.8595
    CORREC:  cpu time   18.7846: real time   19.3258
    CHARGE:  cpu time    5.6562: real time    5.6943
    --------------------------------------------
      LOOP:  cpu time   77.3890: real time   78.7698

 eigenvalue-minimisations  :     0
 total energy-change (2. order) :-0.4429962E-03  (-0.1927782E-03)
 number of electron     140.0000005 magnetization 
 augmentation part       14.0408154 magnetization 

 Free energy of the ion-electron system (eV)
  ---------------------------------------------------
  alpha Z        PSCENC =       718.57985284
  Ewald energy   TEWEN  =    -10389.49210813
  -Hartree energ DENC   =     -2548.65818087
  -exchange      EXHF   =         0.00000000
  -V(xc)+E(xc)   XCENC  =       607.76572210
  PAW double counting   =     17253.20150460   -17241.17385549
  entropy T*S    EENTRO =        -0.00225314
  eigenvalues    EBANDS =     -1195.52652668
  atomic energy  EATOM  =     12518.54185575
  ---------------------------------------------------
  free energy    TOTEN  =      -276.76399607 eV

  energy without entropy =     -276.76174293  energy(sigma->0) =     -276.76286950


--------------------------------------------------------------------------------------------------------




--------------------------------------- Iteration      1(  20)  ---------------------------------------


    POTLOK:  cpu time    0.1711: real time    0.1722
    SETDIJ:  cpu time    0.7313: real time    0.7369
    TRIAL :  cpu time   54.3189: real time   55.0957
    CORREC:  cpu time   16.8195: real time   16.9589
    CHARGE:  cpu time    9.9786: real time   10.0449
    --------------------------------------------
      LOOP:  cpu time   82.0205: real time   83.0108

 eigenvalue-minimisations  :     0
 total energy-change (2. order) :-0.1927795E-03  (-0.1111803E-03)
 number of electron     140.0000005 magnetization 
 augmentation part       14.0399100 magnetization 

 Free energy of the ion-electron system (eV)
  ---------------------------------------------------
  alpha Z        PSCENC =       718.57985284
  Ewald energy   TEWEN  =    -10389.49210813
  -Hartree energ DENC   =     -2548.61703425
  -exchange      EXHF   =         0.00000000
  -V(xc)+E(xc)   XCENC  =       607.76338793
  PAW double counting   =     17255.68855727   -17243.67641048
  entropy T*S    EENTRO =        -0.00224721
  eigenvalues    EBANDS =     -1195.55003663
  atomic energy  EATOM  =     12518.54185575
  ---------------------------------------------------
  free energy    TOTEN  =      -276.76418885 eV

  energy without entropy =     -276.76194164  energy(sigma->0) =     -276.76306524


--------------------------------------------------------------------------------------------------------




--------------------------------------- Iteration      1(  21)  ---------------------------------------


    POTLOK:  cpu time    0.1776: real time    0.1787
    SETDIJ:  cpu time    0.7319: real time    0.7380
    TRIAL :  cpu time   56.2743: real time   56.7757
    CORREC:  cpu time   17.9713: real time   18.1227
    CHARGE:  cpu time    4.5840: real time    4.6174
    --------------------------------------------
      LOOP:  cpu time   79.7405: real time   80.4349

 eigenvalue-minimisations  :     0
 total energy-change (2. order) :-0.1111811E-03  (-0.6365423E-04)
 number of electron     140.0000005 magnetization 
 augmentation part       14.0399088 magnetization 

 Free energy of the ion-electron system (eV)
  ---------------------------------------------------
  alpha Z        PSCENC =       718.57985284
  Ewald energy   TEWEN  =    -10389.49210813
  -Hartree energ DENC   =     -2548.60230219
  -exchange      EXHF   =         0.00000000
  -V(xc)+E(xc)   XCENC  =       607.76122394
  PAW double counting   =     17257.21475623   -17245.20384201
  entropy T*S    EENTRO =        -0.00224034
  eigenvalues    EBANDS =     -1195.56148925
  atomic energy  EATOM  =     12518.54185575
  ---------------------------------------------------
  free energy    TOTEN  =      -276.76430003 eV

  energy without entropy =     -276.76205969  energy(sigma->0) =     -276.76317986


--------------------------------------------------------------------------------------------------------




--------------------------------------- Iteration      1(  22)  ---------------------------------------


    POTLOK:  cpu time    0.1783: real time    0.1794
    SETDIJ:  cpu time    0.7271: real time    0.7329
    TRIAL :  cpu time   53.9256: real time   54.6809
    CORREC:  cpu time   18.6490: real time   18.9144
    CHARGE:  cpu time    5.3052: real time    5.3414
    --------------------------------------------
      LOOP:  cpu time   78.7872: real time   79.8513

 eigenvalue-minimisations  :     0
 total energy-change (2. order) :-0.6291776E-04  (-0.2764675E-04)
 number of electron     140.0000005 magnetization 
 augmentation part       14.0406189 magnetization 

 Free energy of the ion-electron system (eV)
  ---------------------------------------------------
  alpha Z        PSCENC =       718.57985284
  Ewald energy   TEWEN  =    -10389.49210813
  -Hartree energ DENC   =     -2548.56979825
  -exchange      EXHF   =         0.00000000
  -V(xc)+E(xc)   XCENC  =       607.75961894
  PAW double counting   =     17256.48626840   -17244.46846594
  entropy T*S    EENTRO =        -0.00223766
  eigenvalues    EBANDS =     -1195.59934622
  atomic energy  EATOM  =     12518.54185575
  ---------------------------------------------------
  free energy    TOTEN  =      -276.76436295 eV

  energy without entropy =     -276.76212529  energy(sigma->0) =     -276.76324412


--------------------------------------------------------------------------------------------------------




--------------------------------------- Iteration      1(  23)  ---------------------------------------


    POTLOK:  cpu time    0.1759: real time    0.1771
    SETDIJ:  cpu time    0.7406: real time    0.7460
    TRIAL :  cpu time   53.4022: real time   53.8852
    CORREC:  cpu time   18.7949: real time   18.9597
    CHARGE:  cpu time    6.3235: real time    6.3674
    --------------------------------------------
      LOOP:  cpu time   79.4384: real time   80.1379

 eigenvalue-minimisations  :     0
 total energy-change (2. order) :-0.2725743E-04  (-0.1506223E-04)
 number of electron     140.0000005 magnetization 
 augmentation part       14.0406503 magnetization 

 Free energy of the ion-electron system (eV)
  ---------------------------------------------------
  alpha Z        PSCENC =       718.57985284
  Ewald energy   TEWEN  =    -10389.49210813
  -Hartree energ DENC   =     -2548.61988474
  -exchange      EXHF   =         0.00000000
  -V(xc)+E(xc)   XCENC  =       607.76326239
  PAW double counting   =     17255.56982867   -17243.54200379
  entropy T*S    EENTRO =        -0.00223503
  eigenvalues    EBANDS =     -1195.56295554
  atomic energy  EATOM  =     12518.54185575
  ---------------------------------------------------
  free energy    TOTEN  =      -276.76439021 eV

  energy without entropy =     -276.76215517  energy(sigma->0) =     -276.76327269


--------------------------------------------------------------------------------------------------------




--------------------------------------- Iteration      1(  24)  ---------------------------------------


    POTLOK:  cpu time    0.1777: real time    0.1787
    SETDIJ:  cpu time    1.7647: real time    1.7755
    TRIAL :  cpu time   54.4207: real time   55.3390
    CORREC:  cpu time   19.3613: real time   19.5262
    CHARGE:  cpu time    5.5895: real time    5.6293
    --------------------------------------------
      LOOP:  cpu time   81.3151: real time   82.4512

 eigenvalue-minimisations  :     0
 total energy-change (2. order) :-0.1508010E-04  (-0.8905861E-05)
 number of electron     140.0000005 magnetization 
 augmentation part       14.0403066 magnetization 

 Free energy of the ion-electron system (eV)
  ---------------------------------------------------
  alpha Z        PSCENC =       718.57985284
  Ewald energy   TEWEN  =    -10389.49210813
  -Hartree energ DENC   =     -2548.63844337
  -exchange      EXHF   =         0.00000000
  -V(xc)+E(xc)   XCENC  =       607.76371045
  PAW double counting   =     17255.03954926   -17243.01215995
  entropy T*S    EENTRO =        -0.00223473
  eigenvalues    EBANDS =     -1195.54442710
  atomic energy  EATOM  =     12518.54185575
  ---------------------------------------------------
  free energy    TOTEN  =      -276.76440529 eV

  energy without entropy =     -276.76217056  energy(sigma->0) =     -276.76328792


--------------------------------------------------------------------------------------------------------




--------------------------------------- Iteration      1(  25)  ---------------------------------------


    POTLOK:  cpu time    0.1698: real time    0.1708
    SETDIJ:  cpu time    1.7426: real time    1.7541
    TRIAL :  cpu time   54.7370: real time   55.2347
    CORREC:  cpu time   16.8246: real time   16.9736
    CHARGE:  cpu time    7.5661: real time    7.6211
    --------------------------------------------
      LOOP:  cpu time   81.0423: real time   81.7565

 eigenvalue-minimisations  :     0
 total energy-change (2. order) :-0.9008992E-05  (-0.3962024E-05)
 number of electron     140.0000005 magnetization 
 augmentation part       14.0401501 magnetization 

 Free energy of the ion-electron system (eV)
  ---------------------------------------------------
  alpha Z        PSCENC =       718.57985284
  Ewald energy   TEWEN  =    -10389.49210813
  -Hartree energ DENC   =     -2548.61174831
  -exchange      EXHF   =         0.00000000
  -V(xc)+E(xc)   XCENC  =       607.76227661
  PAW double counting   =     17255.12789908   -17243.10485685
  entropy T*S    EENTRO =        -0.00223520
  eigenvalues    EBANDS =     -1195.56535056
  atomic energy  EATOM  =     12518.54185575
  ---------------------------------------------------
  free energy    TOTEN  =      -276.76441430 eV

  energy without entropy =     -276.76217910  energy(sigma->0) =     -276.76329670


--------------------------------------------------------------------------------------------------------




--------------------------------------- Iteration      1(  26)  ---------------------------------------


    POTLOK:  cpu time    0.1729: real time    0.1740
    SETDIJ:  cpu time    0.7048: real time    0.7099
    TRIAL :  cpu time   51.9647: real time   52.4527
    CORREC:  cpu time   19.8695: real time   20.0366
    CHARGE:  cpu time    3.6522: real time    3.6811
    --------------------------------------------
      LOOP:  cpu time   76.5005: real time   77.1917

 eigenvalue-minimisations  :     0
 total energy-change (2. order) :-0.4107585E-05  (-0.2279599E-05)
 number of electron     140.0000005 magnetization 
 augmentation part       14.0403341 magnetization 

 Free energy of the ion-electron system (eV)
  ---------------------------------------------------
  alpha Z        PSCENC =       718.57985284
  Ewald energy   TEWEN  =    -10389.49210813
  -Hartree energ DENC   =     -2548.59125251
  -exchange      EXHF   =         0.00000000
  -V(xc)+E(xc)   XCENC  =       607.76134352
  PAW double counting   =     17255.30369963   -17243.28285884
  entropy T*S    EENTRO =        -0.00223604
  eigenvalues    EBANDS =     -1195.58271546
  atomic energy  EATOM  =     12518.54185575
  ---------------------------------------------------
  free energy    TOTEN  =      -276.76441840 eV

  energy without entropy =     -276.76218237  energy(sigma->0) =     -276.76330039


--------------------------------------------------------------------------------------------------------




--------------------------------------- Iteration      1(  27)  ---------------------------------------


    POTLOK:  cpu time    1.3916: real time    1.4006
    SETDIJ:  cpu time    0.6509: real time    0.6557
    TRIAL :  cpu time   54.0264: real time   54.5151
    CORREC:  cpu time   20.8621: real time   21.4740
    CHARGE:  cpu time    5.9148: real time    5.9539
    --------------------------------------------
      LOOP:  cpu time   82.8470: real time   84.0014

 eigenvalue-minimisations  :     0
 total energy-change (2. order) :-0.2282062E-05  (-0.8554868E-06)
 number of electron     140.0000005 magnetization 
 augmentation part       14.0404166 magnetization 

 Free energy of the ion-electron system (eV)
  ---------------------------------------------------
  alpha Z        PSCENC =       718.57985284
  Ewald energy   TEWEN  =    -10389.49210813
  -Hartree energ DENC   =     -2548.60797185
  -exchange      EXHF   =         0.00000000
  -V(xc)+E(xc)   XCENC  =       607.76220016
  PAW double counting   =     17255.37703963   -17243.35459955
  entropy T*S    EENTRO =        -0.00223676
  eigenvalues    EBANDS =     -1195.56845351
  atomic energy  EATOM  =     12518.54185575
  ---------------------------------------------------
  free energy    TOTEN  =      -276.76442069 eV

  energy without entropy =     -276.76218393  energy(sigma->0) =     -276.76330231


--------------------------------------------------------------------------------------------------------




--------------------------------------- Iteration      1(  28)  ---------------------------------------


    POTLOK:  cpu time    0.1793: real time    0.1805
    SETDIJ:  cpu time    2.5621: real time    2.5776
    TRIAL :  cpu time   57.3929: real time   58.2623
    CORREC:  cpu time   18.4254: real time   18.7808
    CHARGE:  cpu time    4.6910: real time    4.7261
    --------------------------------------------
      LOOP:  cpu time   83.2518: real time   84.5295

 eigenvalue-minimisations  :     0
 total energy-change (2. order) :-0.8540937E-06  (-0.6083617E-06)
 number of electron     140.0000005 magnetization 
 augmentation part       14.0403821 magnetization 

 Free energy of the ion-electron system (eV)
  ---------------------------------------------------
  alpha Z        PSCENC =       718.57985284
  Ewald energy   TEWEN  =    -10389.49210813
  -Hartree energ DENC   =     -2548.61239754
  -exchange      EXHF   =         0.00000000
  -V(xc)+E(xc)   XCENC  =       607.76247981
  PAW double counting   =     17255.41186688   -17243.38857166
  entropy T*S    EENTRO =        -0.00223734
  eigenvalues    EBANDS =     -1195.56516274
  atomic energy  EATOM  =     12518.54185575
  ---------------------------------------------------
  free energy    TOTEN  =      -276.76442154 eV

  energy without entropy =     -276.76218420  energy(sigma->0) =     -276.76330287


--------------------------------------------------------------------------------------------------------




--------------------------------------- Iteration      1(  29)  ---------------------------------------


    POTLOK:  cpu time    2.2578: real time    2.2716
    SETDIJ:  cpu time    0.6410: real time    0.6457
    TRIAL :  cpu time   53.4241: real time   54.0845
    CORREC:  cpu time   18.5046: real time   18.6499
    CHARGE:  cpu time    5.6624: real time    5.7032
    --------------------------------------------
      LOOP:  cpu time   80.4912: real time   81.3572

 eigenvalue-minimisations  :     0
 total energy-change (2. order) :-0.6071114E-06  (-0.3131291E-06)
 number of electron     140.0000005 magnetization 
 augmentation part       14.0403408 magnetization 

 Free energy of the ion-electron system (eV)
  ---------------------------------------------------
  alpha Z        PSCENC =       718.57985284
  Ewald energy   TEWEN  =    -10389.49210813
  -Hartree energ DENC   =     -2548.60542024
  -exchange      EXHF   =         0.00000000
  -V(xc)+E(xc)   XCENC  =       607.76207934
  PAW double counting   =     17255.44082675   -17243.41800442
  entropy T*S    EENTRO =        -0.00223768
  eigenvalues    EBANDS =     -1195.57126670
  atomic energy  EATOM  =     12518.54185575
  ---------------------------------------------------
  free energy    TOTEN  =      -276.76442215 eV

  energy without entropy =     -276.76218447  energy(sigma->0) =     -276.76330331


--------------------------------------------------------------------------------------------------------




--------------------------------------- Iteration      1(  30)  ---------------------------------------


    POTLOK:  cpu time    0.1760: real time    0.1772
    SETDIJ:  cpu time    0.7349: real time    0.7406
    TRIAL :  cpu time   53.2090: real time   53.7233
