<?xml version="1.0" encoding="ISO-8859-1"?>
<modeling>
 <generator>
  <i name="program" type="string">vasp </i>
  <i name="version" type="string">6.2.0  </i>
  <i name="subversion" type="string">18Jan21 (build Jan 05 2022 15:41:44) complex                          parallel </i>
  <i name="platform" type="string">LinuxIFC </i>
  <i name="date" type="string">2025 05 07 </i>
  <i name="time" type="string">15:44:51 </i>
 </generator>
 <incar>
  <i type="string" name="SYSTEM">routine with relax: pwdword</i>
  <i type="string" name="PREC">Acc</i>
  <i type="int" name="IALGO">    38</i>
  <i type="string" name="ALGO">A</i>
  <i type="logical" name="ADDGRID"> T  </i>
  <i type="int" name="ICHARG">     2</i>
  <i type="int" name="NELM">   100</i>
  <i type="int" name="NELMIN">     6</i>
  <i name="EDIFF">      0.00000000</i>
  <i type="int" name="NSW">     0</i>
  <i type="int" name="ISIF">    -1</i>
  <i name="ENCUT">    600.00000000</i>
  <i type="logical" name="LREAL"> F  </i>
  <i type="int" name="ISMEAR">     0</i>
  <i name="SIGMA">      0.02000000</i>
  <i type="logical" name="LASPH"> T  </i>
  <i type="string" name="METAGGA">R2SCAN</i>
  <i type="logical" name="LMIXTAU"> F  </i>
 </incar>
 <primitive_cell>
  <structure name="primitive_cell" >
   <crystal>
    <varray name="basis" >
     <v>       4.94000856       0.00000000      -2.61968573 </v>
     <v>      -1.78797941       4.60508569      -2.61968573 </v>
     <v>       0.00000000       0.00000000       5.59164000 </v>
    </varray>
    <i name="volume">    127.20512817 </i>
    <varray name="rec_basis" >
     <v>       0.20242880       0.07859539       0.00000000 </v>
     <v>       0.00000000       0.21715123       0.00000000 </v>
     <v>       0.09483798       0.13855742       0.17883841 </v>
    </varray>
   </crystal>
   <varray name="positions" >
    <v>       0.24512000       0.74512000       0.99024000 </v>
    <v>       0.75488000       0.25488000       0.00976000 </v>
    <v>       0.74512000       0.75488000       0.50000000 </v>
    <v>       0.25488000       0.24512000       0.50000000 </v>
    <v>       0.00000000       0.00000000       0.50000000 </v>
    <v>       0.00000000       0.00000000       0.00000000 </v>
    <v>       0.00000000       0.50000000       1.00000000 </v>
    <v>       0.50000000       0.50000000       0.50000000 </v>
    <v>       0.50000000       0.00000000       0.00000000 </v>
    <v>       0.50000000       0.50000000       1.00000000 </v>
    <v>       0.50000000       0.00000000       0.50000000 </v>
    <v>       0.00000000       0.50000000       0.50000000 </v>
   </varray>
  </structure>
  <varray name="primitive_index" >
   <v type="int" >        1 </v>
   <v type="int" >        2 </v>
   <v type="int" >        3 </v>
   <v type="int" >        4 </v>
   <v type="int" >        5 </v>
   <v type="int" >        6 </v>
   <v type="int" >        7 </v>
   <v type="int" >        8 </v>
   <v type="int" >        9 </v>
   <v type="int" >       10 </v>
   <v type="int" >       11 </v>
   <v type="int" >       12 </v>
  </varray>
 </primitive_cell>
 <kpoints>
  <generation param="Gamma">
   <v type="int" name="divisions">       8        8        9 </v>
   <v name="usershift">      0.00000000       0.00000000       0.00000000 </v>
   <v name="genvec1">      0.12500000       0.00000000       0.00000000 </v>
   <v name="genvec2">      0.00000000       0.12500000       0.00000000 </v>
   <v name="genvec3">      0.00000000       0.00000000       0.11111111 </v>
   <v name="shift">      0.00000000       0.00000000       0.00000000 </v>
  </generation>
  <varray name="kpointlist" >
   <v>       0.00000000       0.00000000       0.00000000 </v>
   <v>       0.12500000       0.00000000       0.00000000 </v>
   <v>       0.25000000       0.00000000       0.00000000 </v>
   <v>       0.37500000       0.00000000       0.00000000 </v>
   <v>       0.50000000       0.00000000       0.00000000 </v>
   <v>       0.12500000       0.12500000       0.00000000 </v>
   <v>       0.25000000       0.12500000       0.00000000 </v>
   <v>       0.37500000       0.12500000       0.00000000 </v>
   <v>       0.50000000       0.12500000       0.00000000 </v>
   <v>      -0.37500000       0.12500000       0.00000000 </v>
   <v>      -0.25000000       0.12500000       0.00000000 </v>
   <v>      -0.12500000       0.12500000       0.00000000 </v>
   <v>       0.25000000       0.25000000       0.00000000 </v>
   <v>       0.37500000       0.25000000       0.00000000 </v>
   <v>       0.50000000       0.25000000       0.00000000 </v>
   <v>      -0.37500000       0.25000000       0.00000000 </v>
   <v>      -0.25000000       0.25000000       0.00000000 </v>
   <v>       0.37500000       0.37500000       0.00000000 </v>
   <v>       0.50000000       0.37500000       0.00000000 </v>
   <v>      -0.37500000       0.37500000       0.00000000 </v>
   <v>       0.50000000       0.50000000       0.00000000 </v>
   <v>       0.00000000       0.00000000       0.11111111 </v>
   <v>       0.12500000      -0.00000000       0.11111111 </v>
   <v>       0.25000000       0.00000000       0.11111111 </v>
   <v>       0.37500000      -0.00000000       0.11111111 </v>
   <v>       0.50000000      -0.00000000       0.11111111 </v>
   <v>      -0.37500000       0.00000000       0.11111111 </v>
   <v>      -0.25000000       0.00000000       0.11111111 </v>
   <v>      -0.12500000       0.00000000       0.11111111 </v>
   <v>       0.12500000       0.12500000       0.11111111 </v>
   <v>       0.25000000       0.12500000       0.11111111 </v>
   <v>       0.37500000       0.12500000       0.11111111 </v>
   <v>       0.50000000       0.12500000       0.11111111 </v>
   <v>      -0.37500000       0.12500000       0.11111111 </v>
   <v>      -0.25000000       0.12500000       0.11111111 </v>
   <v>      -0.12500000       0.12500000       0.11111111 </v>
   <v>       0.25000000       0.25000000       0.11111111 </v>
   <v>       0.37500000       0.25000000       0.11111111 </v>
   <v>       0.50000000       0.25000000       0.11111111 </v>
   <v>      -0.37500000       0.25000000       0.11111111 </v>
   <v>      -0.25000000       0.25000000       0.11111111 </v>
   <v>      -0.12500000       0.25000000       0.11111111 </v>
   <v>       0.37500000       0.37500000       0.11111111 </v>
   <v>       0.50000000       0.37500000       0.11111111 </v>
   <v>      -0.37500000       0.37500000       0.11111111 </v>
   <v>      -0.25000000       0.37500000       0.11111111 </v>
   <v>      -0.12500000       0.37500000       0.11111111 </v>
   <v>       0.50000000       0.50000000       0.11111111 </v>
   <v>      -0.37500000       0.50000000       0.11111111 </v>
   <v>      -0.25000000       0.50000000       0.11111111 </v>
   <v>      -0.12500000       0.50000000       0.11111111 </v>
   <v>      -0.37500000      -0.37500000       0.11111111 </v>
   <v>      -0.25000000      -0.37500000       0.11111111 </v>
   <v>      -0.12500000      -0.37500000       0.11111111 </v>
   <v>      -0.25000000      -0.25000000       0.11111111 </v>
   <v>      -0.12500000      -0.25000000       0.11111111 </v>
   <v>      -0.12500000      -0.12500000       0.11111111 </v>
   <v>      -0.00000000       0.00000000       0.22222222 </v>
   <v>       0.12500000       0.00000000       0.22222222 </v>
   <v>       0.25000000      -0.00000000       0.22222222 </v>
   <v>       0.37500000       0.00000000       0.22222222 </v>
   <v>       0.50000000       0.00000000       0.22222222 </v>
   <v>      -0.37500000       0.00000000       0.22222222 </v>
   <v>      -0.25000000       0.00000000       0.22222222 </v>
   <v>      -0.12500000       0.00000000       0.22222222 </v>
   <v>       0.12500000       0.12500000       0.22222222 </v>
   <v>       0.25000000       0.12500000       0.22222222 </v>
   <v>       0.37500000       0.12500000       0.22222222 </v>
   <v>       0.50000000       0.12500000       0.22222222 </v>
   <v>      -0.37500000       0.12500000       0.22222222 </v>
   <v>      -0.25000000       0.12500000       0.22222222 </v>
   <v>      -0.12500000       0.12500000       0.22222222 </v>
   <v>       0.25000000       0.25000000       0.22222222 </v>
   <v>       0.37500000       0.25000000       0.22222222 </v>
   <v>       0.50000000       0.25000000       0.22222222 </v>
   <v>      -0.37500000       0.25000000       0.22222222 </v>
   <v>      -0.25000000       0.25000000       0.22222222 </v>
   <v>      -0.12500000       0.25000000       0.22222222 </v>
   <v>       0.37500000       0.37500000       0.22222222 </v>
   <v>       0.50000000       0.37500000       0.22222222 </v>
   <v>      -0.37500000       0.37500000       0.22222222 </v>
   <v>      -0.25000000       0.37500000       0.22222222 </v>
   <v>      -0.12500000       0.37500000       0.22222222 </v>
   <v>       0.50000000       0.50000000       0.22222222 </v>
   <v>      -0.37500000       0.50000000       0.22222222 </v>
   <v>      -0.25000000       0.50000000       0.22222222 </v>
   <v>      -0.12500000       0.50000000       0.22222222 </v>
   <v>      -0.37500000      -0.37500000       0.22222222 </v>
   <v>      -0.25000000      -0.37500000       0.22222222 </v>
   <v>      -0.12500000      -0.37500000       0.22222222 </v>
   <v>      -0.25000000      -0.25000000       0.22222222 </v>
   <v>      -0.12500000      -0.25000000       0.22222222 </v>
   <v>      -0.12500000      -0.12500000       0.22222222 </v>
   <v>       0.00000000       0.00000000       0.33333333 </v>
   <v>       0.12500000       0.00000000       0.33333333 </v>
   <v>       0.25000000       0.00000000       0.33333333 </v>
   <v>       0.37500000       0.00000000       0.33333333 </v>
   <v>       0.50000000      -0.00000000       0.33333333 </v>
   <v>      -0.37500000       0.00000000       0.33333333 </v>
   <v>      -0.25000000       0.00000000       0.33333333 </v>
   <v>      -0.12500000       0.00000000       0.33333333 </v>
   <v>       0.12500000       0.12500000       0.33333333 </v>
   <v>       0.25000000       0.12500000       0.33333333 </v>
   <v>       0.37500000       0.12500000       0.33333333 </v>
   <v>       0.50000000       0.12500000       0.33333333 </v>
   <v>      -0.37500000       0.12500000       0.33333333 </v>
   <v>      -0.25000000       0.12500000       0.33333333 </v>
   <v>      -0.12500000       0.12500000       0.33333333 </v>
   <v>       0.25000000       0.25000000       0.33333333 </v>
   <v>       0.37500000       0.25000000       0.33333333 </v>
   <v>       0.50000000       0.25000000       0.33333333 </v>
   <v>      -0.37500000       0.25000000       0.33333333 </v>
   <v>      -0.25000000       0.25000000       0.33333333 </v>
   <v>      -0.12500000       0.25000000       0.33333333 </v>
   <v>       0.37500000       0.37500000       0.33333333 </v>
   <v>       0.50000000       0.37500000       0.33333333 </v>
   <v>      -0.37500000       0.37500000       0.33333333 </v>
   <v>      -0.25000000       0.37500000       0.33333333 </v>
   <v>      -0.12500000       0.37500000       0.33333333 </v>
   <v>       0.50000000       0.50000000       0.33333333 </v>
   <v>      -0.37500000       0.50000000       0.33333333 </v>
   <v>      -0.25000000       0.50000000       0.33333333 </v>
   <v>      -0.12500000       0.50000000       0.33333333 </v>
   <v>      -0.37500000      -0.37500000       0.33333333 </v>
   <v>      -0.25000000      -0.37500000       0.33333333 </v>
   <v>      -0.12500000      -0.37500000       0.33333333 </v>
   <v>      -0.25000000      -0.25000000       0.33333333 </v>
   <v>      -0.12500000      -0.25000000       0.33333333 </v>
   <v>      -0.12500000      -0.12500000       0.33333333 </v>
   <v>      -0.00000000       0.00000000       0.44444444 </v>
   <v>       0.12500000       0.00000000       0.44444444 </v>
   <v>       0.25000000       0.00000000       0.44444444 </v>
   <v>       0.37500000      -0.00000000       0.44444444 </v>
   <v>       0.50000000      -0.00000000       0.44444444 </v>
   <v>      -0.37500000       0.00000000       0.44444444 </v>
   <v>      -0.25000000       0.00000000       0.44444444 </v>
   <v>      -0.12500000       0.00000000       0.44444444 </v>
   <v>       0.12500000       0.12500000       0.44444444 </v>
   <v>       0.25000000       0.12500000       0.44444444 </v>
   <v>       0.37500000       0.12500000       0.44444444 </v>
   <v>       0.50000000       0.12500000       0.44444444 </v>
   <v>      -0.37500000       0.12500000       0.44444444 </v>
   <v>      -0.25000000       0.12500000       0.44444444 </v>
   <v>      -0.12500000       0.12500000       0.44444444 </v>
   <v>       0.25000000       0.25000000       0.44444444 </v>
   <v>       0.37500000       0.25000000       0.44444444 </v>
   <v>       0.50000000       0.25000000       0.44444444 </v>
   <v>      -0.37500000       0.25000000       0.44444444 </v>
   <v>      -0.25000000       0.25000000       0.44444444 </v>
   <v>      -0.12500000       0.25000000       0.44444444 </v>
   <v>       0.37500000       0.37500000       0.44444444 </v>
   <v>       0.50000000       0.37500000       0.44444444 </v>
   <v>      -0.37500000       0.37500000       0.44444444 </v>
   <v>      -0.25000000       0.37500000       0.44444444 </v>
   <v>      -0.12500000       0.37500000       0.44444444 </v>
   <v>       0.50000000       0.50000000       0.44444444 </v>
   <v>      -0.37500000       0.50000000       0.44444444 </v>
   <v>      -0.25000000       0.50000000       0.44444444 </v>
   <v>      -0.12500000       0.50000000       0.44444444 </v>
   <v>      -0.37500000      -0.37500000       0.44444444 </v>
   <v>      -0.25000000      -0.37500000       0.44444444 </v>
   <v>      -0.12500000      -0.37500000       0.44444444 </v>
   <v>      -0.25000000      -0.25000000       0.44444444 </v>
   <v>      -0.12500000      -0.25000000       0.44444444 </v>
   <v>      -0.12500000      -0.12500000       0.44444444 </v>
  </varray>
  <varray name="weights" >
   <v>       0.00173611 </v>
   <v>       0.00694444 </v>
   <v>       0.00694444 </v>
   <v>       0.00694444 </v>
   <v>       0.00347222 </v>
   <v>       0.00347222 </v>
   <v>       0.00694444 </v>
   <v>       0.00694444 </v>
   <v>       0.00694444 </v>
   <v>       0.00694444 </v>
   <v>       0.00694444 </v>
   <v>       0.00347222 </v>
   <v>       0.00347222 </v>
   <v>       0.00694444 </v>
   <v>       0.00694444 </v>
   <v>       0.00694444 </v>
   <v>       0.00347222 </v>
   <v>       0.00347222 </v>
   <v>       0.00694444 </v>
   <v>       0.00347222 </v>
   <v>       0.00173611 </v>
   <v>       0.00347222 </v>
   <v>       0.00694444 </v>
   <v>       0.00694444 </v>
   <v>       0.00694444 </v>
   <v>       0.00694444 </v>
   <v>       0.00694444 </v>
   <v>       0.00694444 </v>
   <v>       0.00694444 </v>
   <v>       0.00347222 </v>
   <v>       0.00694444 </v>
   <v>       0.00694444 </v>
   <v>       0.00694444 </v>
   <v>       0.00694444 </v>
   <v>       0.00694444 </v>
   <v>       0.00694444 </v>
   <v>       0.00347222 </v>
   <v>       0.00694444 </v>
   <v>       0.00694444 </v>
   <v>       0.00694444 </v>
   <v>       0.00694444 </v>
   <v>       0.00694444 </v>
   <v>       0.00347222 </v>
   <v>       0.00694444 </v>
   <v>       0.00694444 </v>
   <v>       0.00694444 </v>
   <v>       0.00694444 </v>
   <v>       0.00347222 </v>
   <v>       0.00694444 </v>
   <v>       0.00694444 </v>
   <v>       0.00694444 </v>
   <v>       0.00347222 </v>
   <v>       0.00694444 </v>
   <v>       0.00694444 </v>
   <v>       0.00347222 </v>
   <v>       0.00694444 </v>
   <v>       0.00347222 </v>
   <v>       0.00347222 </v>
   <v>       0.00694444 </v>
   <v>       0.00694444 </v>
   <v>       0.00694444 </v>
   <v>       0.00694444 </v>
   <v>       0.00694444 </v>
   <v>       0.00694444 </v>
   <v>       0.00694444 </v>
   <v>       0.00347222 </v>
   <v>       0.00694444 </v>
   <v>       0.00694444 </v>
   <v>       0.00694444 </v>
   <v>       0.00694444 </v>
   <v>       0.00694444 </v>
   <v>       0.00694444 </v>
   <v>       0.00347222 </v>
   <v>       0.00694444 </v>
   <v>       0.00694444 </v>
   <v>       0.00694444 </v>
   <v>       0.00694444 </v>
   <v>       0.00694444 </v>
   <v>       0.00347222 </v>
   <v>       0.00694444 </v>
   <v>       0.00694444 </v>
   <v>       0.00694444 </v>
   <v>       0.00694444 </v>
   <v>       0.00347222 </v>
   <v>       0.00694444 </v>
   <v>       0.00694444 </v>
   <v>       0.00694444 </v>
   <v>       0.00347222 </v>
   <v>       0.00694444 </v>
   <v>       0.00694444 </v>
   <v>       0.00347222 </v>
   <v>       0.00694444 </v>
   <v>       0.00347222 </v>
   <v>       0.00347222 </v>
   <v>       0.00694444 </v>
   <v>       0.00694444 </v>
   <v>       0.00694444 </v>
   <v>       0.00694444 </v>
   <v>       0.00694444 </v>
   <v>       0.00694444 </v>
   <v>       0.00694444 </v>
   <v>       0.00347222 </v>
   <v>       0.00694444 </v>
   <v>       0.00694444 </v>
   <v>       0.00694444 </v>
   <v>       0.00694444 </v>
   <v>       0.00694444 </v>
   <v>       0.00694444 </v>
   <v>       0.00347222 </v>
   <v>       0.00694444 </v>
   <v>       0.00694444 </v>
   <v>       0.00694444 </v>
   <v>       0.00694444 </v>
   <v>       0.00694444 </v>
   <v>       0.00347222 </v>
   <v>       0.00694444 </v>
   <v>       0.00694444 </v>
   <v>       0.00694444 </v>
   <v>       0.00694444 </v>
   <v>       0.00347222 </v>
   <v>       0.00694444 </v>
   <v>       0.00694444 </v>
   <v>       0.00694444 </v>
   <v>       0.00347222 </v>
   <v>       0.00694444 </v>
   <v>       0.00694444 </v>
   <v>       0.00347222 </v>
   <v>       0.00694444 </v>
   <v>       0.00347222 </v>
   <v>       0.00347222 </v>
   <v>       0.00694444 </v>
   <v>       0.00694444 </v>
   <v>       0.00694444 </v>
   <v>       0.00694444 </v>
   <v>       0.00694444 </v>
   <v>       0.00694444 </v>
   <v>       0.00694444 </v>
   <v>       0.00347222 </v>
   <v>       0.00694444 </v>
   <v>       0.00694444 </v>
   <v>       0.00694444 </v>
   <v>       0.00694444 </v>
   <v>       0.00694444 </v>
   <v>       0.00694444 </v>
   <v>       0.00347222 </v>
   <v>       0.00694444 </v>
   <v>       0.00694444 </v>
   <v>       0.00694444 </v>
   <v>       0.00694444 </v>
   <v>       0.00694444 </v>
   <v>       0.00347222 </v>
   <v>       0.00694444 </v>
   <v>       0.00694444 </v>
   <v>       0.00694444 </v>
   <v>       0.00694444 </v>
   <v>       0.00347222 </v>
   <v>       0.00694444 </v>
   <v>       0.00694444 </v>
   <v>       0.00694444 </v>
   <v>       0.00347222 </v>
   <v>       0.00694444 </v>
   <v>       0.00694444 </v>
   <v>       0.00347222 </v>
   <v>       0.00694444 </v>
   <v>       0.00347222 </v>
  </varray>
 </kpoints>
 <parameters>
  <separator name="general" >
   <i type="string" name="SYSTEM">routine with relax: pwdword</i>
   <i type="logical" name="LCOMPAT"> F  </i>
  </separator>
  <separator name="electronic" >
   <i type="string" name="PREC">acc</i>
   <i name="ENMAX">    600.00000000</i>
   <i name="ENAUG">    535.51400000</i>
   <i name="EDIFF">      0.00000000</i>
   <i type="int" name="IALGO">    58</i>
   <i type="int" name="IWAVPR">    10</i>
   <i type="int" name="NBANDS">    66</i>
   <i type="int" name="NBANDSLOW">    -1</i>
   <i type="int" name="NBANDSHIGH">    -1</i>
   <i name="NELECT">    104.00000000</i>
   <i type="int" name="TURBO">     0</i>
   <i type="int" name="IRESTART">     0</i>
   <i type="int" name="NREBOOT">     0</i>
   <i type="int" name="NMIN">     0</i>
   <i name="EREF">      0.00000000</i>
   <separator name="electronic smearing" >
    <i type="int" name="ISMEAR">     0</i>
    <i name="SIGMA">      0.02000000</i>
    <i name="KSPACING">      0.50000000</i>
    <i type="logical" name="KGAMMA"> T  </i>
    <i type="logical" name="KBLOWUP"> F  </i>
   </separator>
   <separator name="electronic projectors" >
    <i type="logical" name="LREAL"> F  </i>
    <v name="ROPT">      0.00000000      0.00000000      0.00000000</v>
    <i type="int" name="LMAXPAW">  -100</i>
    <i type="int" name="LMAXMIX">     2</i>
    <i type="logical" name="NLSPLINE"> F  </i>
   </separator>
   <separator name="electronic startup" >
    <i type="int" name="ISTART">     0</i>
    <i type="int" name="ICHARG">     2</i>
    <i type="int" name="INIWAV">     1</i>
   </separator>
   <separator name="electronic spin" >
    <i type="int" name="ISPIN">     1</i>
    <i type="logical" name="LNONCOLLINEAR"> F  </i>
    <v name="MAGMOM">      1.00000000      1.00000000      1.00000000      1.00000000      1.00000000      1.00000000      1.00000000      1.00000000      1.00000000      1.00000000      1.00000000      1.00000000</v>
    <i name="NUPDOWN">     -1.00000000</i>
    <i type="logical" name="LSORBIT"> F  </i>
    <v name="SAXIS">      0.00000000      0.00000000      1.00000000</v>
    <i type="logical" name="LSPIRAL"> F  </i>
    <v name="QSPIRAL">      0.00000000      0.00000000      0.00000000</v>
    <i type="logical" name="LZEROZ"> F  </i>
   </separator>
   <separator name="electronic exchange-correlation" >
    <i type="logical" name="LASPH"> T  </i>
    <i type="logical" name="LMETAGGA"> F  </i>
   </separator>
   <separator name="electronic convergence" >
    <i type="int" name="NELM">   100</i>
    <i type="int" name="NELMDL">    -5</i>
    <i type="int" name="NELMIN">     6</i>
    <i name="ENINI">    600.00000000</i>
    <separator name="electronic convergence detail" >
     <i type="logical" name="LDIAG"> T  </i>
     <i type="logical" name="LSUBROT"> F  </i>
     <i name="WEIMIN">      0.00000000</i>
     <i name="EBREAK">      0.00000000</i>
     <i name="DEPER">      0.30000000</i>
     <i type="int" name="NRMM">     4</i>
     <i name="TIME">      0.40000000</i>
    </separator>
   </separator>
   <separator name="electronic mixer" >
    <i name="AMIX">      0.40000000</i>
    <i name="BMIX">      1.00000000</i>
    <i name="AMIN">      0.10000000</i>
    <i name="AMIX_MAG">      1.60000000</i>
    <i name="BMIX_MAG">      1.00000000</i>
    <separator name="electronic mixer details" >
     <i type="int" name="IMIX">     4</i>
     <i type="logical" name="MIXFIRST"> F  </i>
     <i type="int" name="MAXMIX">   -45</i>
     <i name="WC">    100.00000000</i>
     <i type="int" name="INIMIX">     1</i>
     <i type="int" name="MIXPRE">     1</i>
     <i type="int" name="MREMOVE">     5</i>
    </separator>
   </separator>
   <separator name="electronic dipolcorrection" >
    <i type="logical" name="LDIPOL"> F  </i>
    <i type="logical" name="LMONO"> F  </i>
    <i type="int" name="IDIPOL">     0</i>
    <i name="EPSILON">      1.00000000</i>
    <v name="DIPOL">   -100.00000000   -100.00000000   -100.00000000</v>
    <i name="EFIELD">      0.00000000</i>
   </separator>
  </separator>
  <separator name="grids" >
   <i type="int" name="NGX">    48</i>
   <i type="int" name="NGY">    48</i>
   <i type="int" name="NGZ">    48</i>
   <i type="int" name="NGXF">    96</i>
   <i type="int" name="NGYF">    96</i>
   <i type="int" name="NGZF">    96</i>
   <i type="logical" name="ADDGRID"> T  </i>
  </separator>
  <separator name="ionic" >
   <i type="int" name="NSW">     0</i>
   <i type="int" name="IBRION">    -1</i>
   <i type="int" name="MDALGO">     0</i>
   <i type="int" name="ISIF">    -1</i>
   <i name="PSTRESS">      0.00000000</i>
   <i name="EDIFFG">      0.00000001</i>
   <i type="int" name="NFREE">     0</i>
   <i name="POTIM">      0.50000000</i>
   <i name="SMASS">     -3.00000000</i>
   <i name="SCALEE">      1.00000000</i>
  </separator>
  <separator name="ionic md" >
   <i name="TEBEG">      0.00010000</i>
   <i name="TEEND">      0.00010000</i>
   <i type="int" name="NBLOCK">     1</i>
   <i type="int" name="KBLOCK">     1</i>
   <i type="int" name="NPACO">   256</i>
   <i name="APACO">     16.00000000</i>
  </separator>
  <separator name="symmetry" >
   <i type="int" name="ISYM">     2</i>
   <i name="SYMPREC">      0.00001000</i>
  </separator>
  <separator name="dos" >
   <i type="int" name="LORBIT">     0</i>
   <v name="RWIGS">     -1.00000000     -1.00000000     -1.00000000</v>
   <i type="int" name="NEDOS">   301</i>
   <i name="EMIN">     10.00000000</i>
   <i name="EMAX">    -10.00000000</i>
   <i name="EFERMI">      0.00000000</i>
  </separator>
  <separator name="writing" >
   <i type="int" name="NWRITE">     2</i>
   <i type="logical" name="LWAVE"> T  </i>
   <i type="logical" name="LDOWNSAMPLE"> F  </i>
   <i type="logical" name="LCHARG"> T  </i>
   <i type="logical" name="LPARD"> F  </i>
   <i type="logical" name="LVTOT"> F  </i>
   <i type="logical" name="LVHAR"> F  </i>
   <i type="logical" name="LELF"> F  </i>
   <i type="logical" name="LOPTICS"> F  </i>
   <v name="STM">      0.00000000      0.00000000      0.00000000      0.00000000      0.00000000      0.00000000      0.00000000</v>
  </separator>
  <separator name="performance" >
   <i type="int" name="NPAR">     6</i>
   <i type="int" name="NSIM">     4</i>
   <i type="int" name="NBLK">    -1</i>
   <i type="logical" name="LPLANE"> T  </i>
   <i type="logical" name="LSCALAPACK"> T  </i>
   <i type="logical" name="LSCAAWARE"> F  </i>
   <i type="logical" name="LSCALU"> F  </i>
   <i type="logical" name="LASYNC"> F  </i>
   <i type="logical" name="LORBITALREAL"> F  </i>
  </separator>
  <separator name="miscellaneous" >
   <i type="int" name="IDIOT">     3</i>
   <i type="int" name="PHON_NSTRUCT">    -1</i>
   <i type="logical" name="LMUSIC"> F  </i>
   <v name="POMASS">     10.81100000     95.94000000     28.08500000</v>
   <v name="DARWINR">      0.00000000      0.00000000      0.00000000</v>
   <v name="DARWINV">      1.00000000      1.00000000      1.00000000</v>
   <i type="logical" name="LCORR"> T  </i>
  </separator>
  <i type="logical" name="GGA_COMPAT"> T  </i>
  <i type="logical" name="LBERRY"> F  </i>
  <i type="int" name="ICORELEVEL">     0</i>
  <i type="logical" name="LDAU"> F  </i>
  <i type="int" name="I_CONSTRAINED_M">     0</i>
  <separator name="electronic exchange-correlation" >
   <i type="string" name="GGA">--</i>
   <i type="int" name="VOSKOWN">     0</i>
   <i type="logical" name="LHFCALC"> F  </i>
   <i type="string" name="PRECFOCK"></i>
   <i type="logical" name="LSYMGRAD"> F  </i>
   <i type="logical" name="LHFONE"> F  </i>
   <i type="logical" name="LRHFCALC"> F  </i>
   <i type="logical" name="LTHOMAS"> F  </i>
   <i type="logical" name="LMODELHF"> F  </i>
   <i type="logical" name="LFOCKACE"> F  </i>
   <i name="ENCUT4O">     -1.00000000</i>
   <i type="int" name="EXXOEP">     0</i>
   <i type="int" name="FOURORBIT">     0</i>
   <i name="AEXX">      0.00000000</i>
   <i name="HFALPHA">      0.00000000</i>
   <i name="MCALPHA">      0.00000000</i>
   <i name="ALDAX">      1.00000000</i>
   <i name="AGGAX">      1.00000000</i>
   <i name="ALDAC">      1.00000000</i>
   <i name="AGGAC">      1.00000000</i>
   <i type="int" name="NKREDX">     1</i>
   <i type="int" name="NKREDY">     1</i>
   <i type="int" name="NKREDZ">     1</i>
   <i type="logical" name="SHIFTRED"> F  </i>
   <i type="logical" name="ODDONLY"> F  </i>
   <i type="logical" name="EVENONLY"> F  </i>
   <i type="int" name="LMAXFOCK">     0</i>
   <i type="int" name="NMAXFOCKAE">     0</i>
   <i type="logical" name="LFOCKAEDFT"> F  </i>
   <i name="HFSCREEN">      0.00000000</i>
   <i name="HFSCREENC">      0.00000000</i>
   <i type="int" name="NBANDSGWLOW">     0</i>
  </separator>
  <separator name="vdW DFT" >
   <i type="logical" name="LUSE_VDW"> F  </i>
   <i name="Zab_VDW">     -0.84910000</i>
   <i name="PARAM1">      0.12340000</i>
   <i name="PARAM2">      1.00000000</i>
   <i name="PARAM3">      0.00000000</i>
  </separator>
  <separator name="model GW" >
   <i type="int" name="MODEL_GW">     0</i>
   <i name="MODEL_EPS0">      6.36025641</i>
   <i name="MODEL_ALPHA">      1.00000000</i>
  </separator>
  <separator name="linear response parameters" >
   <i type="logical" name="LEPSILON"> F  </i>
   <i type="logical" name="LRPA"> F  </i>
   <i type="logical" name="LNABLA"> F  </i>
   <i type="logical" name="LVEL"> F  </i>
   <i type="int" name="KINTER">     0</i>
   <i name="CSHIFT">      0.10000000</i>
   <i name="OMEGAMAX">     -1.00000000</i>
   <i name="DEG_THRESHOLD">      0.00200000</i>
   <i name="RTIME">     -0.10000000</i>
   <i name="WPLASMAI">      0.00000000</i>
   <v name="DFIELD">      0.00000000      0.00000000      0.00000000</v>
   <v name="WPLASMA">      0.00000000      0.00000000      0.00000000      0.00000000      0.00000000      0.00000000      0.00000000      0.00000000      0.00000000</v>
  </separator>
  <separator name="orbital magnetization" >
   <i type="logical" name="NUCIND"> F  </i>
   <v name="MAGPOS">      0.00000000      0.00000000      0.00000000</v>
   <i type="logical" name="LNICSALL"> T  </i>
   <i type="logical" name="ORBITALMAG"> F  </i>
   <i type="logical" name="LMAGBLOCH"> F  </i>
   <i type="logical" name="LCHIMAG"> F  </i>
   <i type="logical" name="LGAUGE"> T  </i>
   <i type="int" name="MAGATOM">     0</i>
   <v name="MAGDIPOL">      0.00000000      0.00000000      0.00000000</v>
   <v name="AVECCONST">      0.00000000      0.00000000      0.00000000</v>
  </separator>
  <separator name="response functions" >
   <i type="logical" name="LFINITE_TEMPERATURE"> F  </i>
   <i type="logical" name="LADDER"> F  </i>
   <i type="logical" name="LRPAFORCE"> F  </i>
   <i type="logical" name="LFXC"> F  </i>
   <i type="logical" name="LHARTREE"> T  </i>
   <i type="int" name="IBSE">     0</i>
   <v type="int" name="KPOINT">    -1     0     0     0</v>
   <i type="logical" name="LTCTC"> F  </i>
   <i type="logical" name="LTCTE"> F  </i>
   <i type="logical" name="LTETE"> F  </i>
   <i type="logical" name="LTRIPLET"> F  </i>
   <i type="logical" name="LFXCEPS"> F  </i>
   <i type="logical" name="LFXHEG"> F  </i>
   <i type="int" name="NATURALO">     2</i>
   <i type="logical" name="LHOLEGF"> F  </i>
   <i type="logical" name="L2ORDER"> F  </i>
   <i type="logical" name="LDMP1"> F  </i>
   <i type="logical" name="LMP2LT"> F  </i>
   <i type="logical" name="LSMP2LT"> F  </i>
   <i type="logical" name="LGWLF"> F  </i>
   <i name="ENCUTGW">     -2.00000000</i>
   <i name="ENCUTGWSOFT">     -2.00000000</i>
   <i name="ENCUTLF">     -1.00000000</i>
   <i type="logical" name="LESF_SPLINES"> F  </i>
   <i type="int" name="LMAXMP2">    -1</i>
   <i name="SCISSOR">      0.00000000</i>
   <i type="int" name="NOMEGA">     0</i>
   <i type="int" name="NOMEGAR">     0</i>
   <i type="int" name="NBANDSGW">    -1</i>
   <i type="int" name="NBANDSO">    -1</i>
   <i type="int" name="NBANDSV">    -1</i>
   <i type="int" name="NELM">   100</i>
   <i type="int" name="NELMHF">     1</i>
   <i type="int" name="DIM">     3</i>
   <i type="int" name="IESPILON">     4</i>
   <i type="int" name="ANTIRES">     0</i>
   <i name="OMEGAMAX">    -30.00000000</i>
   <i name="OMEGAMIN">    -30.00000000</i>
   <i name="OMEGATL">   -200.00000000</i>
   <i type="int" name="OMEGAGRID">     0</i>
   <i name="CSHIFT">     -0.10000000</i>
   <i type="logical" name="LSELFENERGY"> F  </i>
   <i type="logical" name="LSPECTRAL"> F  </i>
   <i type="logical" name="LSPECTRALGW"> F  </i>
   <i type="logical" name="LSINGLES"> F  </i>
   <i type="logical" name="LFERMIGW"> F  </i>
   <i type="logical" name="ODDONLYGW"> F  </i>
   <i type="logical" name="EVENONLYGW"> F  </i>
   <i type="int" name="NKREDLFX">     1</i>
   <i type="int" name="NKREDLFY">     1</i>
   <i type="int" name="NKREDLFZ">     1</i>
   <i type="int" name="MAXMEM">  2800</i>
   <i type="int" name="TELESCOPE">     0</i>
   <i type="int" name="NTAUPAR">    -1</i>
   <i type="int" name="NOMEGAPAR">    -1</i>
   <i name="DAMP_NEWTON">      0.80000001</i>
   <i name="LAMBDA">      1.00000000</i>
  </separator>
  <separator name="External order field" >
   <i name="OFIELD_KAPPA">      0.00000000</i>
   <v name="OFIELD_K">      0.00000000      0.00000000      0.00000000</v>
   <i name="OFIELD_Q6_NEAR">      0.00000000</i>
   <i name="OFIELD_Q6_FAR">      0.00000000</i>
   <i name="OFIELD_A">      0.00000000</i>
  </separator>
 </parameters>
 <atominfo>
  <atoms>      12 </atoms>
  <types>       3 </types>
  <array name="atoms" >
   <dimension dim="1">ion</dimension>
   <field type="string">element</field>
   <field type="int">atomtype</field>
   <set>
    <rc><c>B </c><c>   1</c></rc>
    <rc><c>B </c><c>   1</c></rc>
    <rc><c>B </c><c>   1</c></rc>
    <rc><c>B </c><c>   1</c></rc>
    <rc><c>Mo</c><c>   2</c></rc>
    <rc><c>Mo</c><c>   2</c></rc>
    <rc><c>Mo</c><c>   2</c></rc>
    <rc><c>Mo</c><c>   2</c></rc>
    <rc><c>Mo</c><c>   2</c></rc>
    <rc><c>Mo</c><c>   2</c></rc>
    <rc><c>Si</c><c>   3</c></rc>
    <rc><c>Si</c><c>   3</c></rc>
   </set>
  </array>
  <array name="atomtypes" >
   <dimension dim="1">type</dimension>
   <field type="int">atomspertype</field>
   <field type="string">element</field>
   <field>mass</field>
   <field>valence</field>
   <field type="string">pseudopotential</field>
   <set>
    <rc><c>   4</c><c>B </c><c>     10.81100000</c><c>      3.00000000</c><c>  PAW_PBE B 06Sep2000                   </c></rc>
    <rc><c>   6</c><c>Mo</c><c>     95.94000000</c><c>     14.00000000</c><c>  PAW_PBE Mo_sv 02Feb2006               </c></rc>
    <rc><c>   2</c><c>Si</c><c>     28.08500000</c><c>      4.00000000</c><c>  PAW_PBE Si 05Jan2001                  </c></rc>
   </set>
  </array>
 </atominfo>
 <structure name="initialpos" >
  <crystal>
   <varray name="basis" >
    <v>       4.94000856       0.00000000      -2.61968573 </v>
    <v>      -1.78797941       4.60508569      -2.61968573 </v>
    <v>       0.00000000       0.00000000       5.59164000 </v>
   </varray>
   <i name="volume">    127.20512817 </i>
   <varray name="rec_basis" >
    <v>       0.20242880       0.07859539       0.00000000 </v>
    <v>       0.00000000       0.21715123       0.00000000 </v>
    <v>       0.09483798       0.13855742       0.17883841 </v>
   </varray>
  </crystal>
  <varray name="positions" >
   <v>       0.24512000       0.74512000       0.99024000 </v>
   <v>       0.75488000       0.25488000       0.00976000 </v>
   <v>       0.74512000       0.75488000       0.50000000 </v>
   <v>       0.25488000       0.24512000       0.50000000 </v>
   <v>       0.00000000       0.00000000       0.50000000 </v>
   <v>       0.00000000       0.00000000       0.00000000 </v>
   <v>       0.00000000       0.50000000       0.00000000 </v>
   <v>       0.50000000       0.50000000       0.50000000 </v>
   <v>       0.50000000       0.00000000       0.00000000 </v>
   <v>       0.50000000       0.50000000       0.00000000 </v>
   <v>       0.50000000       0.00000000       0.50000000 </v>
   <v>       0.00000000       0.50000000       0.50000000 </v>
  </varray>
 </structure>
 <calculation>
  <scstep>
   <time name="total">   25.34   25.56</time>
   <energy>
    <i name="alphaZ">    734.47671845 </i>
    <i name="ewald"> -10171.46510229 </i>
    <i name="hartreedc">  -2141.03977066 </i>
    <i name="XCdc">    495.35004135 </i>
    <i name="pawpsdc">   9250.47132855 </i>
    <i name="pawaedc">  -9210.50234729 </i>
    <i name="eentropy">     -0.00046993 </i>
    <i name="bandstr">    494.31318732 </i>
    <i name="atom">  11664.50664672 </i>
    <i name="e_fr_energy">   1116.11023224 </i>
    <i name="e_wo_entrp">   1116.11070217 </i>
    <i name="e_0_energy">   1116.11046721 </i>
   </energy>
  </scstep>
  <scstep>
   <time name="total">   25.10   25.32</time>
   <energy>
    <i name="e_fr_energy">   -187.62850874 </i>
    <i name="e_wo_entrp">   -187.62727350 </i>
    <i name="e_0_energy">   -187.62789112 </i>
   </energy>
  </scstep>
  <scstep>
   <time name="total">   28.19   28.43</time>
   <energy>
    <i name="e_fr_energy">   -241.51827409 </i>
    <i name="e_wo_entrp">   -241.51738855 </i>
    <i name="e_0_energy">   -241.51783132 </i>
   </energy>
  </scstep>
  <scstep>
   <time name="total">   26.46   26.69</time>
   <energy>
    <i name="e_fr_energy">   -242.59613995 </i>
    <i name="e_wo_entrp">   -242.59505207 </i>
    <i name="e_0_energy">   -242.59559601 </i>
   </energy>
  </scstep>
  <scstep>
   <time name="total">   28.70   28.95</time>
   <energy>
    <i name="e_fr_energy">   -242.61035156 </i>
    <i name="e_wo_entrp">   -242.60927468 </i>
    <i name="e_0_energy">   -242.60981312 </i>
   </energy>
  </scstep>
  <scstep>
   <time name="total">   28.17   28.40</time>
   <energy>
    <i name="e_fr_energy">   -156.84305239 </i>
    <i name="e_wo_entrp">   -156.84213183 </i>
    <i name="e_0_energy">   -156.84259211 </i>
   </energy>
  </scstep>
  <scstep>
   <time name="total">   28.58   28.81</time>
   <energy>
    <i name="e_fr_energy">   -185.59619122 </i>
    <i name="e_wo_entrp">   -185.59441295 </i>
    <i name="e_0_energy">   -185.59530209 </i>
   </energy>
  </scstep>
  <scstep>
   <time name="total">   28.66   28.90</time>
   <energy>
    <i name="e_fr_energy">   -189.98956277 </i>
    <i name="e_wo_entrp">   -189.98831240 </i>
    <i name="e_0_energy">   -189.98893759 </i>
   </energy>
  </scstep>
  <scstep>
   <time name="total">   28.70   28.93</time>
   <energy>
    <i name="e_fr_energy">   -191.08789470 </i>
    <i name="e_wo_entrp">   -191.08681300 </i>
    <i name="e_0_energy">   -191.08735385 </i>
   </energy>
  </scstep>
  <scstep>
   <time name="total">   28.70   28.94</time>
   <energy>
    <i name="e_fr_energy">   -191.39519392 </i>
    <i name="e_wo_entrp">   -191.39404545 </i>
    <i name="e_0_energy">   -191.39461969 </i>
   </energy>
  </scstep>
  <scstep>
   <time name="total">   28.94   29.17</time>
   <energy>
    <i name="e_fr_energy">   -191.47630213 </i>
    <i name="e_wo_entrp">   -191.47519465 </i>
    <i name="e_0_energy">   -191.47574839 </i>
   </energy>
  </scstep>
  <scstep>
   <time name="total">   28.44   28.67</time>
   <energy>
    <i name="e_fr_energy">   -191.50464724 </i>
    <i name="e_wo_entrp">   -191.50347833 </i>
    <i name="e_0_energy">   -191.50406279 </i>
   </energy>
  </scstep>
  <scstep>
   <time name="total">   28.78   29.01</time>
   <energy>
    <i name="e_fr_energy">   -191.51471209 </i>
    <i name="e_wo_entrp">   -191.51356007 </i>
    <i name="e_0_energy">   -191.51413608 </i>
   </energy>
  </scstep>
  <scstep>
   <time name="total">   28.53   28.76</time>
   <energy>
    <i name="e_fr_energy">   -191.51908421 </i>
    <i name="e_wo_entrp">   -191.51791715 </i>
    <i name="e_0_energy">   -191.51850068 </i>
   </energy>
  </scstep>
  <scstep>
   <time name="total">   28.63   28.87</time>
   <energy>
    <i name="e_fr_energy">   -191.52044901 </i>
    <i name="e_wo_entrp">   -191.51928591 </i>
    <i name="e_0_energy">   -191.51986746 </i>
   </energy>
  </scstep>
  <scstep>
   <time name="total">   28.77   29.01</time>
   <energy>
    <i name="e_fr_energy">   -191.52088993 </i>
    <i name="e_wo_entrp">   -191.51971956 </i>
    <i name="e_0_energy">   -191.52030475 </i>
   </energy>
  </scstep>
  <scstep>
   <time name="total">   28.81   29.04</time>
   <energy>
    <i name="e_fr_energy">   -191.52104035 </i>
    <i name="e_wo_entrp">   -191.51987022 </i>
    <i name="e_0_energy">   -191.52045528 </i>
   </energy>
  </scstep>
  <scstep>
   <time name="total">   28.63   28.87</time>
   <energy>
    <i name="e_fr_energy">   -191.52110689 </i>
    <i name="e_wo_entrp">   -191.51993386 </i>
    <i name="e_0_energy">   -191.52052038 </i>
   </energy>
  </scstep>
  <scstep>
   <time name="total">   28.76   28.99</time>
   <energy>
    <i name="e_fr_energy">   -191.52112668 </i>
    <i name="e_wo_entrp">   -191.51995429 </i>
    <i name="e_0_energy">   -191.52054049 </i>
   </energy>
  </scstep>
  <scstep>
   <time name="total">   28.45   28.68</time>
   <energy>
    <i name="e_fr_energy">   -191.52113324 </i>
    <i name="e_wo_entrp">   -191.51996045 </i>
    <i name="e_0_energy">   -191.52054684 </i>
   </energy>
  </scstep>
  <scstep>
   <time name="total">   28.28   28.51</time>
   <energy>
    <i name="e_fr_energy">   -191.52113604 </i>
    <i name="e_wo_entrp">   -191.51996381 </i>
    <i name="e_0_energy">   -191.52054993 </i>
   </energy>
  </scstep>
  <scstep>
   <time name="total">   28.91   29.15</time>
   <energy>
    <i name="e_fr_energy">   -191.52113707 </i>
    <i name="e_wo_entrp">   -191.51996455 </i>
    <i name="e_0_energy">   -191.52055081 </i>
   </energy>
  </scstep>
  <scstep>
   <time name="total">   28.85   29.08</time>
   <energy>
    <i name="e_fr_energy">   -191.52113749 </i>
    <i name="e_wo_entrp">   -191.51996508 </i>
    <i name="e_0_energy">   -191.52055128 </i>
   </energy>
  </scstep>
  <scstep>
   <time name="total">   28.82   29.05</time>
   <energy>
    <i name="e_fr_energy">   -191.52113763 </i>
    <i name="e_wo_entrp">   -191.51996540 </i>
    <i name="e_0_energy">   -191.52055152 </i>
   </energy>
  </scstep>
  <scstep>
   <time name="total">   28.41   28.64</time>
   <energy>
    <i name="e_fr_energy">   -191.52113770 </i>
    <i name="e_wo_entrp">   -191.51996546 </i>
    <i name="e_0_energy">   -191.52055158 </i>
   </energy>
  </scstep>
  <scstep>
   <time name="total">   28.82   29.05</time>
   <energy>
    <i name="e_fr_energy">   -191.52113772 </i>
    <i name="e_wo_entrp">   -191.51996544 </i>
    <i name="e_0_energy">   -191.52055158 </i>
   </energy>
  </scstep>
  <scstep>
   <time name="total">   28.53   28.77</time>
   <energy>
    <i name="e_fr_energy">   -191.52113772 </i>
    <i name="e_wo_entrp">   -191.51996542 </i>
    <i name="e_0_energy">   -191.52055157 </i>
   </energy>
  </scstep>
  <scstep>
   <time name="total">   28.90   29.14</time>
   <energy>
    <i name="e_fr_energy">   -191.52113772 </i>
    <i name="e_wo_entrp">   -191.51996545 </i>
    <i name="e_0_energy">   -191.52055159 </i>
   </energy>
  </scstep>
  <scstep>
   <time name="total">   28.73   28.96</time>
   <energy>
    <i name="e_fr_energy">   -191.52113772 </i>
    <i name="e_wo_entrp">   -191.51996546 </i>
    <i name="e_0_energy">   -191.52055159 </i>
   </energy>
  </scstep>
  <scstep>
   <time name="total">   28.87   29.10</time>
   <energy>
    <i name="e_fr_energy">   -191.52113773 </i>
    <i name="e_wo_entrp">   -191.51996542 </i>
    <i name="e_0_energy">   -191.52055157 </i>
   </energy>
  </scstep>
  <scstep>
   <time name="total">   28.28   28.51</time>
   <energy>
    <i name="e_fr_energy">   -191.52113773 </i>
    <i name="e_wo_entrp">   -191.51996546 </i>
    <i name="e_0_energy">   -191.52055159 </i>
   </energy>
  </scstep>
  <scstep>
   <time name="total">   28.88   29.12</time>
   <energy>
    <i name="e_fr_energy">   -191.52113773 </i>
    <i name="e_wo_entrp">   -191.51996546 </i>
    <i name="e_0_energy">   -191.52055159 </i>
   </energy>
  </scstep>
  <scstep>
   <time name="total">   28.46   28.69</time>
   <energy>
    <i name="e_fr_energy">   -191.52113773 </i>
    <i name="e_wo_entrp">   -191.51996546 </i>
    <i name="e_0_energy">   -191.52055160 </i>
   </energy>
  </scstep>
  <scstep>
   <time name="total">   28.74   28.98</time>
   <energy>
    <i name="e_fr_energy">   -191.52113773 </i>
    <i name="e_wo_entrp">   -191.51996546 </i>
    <i name="e_0_energy">   -191.52055159 </i>
   </energy>
  </scstep>
  <scstep>
   <time name="total">   32.35   32.62</time>
   <energy>
    <i name="alphaZ">    734.47671845 </i>
    <i name="ewald"> -10171.46510229 </i>
    <i name="hartreedc">  -2009.44804704 </i>
    <i name="XCdc">    506.70388824 </i>
    <i name="pawpsdc">  15621.16791084 </i>
    <i name="pawaedc"> -15604.34384046 </i>
    <i name="eentropy">     -0.00117228 </i>
    <i name="bandstr">   -933.11813992 </i>
    <i name="atom">  11664.50664672 </i>
    <i name="e_fr_energy">   -191.52113773 </i>
    <i name="e_wo_entrp">   -191.51996545 </i>
    <i name="e_0_energy">   -191.52055159 </i>
   </energy>
  </scstep>
  <structure>
   <crystal>
    <varray name="basis" >
     <v>       4.94000856       0.00000000      -2.61968573 </v>
     <v>      -1.78797941       4.60508569      -2.61968573 </v>
     <v>       0.00000000       0.00000000       5.59164000 </v>
    </varray>
    <i name="volume">    127.20512817 </i>
    <varray name="rec_basis" >
     <v>       0.20242880       0.07859539       0.00000000 </v>
     <v>       0.00000000       0.21715123       0.00000000 </v>
     <v>       0.09483798       0.13855742       0.17883841 </v>
    </varray>
   </crystal>
   <varray name="positions" >
    <v>       0.24512000       0.74512000       0.99024000 </v>
    <v>       0.75488000       0.25488000       0.00976000 </v>
    <v>       0.74512000       0.75488000       0.50000000 </v>
    <v>       0.25488000       0.24512000       0.50000000 </v>
    <v>       0.00000000       0.00000000       0.50000000 </v>
    <v>       0.00000000       0.00000000       0.00000000 </v>
    <v>       0.00000000       0.50000000       0.00000000 </v>
    <v>       0.50000000       0.50000000       0.50000000 </v>
    <v>       0.50000000       0.00000000       0.00000000 </v>
    <v>       0.50000000       0.50000000       0.00000000 </v>
    <v>       0.50000000       0.00000000       0.50000000 </v>
    <v>       0.00000000       0.50000000       0.50000000 </v>
   </varray>
  </structure>
  <varray name="forces" >
   <v>       0.00000000       0.00000000       0.00000000 </v>
   <v>       0.00000000       0.00000000       0.00000000 </v>
   <v>       0.00000000       0.00000000       0.00000000 </v>
   <v>       0.00000000       0.00000000       0.00000000 </v>
   <v>       0.00000000       0.00000000       0.00000000 </v>
   <v>       0.00000000       0.00000000       0.00000000 </v>
   <v>       0.00000000       0.00000000       0.00000000 </v>
   <v>       0.00000000       0.00000000       0.00000000 </v>
   <v>       0.00000000       0.00000000       0.00000000 </v>
   <v>       0.00000000       0.00000000       0.00000000 </v>
   <v>       0.00000000       0.00000000       0.00000000 </v>
   <v>       0.00000000       0.00000000       0.00000000 </v>
  </varray>
  <varray name="stress" >
   <v>       0.00000000       0.00000000       0.00000000 </v>
   <v>       0.00000000       0.00000000       0.00000000 </v>
   <v>       0.00000000       0.00000000       0.00000000 </v>
  </varray>
  <energy>
   <i name="e_fr_energy">   -191.52113773 </i>
   <i name="e_wo_entrp">   -191.51996545 </i>
   <i name="e_0_energy">   -191.52055159 </i>
  </energy>
  <time name="totalsc"> 1000.81 1009.06</time>
  <eigenvalues>
   <array>
    <dimension dim="1">band</dimension>
    <dimension dim="2">kpoint</dimension>
    <dimension dim="3">spin</dimension>
    <field>eigene</field>
    <field>occ</field>
    <set>
     <set comment="spin 1">
      <set comment="kpoint 1">
       <r>  -49.4048    1.0000 </r>
       <r>  -49.2639    1.0000 </r>
       <r>  -49.1826    1.0000 </r>
       <r>  -49.1826    1.0000 </r>
       <r>  -49.1136    1.0000 </r>
       <r>  -49.1091    1.0000 </r>
       <r>  -23.6385    1.0000 </r>
       <r>  -23.6385    1.0000 </r>
       <r>  -23.4195    1.0000 </r>
       <r>  -23.3923    1.0000 </r>
       <r>  -23.3922    1.0000 </r>
       <r>  -23.3663    1.0000 </r>
       <r>  -23.0306    1.0000 </r>
       <r>  -22.9881    1.0000 </r>
       <r>  -22.6746    1.0000 </r>
       <r>  -22.6746    1.0000 </r>
       <r>  -22.4838    1.0000 </r>
       <r>  -22.4837    1.0000 </r>
       <r>  -22.3033    1.0000 </r>
       <r>  -22.1895    1.0000 </r>
       <r>  -22.1894    1.0000 </r>
       <r>  -22.1817    1.0000 </r>
       <r>  -22.1357    1.0000 </r>
       <r>  -21.9604    1.0000 </r>
       <r>   -0.9981    1.0000 </r>
       <r>    0.8690    1.0000 </r>
       <r>    3.3186    1.0000 </r>
       <r>    5.5805    1.0000 </r>
       <r>    5.5805    1.0000 </r>
       <r>    5.7985    1.0000 </r>
       <r>    6.7459    1.0000 </r>
       <r>    6.7460    1.0000 </r>
       <r>    7.0817    1.0000 </r>
       <r>    7.1629    1.0000 </r>
       <r>    7.3443    1.0000 </r>
       <r>    7.3444    1.0000 </r>
       <r>    7.5987    1.0000 </r>
       <r>    8.7007    1.0000 </r>
       <r>    8.7007    1.0000 </r>
       <r>    8.7672    1.0000 </r>
       <r>    9.6772    1.0000 </r>
       <r>    9.8683    1.0000 </r>
       <r>    9.8683    1.0000 </r>
       <r>   10.7996    1.0000 </r>
       <r>   10.8333    1.0000 </r>
       <r>   12.1167    1.0000 </r>
       <r>   12.7210    1.0000 </r>
       <r>   12.7211    1.0000 </r>
       <r>   12.9056    1.0000 </r>
       <r>   12.9056    1.0000 </r>
       <r>   13.3419    1.0000 </r>
       <r>   14.0681    0.0000 </r>
       <r>   14.5293    0.0000 </r>
       <r>   14.7650    0.0000 </r>
       <r>   14.9903    0.0000 </r>
       <r>   14.9903    0.0000 </r>
       <r>   15.3748    0.0000 </r>
       <r>   15.7119    0.0000 </r>
       <r>   16.3156    0.0000 </r>
       <r>   16.3684    0.0000 </r>
       <r>   16.3688    0.0000 </r>
       <r>   16.7640    0.0000 </r>
       <r>   16.8038    0.0000 </r>
       <r>   16.8040    0.0000 </r>
       <r>   17.8345    0.0000 </r>
       <r>   18.9114    0.0000 </r>
      </set>
      <set comment="kpoint 2">
       <r>  -49.3981    1.0000 </r>
       <r>  -49.2643    1.0000 </r>
       <r>  -49.1849    1.0000 </r>
       <r>  -49.1800    1.0000 </r>
       <r>  -49.1162    1.0000 </r>
       <r>  -49.1134    1.0000 </r>
       <r>  -23.6207    1.0000 </r>
       <r>  -23.6166    1.0000 </r>
       <r>  -23.4145    1.0000 </r>
       <r>  -23.3708    1.0000 </r>
       <r>  -23.3668    1.0000 </r>
       <r>  -23.3341    1.0000 </r>
       <r>  -23.0187    1.0000 </r>
       <r>  -22.9895    1.0000 </r>
       <r>  -22.6888    1.0000 </r>
       <r>  -22.6669    1.0000 </r>
       <r>  -22.5094    1.0000 </r>
       <r>  -22.5061    1.0000 </r>
       <r>  -22.3182    1.0000 </r>
       <r>  -22.2276    1.0000 </r>
       <r>  -22.1946    1.0000 </r>
       <r>  -22.1943    1.0000 </r>
       <r>  -22.1462    1.0000 </r>
       <r>  -21.9797    1.0000 </r>
       <r>   -0.8730    1.0000 </r>
       <r>    0.9399    1.0000 </r>
       <r>    3.3500    1.0000 </r>
       <r>    4.8842    1.0000 </r>
       <r>    5.2501    1.0000 </r>
       <r>    6.2663    1.0000 </r>
       <r>    6.5581    1.0000 </r>
       <r>    7.0799    1.0000 </r>
       <r>    7.1154    1.0000 </r>
       <r>    7.2741    1.0000 </r>
       <r>    7.3044    1.0000 </r>
       <r>    7.3604    1.0000 </r>
       <r>    7.8889    1.0000 </r>
       <r>    8.7595    1.0000 </r>
       <r>    8.9144    1.0000 </r>
       <r>    9.0798    1.0000 </r>
       <r>    9.4806    1.0000 </r>
       <r>    9.9551    1.0000 </r>
       <r>    9.9759    1.0000 </r>
       <r>   10.5714    1.0000 </r>
       <r>   10.8103    1.0000 </r>
       <r>   12.0993    1.0000 </r>
       <r>   12.7126    1.0000 </r>
       <r>   12.7990    1.0000 </r>
       <r>   12.8853    1.0000 </r>
       <r>   12.8989    1.0000 </r>
       <r>   13.3252    1.0000 </r>
       <r>   13.8796    0.0000 </r>
       <r>   14.0375    0.0000 </r>
       <r>   14.2243    0.0000 </r>
       <r>   14.5333    0.0000 </r>
       <r>   15.2621    0.0000 </r>
       <r>   15.6328    0.0000 </r>
       <r>   15.6970    0.0000 </r>
       <r>   15.8152    0.0000 </r>
       <r>   16.5034    0.0000 </r>
       <r>   16.5777    0.0000 </r>
       <r>   16.6713    0.0000 </r>
       <r>   16.8143    0.0000 </r>
       <r>   16.8977    0.0000 </r>
       <r>   17.6266    0.0000 </r>
       <r>   18.1842    0.0000 </r>
      </set>
      <set comment="kpoint 3">
       <r>  -49.3790    1.0000 </r>
       <r>  -49.2702    1.0000 </r>
       <r>  -49.1867    1.0000 </r>
       <r>  -49.1726    1.0000 </r>
       <r>  -49.1256    1.0000 </r>
       <r>  -49.1238    1.0000 </r>
       <r>  -23.5788    1.0000 </r>
       <r>  -23.5550    1.0000 </r>
       <r>  -23.4283    1.0000 </r>
       <r>  -23.3250    1.0000 </r>
       <r>  -23.2673    1.0000 </r>
       <r>  -23.2356    1.0000 </r>
       <r>  -22.9969    1.0000 </r>
       <r>  -22.9693    1.0000 </r>
       <r>  -22.7304    1.0000 </r>
       <r>  -22.6404    1.0000 </r>
       <r>  -22.5887    1.0000 </r>
       <r>  -22.5751    1.0000 </r>
       <r>  -22.3674    1.0000 </r>
       <r>  -22.3580    1.0000 </r>
       <r>  -22.2155    1.0000 </r>
       <r>  -22.2069    1.0000 </r>
       <r>  -22.1486    1.0000 </r>
       <r>  -22.0260    1.0000 </r>
       <r>   -0.5137    1.0000 </r>
       <r>    1.0851    1.0000 </r>
       <r>    3.4444    1.0000 </r>
       <r>    4.1251    1.0000 </r>
       <r>    4.7154    1.0000 </r>
       <r>    5.6616    1.0000 </r>
       <r>    6.7729    1.0000 </r>
       <r>    7.2664    1.0000 </r>
       <r>    7.4911    1.0000 </r>
       <r>    7.5727    1.0000 </r>
       <r>    7.6978    1.0000 </r>
       <r>    7.8059    1.0000 </r>
       <r>    8.2398    1.0000 </r>
       <r>    8.8723    1.0000 </r>
       <r>    9.1997    1.0000 </r>
       <r>    9.4163    1.0000 </r>
       <r>    9.6461    1.0000 </r>
       <r>    9.9641    1.0000 </r>
       <r>   10.1287    1.0000 </r>
       <r>   10.1913    1.0000 </r>
       <r>   10.9336    1.0000 </r>
       <r>   11.9045    1.0000 </r>
       <r>   12.1488    1.0000 </r>
       <r>   12.5550    1.0000 </r>
       <r>   12.6975    1.0000 </r>
       <r>   13.1507    1.0000 </r>
       <r>   13.2249    1.0000 </r>
       <r>   13.5091    0.0000 </r>
       <r>   13.5315    0.0000 </r>
       <r>   13.9833    0.0000 </r>
       <r>   14.3562    0.0000 </r>
       <r>   14.9725    0.0000 </r>
       <r>   15.2558    0.0000 </r>
       <r>   15.4458    0.0000 </r>
       <r>   15.8337    0.0000 </r>
       <r>   15.8406    0.0000 </r>
       <r>   16.1835    0.0000 </r>
       <r>   16.5643    0.0000 </r>
       <r>   16.7295    0.0000 </r>
       <r>   16.8819    0.0000 </r>
       <r>   17.5481    0.0000 </r>
       <r>   18.3423    0.0000 </r>
      </set>
      <set comment="kpoint 4">
       <r>  -49.3508    1.0000 </r>
       <r>  -49.2890    1.0000 </r>
       <r>  -49.1794    1.0000 </r>
       <r>  -49.1615    1.0000 </r>
       <r>  -49.1434    1.0000 </r>
       <r>  -49.1351    1.0000 </r>
       <r>  -23.5320    1.0000 </r>
       <r>  -23.4667    1.0000 </r>
       <r>  -23.4544    1.0000 </r>
       <r>  -23.3148    1.0000 </r>
       <r>  -23.1189    1.0000 </r>
       <r>  -23.0856    1.0000 </r>
       <r>  -22.9458    1.0000 </r>
       <r>  -22.8997    1.0000 </r>
       <r>  -22.7939    1.0000 </r>
       <r>  -22.7170    1.0000 </r>
       <r>  -22.6893    1.0000 </r>
       <r>  -22.5902    1.0000 </r>
       <r>  -22.5520    1.0000 </r>
       <r>  -22.4420    1.0000 </r>
       <r>  -22.2266    1.0000 </r>
       <r>  -22.2196    1.0000 </r>
       <r>  -22.1383    1.0000 </r>
       <r>  -22.0760    1.0000 </r>
       <r>    0.0271    1.0000 </r>
       <r>    1.0558    1.0000 </r>
       <r>    3.5821    1.0000 </r>
       <r>    3.7839    1.0000 </r>
       <r>    4.2333    1.0000 </r>
       <r>    4.7669    1.0000 </r>
       <r>    7.3399    1.0000 </r>
       <r>    7.3870    1.0000 </r>
       <r>    7.6102    1.0000 </r>
       <r>    7.7538    1.0000 </r>
       <r>    8.1456    1.0000 </r>
       <r>    8.5939    1.0000 </r>
       <r>    8.6731    1.0000 </r>
       <r>    9.0299    1.0000 </r>
       <r>    9.1166    1.0000 </r>
       <r>    9.4687    1.0000 </r>
       <r>    9.7858    1.0000 </r>
       <r>    9.8465    1.0000 </r>
       <r>   10.3098    1.0000 </r>
       <r>   10.3569    1.0000 </r>
       <r>   11.0162    1.0000 </r>
       <r>   11.3856    1.0000 </r>
       <r>   11.4790    1.0000 </r>
       <r>   12.2325    1.0000 </r>
       <r>   12.6707    1.0000 </r>
       <r>   12.9194    1.0000 </r>
       <r>   13.1196    1.0000 </r>
       <r>   13.1301    1.0000 </r>
       <r>   13.6379    0.0000 </r>
       <r>   14.0662    0.0000 </r>
       <r>   14.5002    0.0000 </r>
       <r>   14.5719    0.0000 </r>
       <r>   14.8721    0.0000 </r>
       <r>   15.1236    0.0000 </r>
       <r>   15.2605    0.0000 </r>
       <r>   15.4668    0.0000 </r>
       <r>   15.5243    0.0000 </r>
       <r>   16.8355    0.0000 </r>
       <r>   16.9677    0.0000 </r>
       <r>   16.9794    0.0000 </r>
       <r>   17.2777    0.0000 </r>
       <r>   17.4391    0.0000 </r>
      </set>
      <set comment="kpoint 5">
       <r>  -49.3184    1.0000 </r>
       <r>  -49.3184    1.0000 </r>
       <r>  -49.1630    1.0000 </r>
       <r>  -49.1630    1.0000 </r>
       <r>  -49.1484    1.0000 </r>
       <r>  -49.1484    1.0000 </r>
       <r>  -23.4896    1.0000 </r>
       <r>  -23.4896    1.0000 </r>
       <r>  -23.3744    1.0000 </r>
       <r>  -23.3744    1.0000 </r>
       <r>  -22.9923    1.0000 </r>
       <r>  -22.9923    1.0000 </r>
       <r>  -22.8446    1.0000 </r>
       <r>  -22.8446    1.0000 </r>
       <r>  -22.8276    1.0000 </r>
       <r>  -22.8276    1.0000 </r>
       <r>  -22.7503    1.0000 </r>
       <r>  -22.7503    1.0000 </r>
       <r>  -22.5212    1.0000 </r>
       <r>  -22.5212    1.0000 </r>
       <r>  -22.2272    1.0000 </r>
       <r>  -22.2272    1.0000 </r>
       <r>  -22.1145    1.0000 </r>
       <r>  -22.1145    1.0000 </r>
       <r>    0.6323    1.0000 </r>
       <r>    0.6323    1.0000 </r>
       <r>    3.8344    1.0000 </r>
       <r>    3.8344    1.0000 </r>
       <r>    4.0715    1.0000 </r>
       <r>    4.0715    1.0000 </r>
       <r>    7.5130    1.0000 </r>
       <r>    7.5130    1.0000 </r>
       <r>    7.7638    1.0000 </r>
       <r>    7.7638    1.0000 </r>
       <r>    8.5530    1.0000 </r>
       <r>    8.5530    1.0000 </r>
       <r>    9.1359    1.0000 </r>
       <r>    9.1359    1.0000 </r>
       <r>    9.4215    1.0000 </r>
       <r>    9.4215    1.0000 </r>
       <r>    9.5284    1.0000 </r>
       <r>    9.5284    1.0000 </r>
       <r>   10.4919    1.0000 </r>
       <r>   10.4919    1.0000 </r>
       <r>   10.7950    1.0000 </r>
       <r>   10.7950    1.0000 </r>
       <r>   12.2221    1.0000 </r>
       <r>   12.2222    1.0000 </r>
       <r>   12.3215    1.0000 </r>
       <r>   12.3215    1.0000 </r>
       <r>   13.0802    1.0000 </r>
       <r>   13.0802    1.0000 </r>
       <r>   14.1314    0.0000 </r>
       <r>   14.1314    0.0000 </r>
       <r>   14.2471    0.0000 </r>
       <r>   14.2471    0.0000 </r>
       <r>   14.8024    0.0000 </r>
       <r>   14.8024    0.0000 </r>
       <r>   15.0773    0.0000 </r>
       <r>   15.0773    0.0000 </r>
       <r>   16.3055    0.0000 </r>
       <r>   16.3055    0.0000 </r>
       <r>   17.1255    0.0000 </r>
       <r>   17.1271    0.0000 </r>
       <r>   17.1643    0.0000 </r>
       <r>   17.1657    0.0000 </r>
      </set>
      <set comment="kpoint 6">
       <r>  -49.3863    1.0000 </r>
       <r>  -49.2670    1.0000 </r>
       <r>  -49.1826    1.0000 </r>
       <r>  -49.1798    1.0000 </r>
       <r>  -49.1251    1.0000 </r>
       <r>  -49.1168    1.0000 </r>
       <r>  -23.5981    1.0000 </r>
       <r>  -23.5665    1.0000 </r>
       <r>  -23.4145    1.0000 </r>
       <r>  -23.3524    1.0000 </r>
       <r>  -23.2993    1.0000 </r>
       <r>  -23.2749    1.0000 </r>
       <r>  -23.0091    1.0000 </r>
       <r>  -22.9876    1.0000 </r>
       <r>  -22.6879    1.0000 </r>
       <r>  -22.6860    1.0000 </r>
       <r>  -22.5814    1.0000 </r>
       <r>  -22.5306    1.0000 </r>
       <r>  -22.3312    1.0000 </r>
       <r>  -22.2844    1.0000 </r>
       <r>  -22.2211    1.0000 </r>
       <r>  -22.2076    1.0000 </r>
       <r>  -22.1469    1.0000 </r>
       <r>  -22.0160    1.0000 </r>
       <r>   -0.6588    1.0000 </r>
       <r>    1.0457    1.0000 </r>
       <r>    3.4641    1.0000 </r>
       <r>    4.3005    1.0000 </r>
       <r>    4.8127    1.0000 </r>
       <r>    6.4056    1.0000 </r>
       <r>    6.4320    1.0000 </r>
       <r>    6.6963    1.0000 </r>
       <r>    7.4610    1.0000 </r>
       <r>    7.4753    1.0000 </r>
       <r>    7.5665    1.0000 </r>
       <r>    7.8711    1.0000 </r>
       <r>    8.1022    1.0000 </r>
       <r>    8.9706    1.0000 </r>
       <r>    9.2206    1.0000 </r>
       <r>    9.3456    1.0000 </r>
       <r>    9.4309    1.0000 </r>
       <r>    9.9753    1.0000 </r>
       <r>   10.0691    1.0000 </r>
       <r>   10.0921    1.0000 </r>
       <r>   10.9366    1.0000 </r>
       <r>   11.9147    1.0000 </r>
       <r>   12.5172    1.0000 </r>
       <r>   12.6821    1.0000 </r>
       <r>   12.8697    1.0000 </r>
       <r>   12.8779    1.0000 </r>
       <r>   13.3450    1.0000 </r>
       <r>   13.4618    0.0004 </r>
       <r>   13.7756    0.0000 </r>
       <r>   13.9900    0.0000 </r>
       <r>   14.4943    0.0000 </r>
       <r>   14.9778    0.0000 </r>
       <r>   15.2362    0.0000 </r>
       <r>   15.5304    0.0000 </r>
       <r>   15.9311    0.0000 </r>
       <r>   15.9802    0.0000 </r>
       <r>   16.6151    0.0000 </r>
       <r>   16.6614    0.0000 </r>
       <r>   16.6830    0.0000 </r>
       <r>   16.9393    0.0000 </r>
       <r>   17.3496    0.0000 </r>
       <r>   18.6030    0.0000 </r>
      </set>
      <set comment="kpoint 7">
       <r>  -49.3635    1.0000 </r>
       <r>  -49.2775    1.0000 </r>
       <r>  -49.1818    1.0000 </r>
       <r>  -49.1703    1.0000 </r>
       <r>  -49.1417    1.0000 </r>
       <r>  -49.1239    1.0000 </r>
       <r>  -23.5472    1.0000 </r>
       <r>  -23.4974    1.0000 </r>
       <r>  -23.4325    1.0000 </r>
       <r>  -23.3079    1.0000 </r>
       <r>  -23.1952    1.0000 </r>
       <r>  -23.1476    1.0000 </r>
       <r>  -22.9796    1.0000 </r>
       <r>  -22.9586    1.0000 </r>
       <r>  -22.7336    1.0000 </r>
       <r>  -22.7038    1.0000 </r>
       <r>  -22.6620    1.0000 </r>
       <r>  -22.6010    1.0000 </r>
       <r>  -22.4243    1.0000 </r>
       <r>  -22.3747    1.0000 </r>
       <r>  -22.2471    1.0000 </r>
       <r>  -22.2289    1.0000 </r>
       <r>  -22.1368    1.0000 </r>
       <r>  -22.0674    1.0000 </r>
       <r>   -0.2306    1.0000 </r>
       <r>    1.1671    1.0000 </r>
       <r>    3.5656    1.0000 </r>
       <r>    3.6297    1.0000 </r>
       <r>    4.4300    1.0000 </r>
       <r>    5.6499    1.0000 </r>
       <r>    6.6396    1.0000 </r>
       <r>    6.9132    1.0000 </r>
       <r>    7.5978    1.0000 </r>
       <r>    7.8178    1.0000 </r>
       <r>    8.0653    1.0000 </r>
       <r>    8.4652    1.0000 </r>
       <r>    8.5516    1.0000 </r>
       <r>    9.1061    1.0000 </r>
       <r>    9.1594    1.0000 </r>
       <r>    9.3476    1.0000 </r>
       <r>    9.8411    1.0000 </r>
       <r>    9.9906    1.0000 </r>
       <r>   10.0375    1.0000 </r>
       <r>   10.2071    1.0000 </r>
       <r>   11.2478    1.0000 </r>
       <r>   11.5132    1.0000 </r>
       <r>   11.6137    1.0000 </r>
       <r>   12.4014    1.0000 </r>
       <r>   12.7526    1.0000 </r>
       <r>   12.9840    1.0000 </r>
       <r>   13.2181    1.0000 </r>
       <r>   13.3718    0.9986 </r>
       <r>   13.4204    0.3302 </r>
       <r>   14.0884    0.0000 </r>
       <r>   14.2712    0.0000 </r>
       <r>   14.6341    0.0000 </r>
       <r>   15.0255    0.0000 </r>
       <r>   15.2655    0.0000 </r>
       <r>   15.4873    0.0000 </r>
       <r>   15.8217    0.0000 </r>
       <r>   16.1575    0.0000 </r>
       <r>   16.4763    0.0000 </r>
       <r>   16.5946    0.0000 </r>
       <r>   16.7433    0.0000 </r>
       <r>   17.4862    0.0000 </r>
       <r>   17.7505    0.0000 </r>
      </set>
      <set comment="kpoint 8">
       <r>  -49.3336    1.0000 </r>
       <r>  -49.2998    1.0000 </r>
       <r>  -49.1740    1.0000 </r>
       <r>  -49.1609    1.0000 </r>
       <r>  -49.1560    1.0000 </r>
       <r>  -49.1353    1.0000 </r>
       <r>  -23.4938    1.0000 </r>
       <r>  -23.4676    1.0000 </r>
       <r>  -23.4122    1.0000 </r>
       <r>  -23.3181    1.0000 </r>
       <r>  -23.0613    1.0000 </r>
       <r>  -22.9965    1.0000 </r>
       <r>  -22.9077    1.0000 </r>
       <r>  -22.8866    1.0000 </r>
       <r>  -22.8460    1.0000 </r>
       <r>  -22.7845    1.0000 </r>
       <r>  -22.7134    1.0000 </r>
       <r>  -22.6300    1.0000 </r>
       <r>  -22.5874    1.0000 </r>
       <r>  -22.4450    1.0000 </r>
       <r>  -22.2631    1.0000 </r>
       <r>  -22.2383    1.0000 </r>
       <r>  -22.1177    1.0000 </r>
       <r>  -22.1143    1.0000 </r>
       <r>    0.3392    1.0000 </r>
       <r>    1.0149    1.0000 </r>
       <r>    3.2557    1.0000 </r>
       <r>    3.6728    1.0000 </r>
       <r>    4.2633    1.0000 </r>
       <r>    4.8982    1.0000 </r>
       <r>    6.8532    1.0000 </r>
       <r>    7.4092    1.0000 </r>
       <r>    7.5935    1.0000 </r>
       <r>    7.9738    1.0000 </r>
       <r>    8.4583    1.0000 </r>
       <r>    8.6845    1.0000 </r>
       <r>    8.9834    1.0000 </r>
       <r>    9.0475    1.0000 </r>
       <r>    9.3557    1.0000 </r>
       <r>    9.4018    1.0000 </r>
       <r>    9.7870    1.0000 </r>
       <r>    9.9801    1.0000 </r>
       <r>   10.4485    1.0000 </r>
       <r>   10.4974    1.0000 </r>
       <r>   10.5904    1.0000 </r>
       <r>   11.0968    1.0000 </r>
       <r>   11.8481    1.0000 </r>
       <r>   12.1916    1.0000 </r>
       <r>   12.4374    1.0000 </r>
       <r>   12.6679    1.0000 </r>
       <r>   12.9207    1.0000 </r>
       <r>   13.3456    1.0000 </r>
       <r>   13.7567    0.0000 </r>
       <r>   14.0451    0.0000 </r>
       <r>   14.1891    0.0000 </r>
       <r>   14.4334    0.0000 </r>
       <r>   14.7058    0.0000 </r>
       <r>   15.1013    0.0000 </r>
       <r>   15.3469    0.0000 </r>
       <r>   15.4586    0.0000 </r>
       <r>   16.0117    0.0000 </r>
       <r>   16.3802    0.0000 </r>
       <r>   16.5845    0.0000 </r>
       <r>   16.8070    0.0000 </r>
       <r>   17.1013    0.0000 </r>
       <r>   17.2534    0.0000 </r>
      </set>
      <set comment="kpoint 9">
       <r>  -49.3294    1.0000 </r>
       <r>  -49.3022    1.0000 </r>
       <r>  -49.1787    1.0000 </r>
       <r>  -49.1603    1.0000 </r>
       <r>  -49.1492    1.0000 </r>
       <r>  -49.1398    1.0000 </r>
       <r>  -23.5159    1.0000 </r>
       <r>  -23.4508    1.0000 </r>
       <r>  -23.3881    1.0000 </r>
       <r>  -23.3300    1.0000 </r>
       <r>  -23.0524    1.0000 </r>
       <r>  -22.9880    1.0000 </r>
       <r>  -22.9050    1.0000 </r>
       <r>  -22.8831    1.0000 </r>
       <r>  -22.8064    1.0000 </r>
       <r>  -22.7727    1.0000 </r>
       <r>  -22.7040    1.0000 </r>
       <r>  -22.6952    1.0000 </r>
       <r>  -22.5361    1.0000 </r>
       <r>  -22.5215    1.0000 </r>
       <r>  -22.2688    1.0000 </r>
       <r>  -22.2363    1.0000 </r>
       <r>  -22.1463    1.0000 </r>
       <r>  -22.0869    1.0000 </r>
       <r>    0.4985    1.0000 </r>
       <r>    0.8949    1.0000 </r>
       <r>    3.2049    1.0000 </r>
       <r>    3.6598    1.0000 </r>
       <r>    4.4804    1.0000 </r>
       <r>    4.6006    1.0000 </r>
       <r>    7.0958    1.0000 </r>
       <r>    7.3391    1.0000 </r>
       <r>    7.5082    1.0000 </r>
       <r>    8.0412    1.0000 </r>
       <r>    8.5214    1.0000 </r>
       <r>    8.7261    1.0000 </r>
       <r>    8.9909    1.0000 </r>
       <r>    9.0990    1.0000 </r>
       <r>    9.1763    1.0000 </r>
       <r>    9.3863    1.0000 </r>
       <r>    9.6840    1.0000 </r>
       <r>    9.9471    1.0000 </r>
       <r>   10.4339    1.0000 </r>
       <r>   10.7237    1.0000 </r>
       <r>   10.8112    1.0000 </r>
       <r>   10.9670    1.0000 </r>
       <r>   11.7895    1.0000 </r>
       <r>   12.1210    1.0000 </r>
       <r>   12.5188    1.0000 </r>
       <r>   12.7849    1.0000 </r>
       <r>   12.9780    1.0000 </r>
       <r>   13.0693    1.0000 </r>
       <r>   13.8838    0.0000 </r>
       <r>   13.9381    0.0000 </r>
       <r>   14.0993    0.0000 </r>
       <r>   14.4079    0.0000 </r>
       <r>   14.8605    0.0000 </r>
       <r>   15.0644    0.0000 </r>
       <r>   15.2079    0.0000 </r>
       <r>   15.4303    0.0000 </r>
       <r>   15.5650    0.0000 </r>
       <r>   16.7967    0.0000 </r>
       <r>   16.9462    0.0000 </r>
       <r>   16.9674    0.0000 </r>
       <r>   17.0591    0.0000 </r>
       <r>   17.2117    0.0000 </r>
      </set>
      <set comment="kpoint 10">
       <r>  -49.3593    1.0000 </r>
       <r>  -49.2774    1.0000 </r>
       <r>  -49.1894    1.0000 </r>
       <r>  -49.1632    1.0000 </r>
       <r>  -49.1448    1.0000 </r>
       <r>  -49.1248    1.0000 </r>
       <r>  -23.5726    1.0000 </r>
       <r>  -23.4694    1.0000 </r>
       <r>  -23.4182    1.0000 </r>
       <r>  -23.3009    1.0000 </r>
       <r>  -23.1922    1.0000 </r>
       <r>  -23.1289    1.0000 </r>
       <r>  -22.9810    1.0000 </r>
       <r>  -22.8913    1.0000 </r>
       <r>  -22.7637    1.0000 </r>
       <r>  -22.7211    1.0000 </r>
       <r>  -22.5959    1.0000 </r>
       <r>  -22.5836    1.0000 </r>
       <r>  -22.4842    1.0000 </r>
       <r>  -22.4551    1.0000 </r>
       <r>  -22.2634    1.0000 </r>
       <r>  -22.2267    1.0000 </r>
       <r>  -22.1622    1.0000 </r>
       <r>  -22.0448    1.0000 </r>
       <r>   -0.0968    1.0000 </r>
       <r>    1.1666    1.0000 </r>
       <r>    3.1869    1.0000 </r>
       <r>    3.7626    1.0000 </r>
       <r>    4.7738    1.0000 </r>
       <r>    5.1382    1.0000 </r>
       <r>    6.9288    1.0000 </r>
       <r>    7.2016    1.0000 </r>
       <r>    7.3122    1.0000 </r>
       <r>    7.9441    1.0000 </r>
       <r>    8.0997    1.0000 </r>
       <r>    8.3085    1.0000 </r>
       <r>    8.6295    1.0000 </r>
       <r>    8.9728    1.0000 </r>
       <r>    9.0160    1.0000 </r>
       <r>    9.4582    1.0000 </r>
       <r>    9.9284    1.0000 </r>
       <r>    9.9537    1.0000 </r>
       <r>   10.2965    1.0000 </r>
       <r>   10.3982    1.0000 </r>
       <r>   11.0754    1.0000 </r>
       <r>   11.5546    1.0000 </r>
       <r>   11.6611    1.0000 </r>
       <r>   12.3423    1.0000 </r>
       <r>   12.7881    1.0000 </r>
       <r>   12.9631    1.0000 </r>
       <r>   13.0193    1.0000 </r>
       <r>   13.4342    0.0776 </r>
       <r>   13.4427    0.0219 </r>
       <r>   14.0240    0.0000 </r>
       <r>   14.4039    0.0000 </r>
       <r>   14.4239    0.0000 </r>
       <r>   15.0427    0.0000 </r>
       <r>   15.3549    0.0000 </r>
       <r>   15.4293    0.0000 </r>
       <r>   15.5400    0.0000 </r>
       <r>   15.8171    0.0000 </r>
       <r>   16.6416    0.0000 </r>
       <r>   16.8599    0.0000 </r>
       <r>   17.0107    0.0000 </r>
       <r>   17.2401    0.0000 </r>
       <r>   18.0151    0.0000 </r>
      </set>
      <set comment="kpoint 11">
       <r>  -49.3832    1.0000 </r>
       <r>  -49.2658    1.0000 </r>
       <r>  -49.1888    1.0000 </r>
       <r>  -49.1751    1.0000 </r>
       <r>  -49.1307    1.0000 </r>
       <r>  -49.1143    1.0000 </r>
       <r>  -23.6210    1.0000 </r>
       <r>  -23.5422    1.0000 </r>
       <r>  -23.3971    1.0000 </r>
       <r>  -23.3479    1.0000 </r>
       <r>  -23.2974    1.0000 </r>
       <r>  -23.2565    1.0000 </r>
       <r>  -23.0059    1.0000 </r>
       <r>  -22.9572    1.0000 </r>
       <r>  -22.7089    1.0000 </r>
       <r>  -22.6445    1.0000 </r>
       <r>  -22.6014    1.0000 </r>
       <r>  -22.5083    1.0000 </r>
       <r>  -22.3770    1.0000 </r>
       <r>  -22.3181    1.0000 </r>
       <r>  -22.2438    1.0000 </r>
       <r>  -22.2138    1.0000 </r>
       <r>  -22.1637    1.0000 </r>
       <r>  -22.0009    1.0000 </r>
       <r>   -0.5729    1.0000 </r>
       <r>    1.0972    1.0000 </r>
       <r>    3.1989    1.0000 </r>
       <r>    4.2435    1.0000 </r>
       <r>    5.2000    1.0000 </r>
       <r>    5.9295    1.0000 </r>
       <r>    6.6672    1.0000 </r>
       <r>    6.9390    1.0000 </r>
       <r>    7.0890    1.0000 </r>
       <r>    7.3441    1.0000 </r>
       <r>    7.7278    1.0000 </r>
       <r>    7.8133    1.0000 </r>
       <r>    8.4214    1.0000 </r>
       <r>    8.8268    1.0000 </r>
       <r>    9.0656    1.0000 </r>
       <r>    9.2202    1.0000 </r>
       <r>    9.6575    1.0000 </r>
       <r>    9.9880    1.0000 </r>
       <r>   10.2555    1.0000 </r>
       <r>   10.5927    1.0000 </r>
       <r>   10.5993    1.0000 </r>
       <r>   12.2115    1.0000 </r>
       <r>   12.3604    1.0000 </r>
       <r>   12.5934    1.0000 </r>
       <r>   12.6608    1.0000 </r>
       <r>   13.0001    1.0000 </r>
       <r>   13.1906    1.0000 </r>
       <r>   13.4313    0.1119 </r>
       <r>   13.6467    0.0000 </r>
       <r>   14.0054    0.0000 </r>
       <r>   14.6317    0.0000 </r>
       <r>   15.0583    0.0000 </r>
       <r>   15.2745    0.0000 </r>
       <r>   15.8320    0.0000 </r>
       <r>   15.9474    0.0000 </r>
       <r>   16.0216    0.0000 </r>
       <r>   16.0893    0.0000 </r>
       <r>   16.5774    0.0000 </r>
       <r>   16.8108    0.0000 </r>
       <r>   16.8799    0.0000 </r>
       <r>   17.0918    0.0000 </r>
       <r>   17.8957    0.0000 </r>
      </set>
      <set comment="kpoint 12">
       <r>  -49.3970    1.0000 </r>
       <r>  -49.2638    1.0000 </r>
       <r>  -49.1827    1.0000 </r>
       <r>  -49.1827    1.0000 </r>
       <r>  -49.1206    1.0000 </r>
       <r>  -49.1102    1.0000 </r>
       <r>  -23.6396    1.0000 </r>
       <r>  -23.5972    1.0000 </r>
       <r>  -23.3996    1.0000 </r>
       <r>  -23.3817    1.0000 </r>
       <r>  -23.3616    1.0000 </r>
       <r>  -23.3268    1.0000 </r>
       <r>  -23.0092    1.0000 </r>
       <r>  -22.9882    1.0000 </r>
       <r>  -22.6758    1.0000 </r>
       <r>  -22.6733    1.0000 </r>
       <r>  -22.5305    1.0000 </r>
       <r>  -22.4840    1.0000 </r>
       <r>  -22.3306    1.0000 </r>
       <r>  -22.2291    1.0000 </r>
       <r>  -22.2112    1.0000 </r>
       <r>  -22.2026    1.0000 </r>
       <r>  -22.1518    1.0000 </r>
       <r>  -21.9743    1.0000 </r>
       <r>   -0.8435    1.0000 </r>
       <r>    0.9642    1.0000 </r>
       <r>    3.2555    1.0000 </r>
       <r>    4.7756    1.0000 </r>
       <r>    5.5319    1.0000 </r>
       <r>    6.5283    1.0000 </r>
       <r>    6.5614    1.0000 </r>
       <r>    6.6689    1.0000 </r>
       <r>    6.8848    1.0000 </r>
       <r>    7.0387    1.0000 </r>
       <r>    7.3970    1.0000 </r>
       <r>    7.4965    1.0000 </r>
       <r>    8.2582    1.0000 </r>
       <r>    8.6882    1.0000 </r>
       <r>    8.7767    1.0000 </r>
       <r>    9.1817    1.0000 </r>
       <r>    9.4344    1.0000 </r>
       <r>    9.9099    1.0000 </r>
       <r>   10.1194    1.0000 </r>
       <r>   10.6461    1.0000 </r>
       <r>   10.7943    1.0000 </r>
       <r>   12.2522    1.0000 </r>
       <r>   12.6482    1.0000 </r>
       <r>   12.7466    1.0000 </r>
       <r>   12.8430    1.0000 </r>
       <r>   13.0736    1.0000 </r>
       <r>   13.2868    1.0000 </r>
       <r>   13.4279    0.1656 </r>
       <r>   14.0289    0.0000 </r>
       <r>   14.1451    0.0000 </r>
       <r>   15.0620    0.0000 </r>
       <r>   15.0858    0.0000 </r>
       <r>   15.6460    0.0000 </r>
       <r>   15.7644    0.0000 </r>
       <r>   16.1114    0.0000 </r>
       <r>   16.5109    0.0000 </r>
       <r>   16.5527    0.0000 </r>
       <r>   16.6483    0.0000 </r>
       <r>   16.7539    0.0000 </r>
       <r>   16.8428    0.0000 </r>
       <r>   16.9204    0.0000 </r>
       <r>   17.8272    0.0000 </r>
      </set>
      <set comment="kpoint 13">
       <r>  -49.3392    1.0000 </r>
       <r>  -49.2902    1.0000 </r>
       <r>  -49.1826    1.0000 </r>
       <r>  -49.1607    1.0000 </r>
       <r>  -49.1569    1.0000 </r>
       <r>  -49.1300    1.0000 </r>
       <r>  -23.4830    1.0000 </r>
       <r>  -23.4565    1.0000 </r>
       <r>  -23.4355    1.0000 </r>
       <r>  -23.2488    1.0000 </r>
       <r>  -23.1602    1.0000 </r>
       <r>  -23.0001    1.0000 </r>
       <r>  -22.9306    1.0000 </r>
       <r>  -22.9138    1.0000 </r>
       <r>  -22.8573    1.0000 </r>
       <r>  -22.7065    1.0000 </r>
       <r>  -22.7053    1.0000 </r>
       <r>  -22.6624    1.0000 </r>
       <r>  -22.5138    1.0000 </r>
       <r>  -22.4079    1.0000 </r>
       <r>  -22.3113    1.0000 </r>
       <r>  -22.2550    1.0000 </r>
       <r>  -22.1180    1.0000 </r>
       <r>  -22.1175    1.0000 </r>
       <r>    0.2329    1.0000 </r>
       <r>    1.2306    1.0000 </r>
       <r>    2.9440    1.0000 </r>
       <r>    3.5930    1.0000 </r>
       <r>    4.4413    1.0000 </r>
       <r>    5.8655    1.0000 </r>
       <r>    5.9281    1.0000 </r>
       <r>    7.1068    1.0000 </r>
       <r>    7.5273    1.0000 </r>
       <r>    8.1023    1.0000 </r>
       <r>    8.6146    1.0000 </r>
       <r>    8.6206    1.0000 </r>
       <r>    8.8844    1.0000 </r>
       <r>    9.0149    1.0000 </r>
       <r>    9.2038    1.0000 </r>
       <r>    9.4494    1.0000 </r>
       <r>   10.1520    1.0000 </r>
       <r>   10.2262    1.0000 </r>
       <r>   10.2833    1.0000 </r>
       <r>   10.3609    1.0000 </r>
       <r>   10.6994    1.0000 </r>
       <r>   11.3013    1.0000 </r>
       <r>   11.5859    1.0000 </r>
       <r>   12.2379    1.0000 </r>
       <r>   12.5297    1.0000 </r>
       <r>   12.7897    1.0000 </r>
       <r>   12.8418    1.0000 </r>
       <r>   13.6167    0.0000 </r>
       <r>   13.6903    0.0000 </r>
       <r>   13.8547    0.0000 </r>
       <r>   14.2406    0.0000 </r>
       <r>   14.3115    0.0000 </r>
       <r>   14.6508    0.0000 </r>
       <r>   15.3954    0.0000 </r>
       <r>   15.6599    0.0000 </r>
       <r>   15.7165    0.0000 </r>
       <r>   15.9855    0.0000 </r>
       <r>   16.0554    0.0000 </r>
       <r>   16.3724    0.0000 </r>
       <r>   16.4649    0.0000 </r>
       <r>   17.0152    0.0000 </r>
       <r>   17.3846    0.0000 </r>
      </set>
      <set comment="kpoint 14">
       <r>  -49.3104    1.0000 </r>
       <r>  -49.3102    1.0000 </r>
       <r>  -49.1794    1.0000 </r>
       <r>  -49.1786    1.0000 </r>
       <r>  -49.1414    1.0000 </r>
       <r>  -49.1400    1.0000 </r>
       <r>  -23.5097    1.0000 </r>
       <r>  -23.4164    1.0000 </r>
       <r>  -23.3621    1.0000 </r>
       <r>  -23.2534    1.0000 </r>
       <r>  -23.0722    1.0000 </r>
       <r>  -23.0198    1.0000 </r>
       <r>  -22.8923    1.0000 </r>
       <r>  -22.8848    1.0000 </r>
       <r>  -22.8096    1.0000 </r>
       <r>  -22.7561    1.0000 </r>
       <r>  -22.7076    1.0000 </r>
       <r>  -22.6783    1.0000 </r>
       <r>  -22.5994    1.0000 </r>
       <r>  -22.4697    1.0000 </r>
       <r>  -22.3524    1.0000 </r>
       <r>  -22.2672    1.0000 </r>
       <r>  -22.1635    1.0000 </r>
       <r>  -22.0905    1.0000 </r>
       <r>    0.7813    1.0000 </r>
       <r>    1.0327    1.0000 </r>
       <r>    2.5336    1.0000 </r>
       <r>    3.5464    1.0000 </r>
       <r>    4.6799    1.0000 </r>
       <r>    5.2900    1.0000 </r>
       <r>    6.2973    1.0000 </r>
       <r>    7.2250    1.0000 </r>
       <r>    7.4019    1.0000 </r>
       <r>    8.1438    1.0000 </r>
       <r>    8.4622    1.0000 </r>
       <r>    8.5161    1.0000 </r>
       <r>    9.1421    1.0000 </r>
       <r>    9.3818    1.0000 </r>
       <r>    9.5697    1.0000 </r>
       <r>    9.6273    1.0000 </r>
       <r>    9.7030    1.0000 </r>
       <r>   10.1372    1.0000 </r>
       <r>   10.3846    1.0000 </r>
       <r>   10.5870    1.0000 </r>
[...]
       <r>   10.3119    1.0000 </r>
       <r>   10.3368    1.0000 </r>
       <r>   11.2668    1.0000 </r>
       <r>   11.3062    1.0000 </r>
       <r>   11.4847    1.0000 </r>
       <r>   12.2905    1.0000 </r>
       <r>   12.8096    1.0000 </r>
       <r>   12.8314    1.0000 </r>
       <r>   13.1744    1.0000 </r>
       <r>   13.4226    0.2741 </r>
       <r>   13.5037    0.0000 </r>
       <r>   14.1186    0.0000 </r>
       <r>   14.1821    0.0000 </r>
       <r>   14.2574    0.0000 </r>
       <r>   14.9793    0.0000 </r>
       <r>   15.1910    0.0000 </r>
       <r>   15.4737    0.0000 </r>
       <r>   15.6562    0.0000 </r>
       <r>   15.7654    0.0000 </r>
       <r>   16.4250    0.0000 </r>
       <r>   16.5844    0.0000 </r>
       <r>   16.8341    0.0000 </r>
       <r>   17.2836    0.0000 </r>
       <r>   17.4866    0.0000 </r>
      </set>
      <set comment="kpoint 165">
       <r>  -49.3522    1.0000 </r>
       <r>  -49.2764    1.0000 </r>
       <r>  -49.1830    1.0000 </r>
       <r>  -49.1708    1.0000 </r>
       <r>  -49.1589    1.0000 </r>
       <r>  -49.1179    1.0000 </r>
       <r>  -23.6027    1.0000 </r>
       <r>  -23.3969    1.0000 </r>
       <r>  -23.3783    1.0000 </r>
       <r>  -23.3114    1.0000 </r>
       <r>  -23.1985    1.0000 </r>
       <r>  -23.0669    1.0000 </r>
       <r>  -22.9647    1.0000 </r>
       <r>  -22.8610    1.0000 </r>
       <r>  -22.8229    1.0000 </r>
       <r>  -22.6786    1.0000 </r>
       <r>  -22.6716    1.0000 </r>
       <r>  -22.5354    1.0000 </r>
       <r>  -22.4824    1.0000 </r>
       <r>  -22.4653    1.0000 </r>
       <r>  -22.3535    1.0000 </r>
       <r>  -22.2811    1.0000 </r>
       <r>  -22.1666    1.0000 </r>
       <r>  -22.0343    1.0000 </r>
       <r>    0.1107    1.0000 </r>
       <r>    1.3426    1.0000 </r>
       <r>    2.7349    1.0000 </r>
       <r>    3.3937    1.0000 </r>
       <r>    4.9937    1.0000 </r>
       <r>    6.1242    1.0000 </r>
       <r>    6.2772    1.0000 </r>
       <r>    6.8085    1.0000 </r>
       <r>    6.9040    1.0000 </r>
       <r>    8.1082    1.0000 </r>
       <r>    8.3270    1.0000 </r>
       <r>    8.6192    1.0000 </r>
       <r>    8.8299    1.0000 </r>
       <r>    8.8886    1.0000 </r>
       <r>    9.0349    1.0000 </r>
       <r>    9.2388    1.0000 </r>
       <r>   10.1478    1.0000 </r>
       <r>   10.1634    1.0000 </r>
       <r>   10.4028    1.0000 </r>
       <r>   10.5887    1.0000 </r>
       <r>   11.0878    1.0000 </r>
       <r>   11.5985    1.0000 </r>
       <r>   11.8105    1.0000 </r>
       <r>   12.1518    1.0000 </r>
       <r>   12.7062    1.0000 </r>
       <r>   12.9499    1.0000 </r>
       <r>   13.2033    1.0000 </r>
       <r>   13.2188    1.0000 </r>
       <r>   13.7241    0.0000 </r>
       <r>   13.7542    0.0000 </r>
       <r>   14.2740    0.0000 </r>
       <r>   14.3278    0.0000 </r>
       <r>   15.0811    0.0000 </r>
       <r>   15.1525    0.0000 </r>
       <r>   15.1733    0.0000 </r>
       <r>   15.5898    0.0000 </r>
       <r>   15.9477    0.0000 </r>
       <r>   16.2593    0.0000 </r>
       <r>   16.5538    0.0000 </r>
       <r>   17.0018    0.0000 </r>
       <r>   17.1284    0.0000 </r>
       <r>   17.9308    0.0000 </r>
      </set>
     </set>
    </set>
   </array>
  </eigenvalues>
  <separator name="orbital magnetization" >
   <v name="MAGDIPOLOUT">      0.00000000      0.00000000      0.00000000</v>
  </separator>
  <dos>
   <i name="efermi">     13.41414204 </i>
   <total>
    <array>
     <dimension dim="1">gridpoints</dimension>
     <dimension dim="2">spin</dimension>
     <field>energy</field>
     <field>total</field>
     <field>integrated</field>
     <set>
      <set comment="spin 1">
       <r>   -52.8322     0.0000     0.0000 </r>
       <r>   -52.5809     0.0000     0.0000 </r>
       <r>   -52.3295     0.0000     0.0000 </r>
       <r>   -52.0782     0.0000     0.0000 </r>
       <r>   -51.8269     0.0000     0.0000 </r>
       <r>   -51.5755     0.0000     0.0000 </r>
       <r>   -51.3242     0.0000     0.0000 </r>
       <r>   -51.0728     0.0000     0.0000 </r>
       <r>   -50.8215     0.0000     0.0000 </r>
       <r>   -50.5701     0.0000     0.0000 </r>
       <r>   -50.3188     0.0000     0.0000 </r>
       <r>   -50.0674     0.0000     0.0000 </r>
       <r>   -49.8161     0.0000     0.0000 </r>
       <r>   -49.5648     0.0000     0.0000 </r>
       <r>   -49.3134     6.8657     1.7257 </r>
       <r>   -49.0621    31.1930    11.9999 </r>
       <r>   -48.8107     0.0000    12.0000 </r>
       <r>   -48.5594     0.0000    12.0000 </r>
       <r>   -48.3080     0.0000    12.0000 </r>
       <r>   -48.0567     0.0000    12.0000 </r>
       <r>   -47.8053     0.0000    12.0000 </r>
       <r>   -47.5540     0.0000    12.0000 </r>
       <r>   -47.3026     0.0000    12.0000 </r>
       <r>   -47.0513     0.0000    12.0000 </r>
       <r>   -46.8000     0.0000    12.0000 </r>
       <r>   -46.5486     0.0000    12.0000 </r>
       <r>   -46.2973     0.0000    12.0000 </r>
       <r>   -46.0459     0.0000    12.0000 </r>
       <r>   -45.7946     0.0000    12.0000 </r>
       <r>   -45.5432     0.0000    12.0000 </r>
       <r>   -45.2919     0.0000    12.0000 </r>
       <r>   -45.0405     0.0000    12.0000 </r>
       <r>   -44.7892     0.0000    12.0000 </r>
       <r>   -44.5378     0.0000    12.0000 </r>
       <r>   -44.2865     0.0000    12.0000 </r>
       <r>   -44.0352     0.0000    12.0000 </r>
       <r>   -43.7838     0.0000    12.0000 </r>
       <r>   -43.5325     0.0000    12.0000 </r>
       <r>   -43.2811     0.0000    12.0000 </r>
       <r>   -43.0298     0.0000    12.0000 </r>
       <r>   -42.7784     0.0000    12.0000 </r>
       <r>   -42.5271     0.0000    12.0000 </r>
       <r>   -42.2757     0.0000    12.0000 </r>
       <r>   -42.0244     0.0000    12.0000 </r>
       <r>   -41.7731     0.0000    12.0000 </r>
       <r>   -41.5217     0.0000    12.0000 </r>
       <r>   -41.2704     0.0000    12.0000 </r>
       <r>   -41.0190     0.0000    12.0000 </r>
       <r>   -40.7677     0.0000    12.0000 </r>
       <r>   -40.5163     0.0000    12.0000 </r>
       <r>   -40.2650     0.0000    12.0000 </r>
       <r>   -40.0136     0.0000    12.0000 </r>
       <r>   -39.7623     0.0000    12.0000 </r>
       <r>   -39.5109     0.0000    12.0000 </r>
       <r>   -39.2596     0.0000    12.0000 </r>
       <r>   -39.0083     0.0000    12.0000 </r>
       <r>   -38.7569     0.0000    12.0000 </r>
       <r>   -38.5056     0.0000    12.0000 </r>
       <r>   -38.2542     0.0000    12.0000 </r>
       <r>   -38.0029     0.0000    12.0000 </r>
       <r>   -37.7515     0.0000    12.0000 </r>
       <r>   -37.5002     0.0000    12.0000 </r>
       <r>   -37.2488     0.0000    12.0000 </r>
       <r>   -36.9975     0.0000    12.0000 </r>
       <r>   -36.7461     0.0000    12.0000 </r>
       <r>   -36.4948     0.0000    12.0000 </r>
       <r>   -36.2435     0.0000    12.0000 </r>
       <r>   -35.9921     0.0000    12.0000 </r>
       <r>   -35.7408     0.0000    12.0000 </r>
       <r>   -35.4894     0.0000    12.0000 </r>
       <r>   -35.2381     0.0000    12.0000 </r>
       <r>   -34.9867     0.0000    12.0000 </r>
       <r>   -34.7354     0.0000    12.0000 </r>
       <r>   -34.4840     0.0000    12.0000 </r>
       <r>   -34.2327     0.0000    12.0000 </r>
       <r>   -33.9814     0.0000    12.0000 </r>
       <r>   -33.7300     0.0000    12.0000 </r>
       <r>   -33.4787     0.0000    12.0000 </r>
       <r>   -33.2273     0.0000    12.0000 </r>
       <r>   -32.9760     0.0000    12.0000 </r>
       <r>   -32.7246     0.0000    12.0000 </r>
       <r>   -32.4733     0.0000    12.0000 </r>
       <r>   -32.2219     0.0000    12.0000 </r>
       <r>   -31.9706     0.0000    12.0000 </r>
       <r>   -31.7192     0.0000    12.0000 </r>
       <r>   -31.4679     0.0000    12.0000 </r>
       <r>   -31.2166     0.0000    12.0000 </r>
       <r>   -30.9652     0.0000    12.0000 </r>
       <r>   -30.7139     0.0000    12.0000 </r>
       <r>   -30.4625     0.0000    12.0000 </r>
       <r>   -30.2112     0.0000    12.0000 </r>
       <r>   -29.9598     0.0000    12.0000 </r>
       <r>   -29.7085     0.0000    12.0000 </r>
       <r>   -29.4571     0.0000    12.0000 </r>
       <r>   -29.2058     0.0000    12.0000 </r>
       <r>   -28.9544     0.0000    12.0000 </r>
       <r>   -28.7031     0.0000    12.0000 </r>
       <r>   -28.4518     0.0000    12.0000 </r>
       <r>   -28.2004     0.0000    12.0000 </r>
       <r>   -27.9491     0.0000    12.0000 </r>
       <r>   -27.6977     0.0000    12.0000 </r>
       <r>   -27.4464     0.0000    12.0000 </r>
       <r>   -27.1950     0.0000    12.0000 </r>
       <r>   -26.9437     0.0000    12.0000 </r>
       <r>   -26.6923     0.0000    12.0000 </r>
       <r>   -26.4410     0.0000    12.0000 </r>
       <r>   -26.1897     0.0000    12.0000 </r>
       <r>   -25.9383     0.0000    12.0000 </r>
       <r>   -25.6870     0.0000    12.0000 </r>
       <r>   -25.4356     0.0000    12.0000 </r>
       <r>   -25.1843     0.0000    12.0000 </r>
       <r>   -24.9329     0.0000    12.0000 </r>
       <r>   -24.6816     0.0000    12.0000 </r>
       <r>   -24.4302     0.0000    12.0000 </r>
       <r>   -24.1789     0.0000    12.0000 </r>
       <r>   -23.9275     0.0000    12.0000 </r>
       <r>   -23.6762     0.0022    12.0006 </r>
       <r>   -23.4249     9.5297    14.9473 </r>
       <r>   -23.1735    15.3522    20.8900 </r>
       <r>   -22.9222    16.1387    26.4175 </r>
       <r>   -22.6708    18.5427    33.3967 </r>
       <r>   -22.4195    12.0415    38.9988 </r>
       <r>   -22.1681    19.3831    45.3892 </r>
       <r>   -21.9168     4.1720    48.0000 </r>
       <r>   -21.6654     0.0000    48.0000 </r>
       <r>   -21.4141     0.0000    48.0000 </r>
       <r>   -21.1627     0.0000    48.0000 </r>
       <r>   -20.9114     0.0000    48.0000 </r>
       <r>   -20.6601     0.0000    48.0000 </r>
       <r>   -20.4087     0.0000    48.0000 </r>
       <r>   -20.1574     0.0000    48.0000 </r>
       <r>   -19.9060     0.0000    48.0000 </r>
       <r>   -19.6547     0.0000    48.0000 </r>
       <r>   -19.4033     0.0000    48.0000 </r>
       <r>   -19.1520     0.0000    48.0000 </r>
       <r>   -18.9006     0.0000    48.0000 </r>
       <r>   -18.6493     0.0000    48.0000 </r>
       <r>   -18.3979     0.0000    48.0000 </r>
       <r>   -18.1466     0.0000    48.0000 </r>
       <r>   -17.8953     0.0000    48.0000 </r>
       <r>   -17.6439     0.0000    48.0000 </r>
       <r>   -17.3926     0.0000    48.0000 </r>
       <r>   -17.1412     0.0000    48.0000 </r>
       <r>   -16.8899     0.0000    48.0000 </r>
       <r>   -16.6385     0.0000    48.0000 </r>
       <r>   -16.3872     0.0000    48.0000 </r>
       <r>   -16.1358     0.0000    48.0000 </r>
       <r>   -15.8845     0.0000    48.0000 </r>
       <r>   -15.6332     0.0000    48.0000 </r>
       <r>   -15.3818     0.0000    48.0000 </r>
       <r>   -15.1305     0.0000    48.0000 </r>
       <r>   -14.8791     0.0000    48.0000 </r>
       <r>   -14.6278     0.0000    48.0000 </r>
       <r>   -14.3764     0.0000    48.0000 </r>
       <r>   -14.1251     0.0000    48.0000 </r>
       <r>   -13.8737     0.0000    48.0000 </r>
       <r>   -13.6224     0.0000    48.0000 </r>
       <r>   -13.3710     0.0000    48.0000 </r>
       <r>   -13.1197     0.0000    48.0000 </r>
       <r>   -12.8684     0.0000    48.0000 </r>
       <r>   -12.6170     0.0000    48.0000 </r>
       <r>   -12.3657     0.0000    48.0000 </r>
       <r>   -12.1143     0.0000    48.0000 </r>
       <r>   -11.8630     0.0000    48.0000 </r>
       <r>   -11.6116     0.0000    48.0000 </r>
       <r>   -11.3603     0.0000    48.0000 </r>
       <r>   -11.1089     0.0000    48.0000 </r>
       <r>   -10.8576     0.0000    48.0000 </r>
       <r>   -10.6062     0.0000    48.0000 </r>
       <r>   -10.3549     0.0000    48.0000 </r>
       <r>   -10.1036     0.0000    48.0000 </r>
       <r>    -9.8522     0.0000    48.0000 </r>
       <r>    -9.6009     0.0000    48.0000 </r>
       <r>    -9.3495     0.0000    48.0000 </r>
       <r>    -9.0982     0.0000    48.0000 </r>
       <r>    -8.8468     0.0000    48.0000 </r>
       <r>    -8.5955     0.0000    48.0000 </r>
       <r>    -8.3441     0.0000    48.0000 </r>
       <r>    -8.0928     0.0000    48.0000 </r>
       <r>    -7.8415     0.0000    48.0000 </r>
       <r>    -7.5901     0.0000    48.0000 </r>
       <r>    -7.3388     0.0000    48.0000 </r>
       <r>    -7.0874     0.0000    48.0000 </r>
       <r>    -6.8361     0.0000    48.0000 </r>
       <r>    -6.5847     0.0000    48.0000 </r>
       <r>    -6.3334     0.0000    48.0000 </r>
       <r>    -6.0820     0.0000    48.0000 </r>
       <r>    -5.8307     0.0000    48.0000 </r>
       <r>    -5.5793     0.0000    48.0000 </r>
       <r>    -5.3280     0.0000    48.0000 </r>
       <r>    -5.0767     0.0000    48.0000 </r>
       <r>    -4.8253     0.0000    48.0000 </r>
       <r>    -4.5740     0.0000    48.0000 </r>
       <r>    -4.3226     0.0000    48.0000 </r>
       <r>    -4.0713     0.0000    48.0000 </r>
       <r>    -3.8199     0.0000    48.0000 </r>
       <r>    -3.5686     0.0000    48.0000 </r>
       <r>    -3.3172     0.0000    48.0000 </r>
       <r>    -3.0659     0.0000    48.0000 </r>
       <r>    -2.8145     0.0000    48.0000 </r>
       <r>    -2.5632     0.0000    48.0000 </r>
       <r>    -2.3119     0.0000    48.0000 </r>
       <r>    -2.0605     0.0000    48.0000 </r>
       <r>    -1.8092     0.0000    48.0000 </r>
       <r>    -1.5578     0.0000    48.0000 </r>
       <r>    -1.3065     0.0000    48.0000 </r>
       <r>    -1.0551     0.0000    48.0000 </r>
       <r>    -0.8038     0.1814    48.0491 </r>
       <r>    -0.5524     0.3549    48.1621 </r>
       <r>    -0.3011     0.2917    48.2851 </r>
       <r>    -0.0498     0.4162    48.5039 </r>
       <r>     0.2016     0.5122    48.7294 </r>
       <r>     0.4529     0.7790    49.0604 </r>
       <r>     0.7043     1.0030    49.4569 </r>
       <r>     0.9556     1.9626    50.1009 </r>
       <r>     1.2070     2.8958    51.1897 </r>
       <r>     1.4583     1.0709    51.8629 </r>
       <r>     1.7097     0.1692    52.0113 </r>
       <r>     1.9610     0.2501    52.0941 </r>
       <r>     2.2124     0.3647    52.2132 </r>
       <r>     2.4637     0.5298    52.4005 </r>
       <r>     2.7150     0.6596    52.6693 </r>
       <r>     2.9664     1.1648    53.0185 </r>
       <r>     3.2177     1.5425    53.5787 </r>
       <r>     3.4691     1.2825    54.1591 </r>
       <r>     3.7204     1.8726    54.8492 </r>
       <r>     3.9718     1.3745    55.4323 </r>
       <r>     4.2231     1.3479    55.9812 </r>
       <r>     4.4745     1.2095    56.5644 </r>
       <r>     4.7258     1.1892    56.9968 </r>
       <r>     4.9772     1.3080    57.5822 </r>
       <r>     5.2285     2.5657    58.4400 </r>
       <r>     5.4798     1.3052    59.1058 </r>
       <r>     5.7312     0.7062    59.4692 </r>
       <r>     5.9825     1.1568    59.9331 </r>
       <r>     6.2339     1.6422    60.4891 </r>
       <r>     6.4852     1.8353    61.2495 </r>
       <r>     6.7366     2.3843    62.1514 </r>
       <r>     6.9879     2.9730    63.3271 </r>
       <r>     7.2393     2.3741    64.1939 </r>
       <r>     7.4906     2.5648    65.3217 </r>
       <r>     7.7419     2.7349    66.2812 </r>
       <r>     7.9933     2.9242    67.4260 </r>
       <r>     8.2446     3.1235    68.6878 </r>
       <r>     8.4960     6.2976    70.8884 </r>
       <r>     8.7473     3.8660    72.7530 </r>
       <r>     8.9987     3.6058    74.2535 </r>
       <r>     9.2500     5.4923    76.5818 </r>
       <r>     9.5014     5.3341    78.5560 </r>
       <r>     9.7527     4.5107    80.4115 </r>
       <r>    10.0041     5.5884    82.3282 </r>
       <r>    10.2554     4.6531    84.3570 </r>
       <r>    10.5067     5.0759    86.2411 </r>
       <r>    10.7581     4.2800    88.0619 </r>
       <r>    11.0094     3.3231    89.4776 </r>
       <r>    11.2608     2.7020    90.5888 </r>
       <r>    11.5121     2.3905    91.5696 </r>
       <r>    11.7635     3.9033    92.9811 </r>
       <r>    12.0148     3.9708    94.3244 </r>
       <r>    12.2662     3.9121    95.8618 </r>
       <r>    12.5175     3.9204    97.2319 </r>
       <r>    12.7689     4.7845    99.1505 </r>
       <r>    13.0202     6.0390   101.4484 </r>
       <r>    13.2715     3.5499   103.1006 </r>
       <r>    13.5229     4.0145   104.7000 </r>
       <r>    13.7742     3.9304   106.0469 </r>
       <r>    14.0256     4.1229   107.8661 </r>
       <r>    14.2769     4.2916   109.6585 </r>
       <r>    14.5283     3.4916   111.1797 </r>
       <r>    14.7796     3.4752   112.6096 </r>
       <r>    15.0310     4.0579   114.1519 </r>
       <r>    15.2823     4.0654   115.7440 </r>
       <r>    15.5336     4.6913   117.3319 </r>
       <r>    15.7850     4.0896   119.0036 </r>
       <r>    16.0363     3.9466   120.7211 </r>
       <r>    16.2877     2.8987   122.0931 </r>
       <r>    16.5390     4.7433   123.6193 </r>
       <r>    16.7904     4.4266   125.8313 </r>
       <r>    17.0417     5.0173   127.9347 </r>
       <r>    17.2931     3.6848   129.4991 </r>
       <r>    17.5444     1.7391   130.2982 </r>
       <r>    17.7958     1.4709   130.8558 </r>
       <r>    18.0471     1.1522   131.2722 </r>
       <r>    18.2984     1.2310   131.6879 </r>
       <r>    18.5498     0.1811   131.9066 </r>
       <r>    18.8011     0.0276   131.9722 </r>
       <r>    19.0525     0.0691   131.9931 </r>
       <r>    19.3038     0.0276   132.0000 </r>
       <r>    19.5552     0.0000   132.0000 </r>
       <r>    19.8065     0.0000   132.0000 </r>
       <r>    20.0579     0.0000   132.0000 </r>
       <r>    20.3092     0.0000   132.0000 </r>
       <r>    20.5606     0.0000   132.0000 </r>
       <r>    20.8119     0.0000   132.0000 </r>
       <r>    21.0632     0.0000   132.0000 </r>
       <r>    21.3146     0.0000   132.0000 </r>
       <r>    21.5659     0.0000   132.0000 </r>
       <r>    21.8173     0.0000   132.0000 </r>
       <r>    22.0686     0.0000   132.0000 </r>
       <r>    22.3200     0.0000   132.0000 </r>
       <r>    22.5713     0.0000   132.0000 </r>
      </set>
     </set>
    </array>
   </total>
  </dos>
 </calculation>
 <structure name="finalpos" >
  <crystal>
   <varray name="basis" >
    <v>       4.94000856       0.00000000      -2.61968573 </v>
    <v>      -1.78797941       4.60508569      -2.61968573 </v>
    <v>       0.00000000       0.00000000       5.59164000 </v>
   </varray>
   <i name="volume">    127.20512817 </i>
   <varray name="rec_basis" >
    <v>       0.20242880       0.07859539       0.00000000 </v>
    <v>       0.00000000       0.21715123       0.00000000 </v>
    <v>       0.09483798       0.13855742       0.17883841 </v>
   </varray>
  </crystal>
  <varray name="positions" >
   <v>       0.24512000       0.74512000       0.99024000 </v>
   <v>       0.75488000       0.25488000       0.00976000 </v>
   <v>       0.74512000       0.75488000       0.50000000 </v>
   <v>       0.25488000       0.24512000       0.50000000 </v>
   <v>       0.00000000       0.00000000       0.50000000 </v>
   <v>       0.00000000       0.00000000       0.00000000 </v>
   <v>       0.00000000       0.50000000       0.00000000 </v>
   <v>       0.50000000       0.50000000       0.50000000 </v>
   <v>       0.50000000       0.00000000       0.00000000 </v>
   <v>       0.50000000       0.50000000       0.00000000 </v>
   <v>       0.50000000       0.00000000       0.50000000 </v>
   <v>       0.00000000       0.50000000       0.50000000 </v>
  </varray>
 </structure>
</modeling>
