 vasp.6.2.0 18Jan21 (build Jan 05 2022 15:41:44) complex                        
  
 executed on             LinuxIFC date 2025.05.07  19:02:44
 running on   24 total cores
 distrk:  each k-point on   12 cores,    2 groups
 distr:  one band on NCORE=   2 cores,    6 groups


--------------------------------------------------------------------------------------------------------


 INCAR:
   SYSTEM = routine with relax: pwdword
   ICHARG = 2
   NPAR = 6
   KPAR = 2
   NCORE = 2
   ADDGRID = T
   PREC = Acc
   ENCUT = 600
   METAGGA = R2SCAN
   LASPH = .TRUE.
   LMIXTAU = .FALSE.
   ALGO = A
   EDIFF = 1E-9
   NELM = 100
   NELMIN = 6
   IALGO = 38
   LREAL = F
   NSW = 0
   ISIF = -1
   ISMEAR = 0
   SIGMA = 0.02
   SYMPREC = 1E-4

 POTCAR:    PAW_PBE B 06Sep2000                   
 POTCAR:    PAW_PBE Mo_sv 02Feb2006               
 POTCAR:    PAW_PBE Si 05Jan2001                  
 -----------------------------------------------------------------------------
|                                                                             |
|           W    W    AA    RRRRR   N    N  II  N    N   GGGG   !!!           |
|           W    W   A  A   R    R  NN   N  II  NN   N  G    G  !!!           |
|           W    W  A    A  R    R  N N  N  II  N N  N  G       !!!           |
|           W WW W  AAAAAA  RRRRR   N  N N  II  N  N N  G  GGG   !            |
|           WW  WW  A    A  R   R   N   NN  II  N   NN  G    G                |
|           W    W  A    A  R    R  N    N  II  N    N   GGGG   !!!           |
|                                                                             |
|     For optimal performance we recommend to set                             |
|       NCORE = 2 up to number-of-cores-per-socket                            |
|     NCORE specifies how many cores store one orbital (NPAR=cpu/NCORE).      |
|     This setting can greatly improve the performance of VASP for DFT.       |
|     The default, NCORE=1 might be grossly inefficient on modern             |
|     multi-core architectures or massively parallel machines. Do your        |
|     own testing! More info at https://www.vasp.at/wiki/index.php/NCORE      |
|     Unfortunately you need to use the default for GW and RPA                |
|     calculations (for HF NCORE is supported but not extensively tested      |
|     yet).                                                                   |
|                                                                             |
 -----------------------------------------------------------------------------

 POTCAR:    PAW_PBE B 06Sep2000                   
   VRHFIN =B: s2p1                                                                                  
   LEXCH  = PE                                                                                      
   EATOM  =    71.1703 eV,    5.2309 Ry                                                             
                                                                                                    
   TITEL  = PAW_PBE B 06Sep2000                                                                     
   LULTRA =        F    use ultrasoft PP ?                                                          
   IUNSCR =        1    unscreen: 0-lin 1-nonlin 2-no                                               
   RPACOR =    1.200    partial core radius                                                         
   POMASS =   10.811; ZVAL   =    3.000    mass and valenz                                          
   RCORE  =    1.700    outmost cutoff radius                                                       
   RWIGS  =    1.710; RWIGS  =    0.905    wigner-seitz radius (au A)                               
   ENMAX  =  318.614; ENMIN  =  238.960 eV                                                          
   ICORE  =        2    local potential                                                             
   LCOR   =        T    correct aug charges                                                         
   LPAW   =        T    paw PP                                                                      
   EAUG   =  535.514                                                                                
   DEXC   =    0.000                                                                                
   RMAX   =    1.732    core radius for proj-oper                                                   
   RAUG   =    1.300    factor for augmentation sphere                                              
   RDEP   =    1.757    radius for radial grids                                                     
   RDEPT  =    1.436    core radius for aug-charge                                                  
                                                                                                    
   Atomic configuration                                                                             
    4 entries                                                                                       
     n  l   j            E        occ.                                                              
     1  0  0.50      -180.5896   2.0000                                                             
     2  0  0.50        -9.4431   2.0000                                                             
     2  1  0.50        -3.6068   1.0000                                                             
     3  2  1.50        -4.0817   0.0000                                                             
   Description                                                                                      
     l       E           TYP  RCUT    TYP  RCUT                                                     
     0     -9.4430752     23  1.500                                                                 
     0      0.8675899     23  1.500                                                                 
     1     -3.6067955     23  1.700                                                                 
     1      6.1086146     23  1.700                                                                 
     2     -4.0817478      7  1.700                                                                 
  local pseudopotential read in
  partial core-charges read in
  partial kinetic energy density read in
  atomic valenz-charges read in
  non local Contribution for L=           0  read in
    real space projection operators read in
  non local Contribution for L=           0  read in
    real space projection operators read in
  non local Contribution for L=           1  read in
    real space projection operators read in
  non local Contribution for L=           1  read in
    real space projection operators read in
    PAW grid and wavefunctions read in
 
   number of l-projection  operators is LMAX  =           4
   number of lm-projection operators is LMMAX =           8
 
 POTCAR:    PAW_PBE Mo_sv 02Feb2006               
   VRHFIN =Mo: 4p5s4d                                                                               
   LEXCH  = PE                                                                                      
   EATOM  =  1862.2866 eV,  136.8742 Ry                                                             
                                                                                                    
   TITEL  = PAW_PBE Mo_sv 02Feb2006                                                                 
   LULTRA =        F    use ultrasoft PP ?                                                          
   IUNSCR =        1    unscreen: 0-lin 1-nonlin 2-no                                               
   RPACOR =    2.200    partial core radius                                                         
   POMASS =   95.940; ZVAL   =   14.000    mass and valenz                                          
   RCORE  =    2.500    outmost cutoff radius                                                       
   RWIGS  =    2.750; RWIGS  =    1.455    wigner-seitz radius (au A)                               
   ENMAX  =  242.676; ENMIN  =  182.007 eV                                                          
   ICORE  =        3    local potential                                                             
   LCOR   =        T    correct aug charges                                                         
   LPAW   =        T    paw PP                                                                      
   EAUG   =  446.014                                                                                
   DEXC   =    0.000                                                                                
   RMAX   =    2.563    core radius for proj-oper                                                   
   RAUG   =    1.300    factor for augmentation sphere                                              
   RDEP   =    2.641    radius for radial grids                                                     
   RDEPT  =    2.031    core radius for aug-charge                                                  
                                                                                                    
   Atomic configuration                                                                             
   11 entries                                                                                       
     n  l   j            E        occ.                                                              
     1  0  0.50    -19819.0341   2.0000                                                             
     2  0  0.50     -2799.0127   2.0000                                                             
     2  1  1.50     -2502.0276   6.0000                                                             
     3  0  0.50      -476.4449   2.0000                                                             
     3  1  1.50      -379.1496   6.0000                                                             
     3  2  2.50      -220.9367  10.0000                                                             
     4  0  0.50       -64.3378   2.0000                                                             
     5  0  0.50        -4.0862   1.0000                                                             
     4  1  1.50       -38.4773   6.0000                                                             
     4  2  2.50        -3.7535   5.0000                                                             
     4  3  2.50        -1.3606   0.0000                                                             
   Description                                                                                      
     l       E           TYP  RCUT    TYP  RCUT                                                     
     0    -64.3377829     23  2.100                                                                 
     0     -4.0861640     23  2.400                                                                 
     1    -38.4772993     23  2.100                                                                 
     1     13.6058260     23  2.100                                                                 
     2     -3.7534941     23  2.400                                                                 
     2     -5.1140767     23  2.400                                                                 
     3     -4.0817478     23  2.500                                                                 
  local pseudopotential read in
  partial core-charges read in
  partial kinetic energy density read in
  atomic valenz-charges read in
  non local Contribution for L=           0  read in
    real space projection operators read in
  non local Contribution for L=           0  read in
    real space projection operators read in
  non local Contribution for L=           1  read in
    real space projection operators read in
  non local Contribution for L=           1  read in
    real space projection operators read in
  non local Contribution for L=           2  read in
    real space projection operators read in
  non local Contribution for L=           2  read in
    real space projection operators read in
    PAW grid and wavefunctions read in
 
   number of l-projection  operators is LMAX  =           6
   number of lm-projection operators is LMMAX =          18
 
 POTCAR:    PAW_PBE Si 05Jan2001                  
   VRHFIN =Si: s2p2                                                                                 
   LEXCH  = PE                                                                                      
   EATOM  =   103.0669 eV,    7.5752 Ry                                                             
                                                                                                    
   TITEL  = PAW_PBE Si 05Jan2001                                                                    
   LULTRA =        F    use ultrasoft PP ?                                                          
   IUNSCR =        1    unscreen: 0-lin 1-nonlin 2-no                                               
   RPACOR =    1.500    partial core radius                                                         
   POMASS =   28.085; ZVAL   =    4.000    mass and valenz                                          
   RCORE  =    1.900    outmost cutoff radius                                                       
   RWIGS  =    2.480; RWIGS  =    1.312    wigner-seitz radius (au A)                               
   ENMAX  =  245.345; ENMIN  =  184.009 eV                                                          
   ICORE  =        2    local potential                                                             
   LCOR   =        T    correct aug charges                                                         
   LPAW   =        T    paw PP                                                                      
   EAUG   =  322.069                                                                                
   DEXC   =    0.000                                                                                
   RMAX   =    1.950    core radius for proj-oper                                                   
   RAUG   =    1.300    factor for augmentation sphere                                              
   RDEP   =    1.993    radius for radial grids                                                     
   RDEPT  =    1.837    core radius for aug-charge                                                  
                                                                                                    
   Atomic configuration                                                                             
    6 entries                                                                                       
     n  l   j            E        occ.                                                              
     1  0  0.50     -1785.8828   2.0000                                                             
     2  0  0.50      -139.4969   2.0000                                                             
     2  1  1.50       -95.5546   6.0000                                                             
     3  0  0.50       -10.8127   2.0000                                                             
     3  1  0.50        -4.0811   2.0000                                                             
     3  2  1.50        -4.0817   0.0000                                                             
   Description                                                                                      
     l       E           TYP  RCUT    TYP  RCUT                                                     
     0    -10.8127223     23  1.900                                                                 
     0     -7.6451159     23  1.900                                                                 
     1     -4.0811372     23  1.900                                                                 
     1      2.4879257     23  1.900                                                                 
     2     -4.0817478      7  1.900                                                                 
  local pseudopotential read in
  partial core-charges read in
  partial kinetic energy density read in
  atomic valenz-charges read in
  non local Contribution for L=           0  read in
    real space projection operators read in
  non local Contribution for L=           0  read in
    real space projection operators read in
  non local Contribution for L=           1  read in
    real space projection operators read in
  non local Contribution for L=           1  read in
    real space projection operators read in
    PAW grid and wavefunctions read in
 
   number of l-projection  operators is LMAX  =           4
   number of lm-projection operators is LMMAX =           8
 
  PAW_PBE B 06Sep2000                   :
 energy of atom  1       EATOM=  -71.1703
 kinetic energy error for atom=    0.0007 (will be added to EATOM!!)
  PAW_PBE Mo_sv 02Feb2006               :
 energy of atom  2       EATOM=-1862.2866
 kinetic energy error for atom=    0.0041 (will be added to EATOM!!)
  PAW_PBE Si 05Jan2001                  :
 energy of atom  3       EATOM= -103.0669
 kinetic energy error for atom=    0.0003 (will be added to EATOM!!)
 
 
 POSCAR: EA152
  positions in direct lattice
  No initial velocities read in

 METAGGA = R2SCA    LMAXTAU =  6    LMIXTAU =  F

 exchange correlation table for  LEXCH =        8
   RHO(1)=    0.500       N(1)  =     2000
   RHO(2)=  100.500       N(2)  =     4000
 


--------------------------------------------------------------------------------------------------------


 ion  position               nearest neighbor table
   1  0.500  0.000  0.000-   6 1.99   8 1.99  13 1.99  14 1.99   7 1.99   5 1.99
   2  0.000  0.000  0.500-  10 1.99  12 1.99  13 1.99  14 1.99  11 1.99   9 1.99
   3  0.000  0.500  0.000-   6 1.99   8 1.99  13 1.99  14 1.99   7 1.99   5 1.99
   4  0.500  0.500  0.500-  10 1.99  12 1.99  14 1.99  13 1.99  11 1.99   9 1.99
   5  0.231  0.731  0.962-   6 0.13   1 1.99   3 1.99  10 2.73  12 2.73  14 2.82  13 2.82  13 2.82
                            14 2.82  11 2.82   9 2.82  11 2.82   9 2.82  10 2.91  12 2.91
   6  0.247  0.747  0.994-   5 0.13   1 1.99   3 1.99  11 2.73   9 2.73  13 2.81  14 2.81  13 2.81
                            14 2.81  12 2.81  10 2.81  12 2.81  10 2.81   9 2.91  11 2.91
   7  0.769  0.269  0.038-   8 0.13   1 1.99   3 1.99  10 2.73  12 2.73  13 2.82  14 2.82  14 2.82
                            13 2.82   9 2.82  11 2.82  11 2.82   9 2.82  10 2.91  12 2.91
   8  0.753  0.253  0.006-   7 0.13   1 1.99   3 1.99   9 2.73  11 2.73  14 2.81  13 2.81  13 2.81
                            14 2.81  10 2.81  12 2.81  10 2.81  12 2.81  11 2.91   9 2.91
   9  0.731  0.769  0.500-  10 0.13   4 1.99   2 1.99   8 2.73   6 2.73  13 2.82  13 2.82  14 2.82
                            14 2.82   7 2.82   5 2.82   5 2.82   7 2.82   6 2.91   8 2.91
  10  0.747  0.753  0.500-   9 0.13   2 1.99   4 1.99   7 2.73   5 2.73  13 2.81  13 2.81  14 2.81
                            14 2.81   8 2.81   6 2.81   8 2.81   6 2.81   5 2.91   7 2.91
  11  0.269  0.231  0.500-  12 0.13   4 1.99   2 1.99   8 2.73   6 2.73  14 2.82  14 2.82  13 2.82
                            13 2.82   5 2.82   7 2.82   7 2.82   5 2.82   8 2.91   6 2.91
  12  0.253  0.247  0.500-  11 0.13   2 1.99   4 1.99   7 2.73   5 2.73  14 2.81  14 2.81  13 2.81
                            13 2.81   6 2.81   8 2.81   6 2.81   8 2.81   5 2.91   7 2.91
  13  0.250  0.250  0.000-   4 1.99   2 1.99   1 1.99   3 1.99  10 2.81  10 2.81   6 2.81   8 2.81
                            12 2.81  12 2.81   8 2.81   6 2.81   9 2.82   9 2.82   7 2.82   5 2.82
  14  0.750  0.750  0.000-   2 1.99   4 1.99   3 1.99   1 1.99  12 2.81  12 2.81   8 2.81   6 2.81
                            10 2.81  10 2.81   8 2.81   6 2.81  11 2.82  11 2.82   5 2.82   7 2.82
 
 -----------------------------------------------------------------------------
|                                                                             |
|           W    W    AA    RRRRR   N    N  II  N    N   GGGG   !!!           |
|           W    W   A  A   R    R  NN   N  II  NN   N  G    G  !!!           |
|           W    W  A    A  R    R  N N  N  II  N N  N  G       !!!           |
|           W WW W  AAAAAA  RRRRR   N  N N  II  N  N N  G  GGG   !            |
|           WW  WW  A    A  R   R   N   NN  II  N   NN  G    G                |
|           W    W  A    A  R    R  N    N  II  N    N   GGGG   !!!           |
|                                                                             |
|     The distance between some ions is very small. Please check the          |
|     nearest-neighbor list in the OUTCAR file.                               |
|     I HOPE YOU KNOW WHAT YOU ARE DOING!                                     |
|                                                                             |
 -----------------------------------------------------------------------------

  LATTYP: Found a body centered tetragonal cell.
 ALAT       =     5.6270128681
 C/A-ratio  =     1.4116905077
  
  Lattice vectors:
  
 A1 = (   4.8716868493,   0.0000000000,  -2.8059848970)
 A2 = (  -1.6277810588,   4.5916948486,  -2.8059848970)
 A3 = (   0.0000000000,   0.0000000000,   5.6220000000)


Analysis of symmetry for initial positions (statically):
=====================================================================
 Subroutine PRICEL returns:
 Original cell was already a primitive cell.
 

 Routine SETGRP: Setting up the symmetry group for a 
 body centered tetragonal supercell.


 Subroutine GETGRP returns: Found 16 space group operations
 (whereof  8 operations were pure point group operations)
 out of a pool of 16 trial point group operations.


The static configuration has the point symmetry C_4h.
 The point group associated with its full space group is D_4h.


Analysis of symmetry for dynamics (positions and initial velocities):
=====================================================================
 Subroutine PRICEL returns:
 Original cell was already a primitive cell.
 

 Routine SETGRP: Setting up the symmetry group for a 
 body centered tetragonal supercell.


 Subroutine GETGRP returns: Found 16 space group operations
 (whereof  8 operations were pure point group operations)
 out of a pool of 16 trial point group operations.


The dynamic configuration has the point symmetry C_4h.
 The point group associated with its full space group is D_4h.


 Subroutine INISYM returns: Found 16 space group operations
 (whereof  8 operations are pure point group operations),
 and found     1 'primitive' translations


----------------------------------------------------------------------------------------

                                     Primitive cell                                     

  volume of cell :     125.7602

  direct lattice vectors                    reciprocal lattice vectors
     4.871686849  0.000000000 -2.805984897     0.205267709  0.072768531  0.000000000
    -1.627781059  4.591694849 -2.805984897     0.000000000  0.217784507  0.000000000
     0.000000000  0.000000000  5.622000000     0.102450746  0.145017331  0.177872643

  length of vectors
     5.622000000  5.622000000  5.622000000     0.217784507  0.217784507  0.251326200

  position of ions in fractional coordinates (direct lattice)
     0.500000000  0.000000000  1.000000000
     0.000000000  0.000000000  0.500000000
     0.000000000  0.500000000  0.000000000
     0.500000000  0.500000000  0.500000000
     0.230990000  0.730990000  0.961980000
     0.247140000  0.747140000  0.994280000
     0.769010000  0.269010000  0.038020000
     0.752860000  0.252860000  0.005720000
     0.730990000  0.769010000  0.500000000
     0.747140000  0.752860000  0.500000000
     0.269010000  0.230990000  0.500000000
     0.252860000  0.247140000  0.500000000
     0.250000000  0.250000000  0.000000000
     0.750000000  0.750000000  0.000000000

  ion indices of the primitive-cell ions
   primitive index   ion index
                 1           1
                 2           2
                 3           3
                 4           4
                 5           5
                 6           6
                 7           7
                 8           8
                 9           9
                10          10
                11          11
                12          12
                13          13
                14          14

----------------------------------------------------------------------------------------

 
 
 KPOINTS: EA                                      

Automatic generation of k-mesh.
 Grid dimensions read from file:
 generate k-points for:    8    8    9

 Generating k-lattice:

  Cartesian coordinates                     Fractional coordinates (reciprocal lattice)
     0.025658464  0.009096066  0.000000000     0.125000000  0.000000000  0.000000000
     0.000000000  0.027223063  0.000000000     0.000000000  0.125000000  0.000000000
     0.011383416  0.016113037  0.019763627     0.000000000  0.000000000  0.111111111

  Length of vectors
     0.027223063  0.027223063  0.027925133

  Shift w.r.t. Gamma in fractional coordinates (k-lattice)
     0.000000000  0.000000000  0.000000000

 -----------------------------------------------------------------------------
|                                                                             |
|           W    W    AA    RRRRR   N    N  II  N    N   GGGG   !!!           |
|           W    W   A  A   R    R  NN   N  II  NN   N  G    G  !!!           |
|           W    W  A    A  R    R  N N  N  II  N N  N  G       !!!           |
|           W WW W  AAAAAA  RRRRR   N  N N  II  N  N N  G  GGG   !            |
|           WW  WW  A    A  R   R   N   NN  II  N   NN  G    G                |
|           W    W  A    A  R    R  N    N  II  N    N   GGGG   !!!           |
|                                                                             |
|     Your reciprocal lattice and k-lattice belong to different lattice       |
|     classes:                                                                |
|                                                                             |
|        The reciprocal lattice is body-centered tetragonal,                  |
|        whereas your k-lattice is base-centered monoclinic.                  |
|                                                                             |
|     Results are often still useful ...                                      |
|                                                                             |
 -----------------------------------------------------------------------------

 WARNING: IBZKPT: internal override: KBLOWUP is changed to .FALSE.
      ... skipping the blow-up phase ...

 
 Subroutine IBZKPT returns following result:
 ===========================================
 
 Found    165 irreducible k-points:
 
 Following reciprocal coordinates:
            Coordinates               Weight
  0.000000  0.000000  0.000000      1.000000
  0.125000  0.000000  0.000000      4.000000
  0.250000  0.000000  0.000000      4.000000
  0.375000  0.000000  0.000000      4.000000
  0.500000  0.000000  0.000000      2.000000
  0.125000  0.125000  0.000000      2.000000
  0.250000  0.125000  0.000000      4.000000
  0.375000  0.125000  0.000000      4.000000
  0.500000  0.125000  0.000000      4.000000
 -0.375000  0.125000  0.000000      4.000000
 -0.250000  0.125000  0.000000      4.000000
 -0.125000  0.125000  0.000000      2.000000
  0.250000  0.250000  0.000000      2.000000
  0.375000  0.250000  0.000000      4.000000
  0.500000  0.250000  0.000000      4.000000
 -0.375000  0.250000  0.000000      4.000000
 -0.250000  0.250000  0.000000      2.000000
  0.375000  0.375000  0.000000      2.000000
  0.500000  0.375000  0.000000      4.000000
 -0.375000  0.375000  0.000000      2.000000
  0.500000  0.500000  0.000000      1.000000
  0.000000  0.000000  0.111111      2.000000
  0.125000 -0.000000  0.111111      4.000000
  0.250000  0.000000  0.111111      4.000000
  0.375000  0.000000  0.111111      4.000000
  0.500000  0.000000  0.111111      4.000000
 -0.375000  0.000000  0.111111      4.000000
 -0.250000 -0.000000  0.111111      4.000000
 -0.125000 -0.000000  0.111111      4.000000
  0.125000  0.125000  0.111111      2.000000
  0.250000  0.125000  0.111111      4.000000
  0.375000  0.125000  0.111111      4.000000
  0.500000  0.125000  0.111111      4.000000
 -0.375000  0.125000  0.111111      4.000000
 -0.250000  0.125000  0.111111      4.000000
 -0.125000  0.125000  0.111111      4.000000
  0.250000  0.250000  0.111111      2.000000
  0.375000  0.250000  0.111111      4.000000
  0.500000  0.250000  0.111111      4.000000
 -0.375000  0.250000  0.111111      4.000000
 -0.250000  0.250000  0.111111      4.000000
 -0.125000  0.250000  0.111111      4.000000
  0.375000  0.375000  0.111111      2.000000
  0.500000  0.375000  0.111111      4.000000
 -0.375000  0.375000  0.111111      4.000000
 -0.250000  0.375000  0.111111      4.000000
 -0.125000  0.375000  0.111111      4.000000
  0.500000  0.500000  0.111111      2.000000
 -0.375000  0.500000  0.111111      4.000000
 -0.250000  0.500000  0.111111      4.000000
 -0.125000  0.500000  0.111111      4.000000
 -0.375000 -0.375000  0.111111      2.000000
 -0.250000 -0.375000  0.111111      4.000000
 -0.125000 -0.375000  0.111111      4.000000
 -0.250000 -0.250000  0.111111      2.000000
 -0.125000 -0.250000  0.111111      4.000000
 -0.125000 -0.125000  0.111111      2.000000
  0.000000  0.000000  0.222222      2.000000
  0.125000 -0.000000  0.222222      4.000000
  0.250000 -0.000000  0.222222      4.000000
  0.375000 -0.000000  0.222222      4.000000
  0.500000  0.000000  0.222222      4.000000
 -0.375000  0.000000  0.222222      4.000000
 -0.250000  0.000000  0.222222      4.000000
 -0.125000 -0.000000  0.222222      4.000000
  0.125000  0.125000  0.222222      2.000000
  0.250000  0.125000  0.222222      4.000000
  0.375000  0.125000  0.222222      4.000000
  0.500000  0.125000  0.222222      4.000000
 -0.375000  0.125000  0.222222      4.000000
 -0.250000  0.125000  0.222222      4.000000
 -0.125000  0.125000  0.222222      4.000000
  0.250000  0.250000  0.222222      2.000000
  0.375000  0.250000  0.222222      4.000000
  0.500000  0.250000  0.222222      4.000000
 -0.375000  0.250000  0.222222      4.000000
 -0.250000  0.250000  0.222222      4.000000
 -0.125000  0.250000  0.222222      4.000000
  0.375000  0.375000  0.222222      2.000000
  0.500000  0.375000  0.222222      4.000000
 -0.375000  0.375000  0.222222      4.000000
 -0.250000  0.375000  0.222222      4.000000
 -0.125000  0.375000  0.222222      4.000000
  0.500000  0.500000  0.222222      2.000000
 -0.375000  0.500000  0.222222      4.000000
 -0.250000  0.500000  0.222222      4.000000
 -0.125000  0.500000  0.222222      4.000000
 -0.375000 -0.375000  0.222222      2.000000
 -0.250000 -0.375000  0.222222      4.000000
 -0.125000 -0.375000  0.222222      4.000000
 -0.250000 -0.250000  0.222222      2.000000
 -0.125000 -0.250000  0.222222      4.000000
 -0.125000 -0.125000  0.222222      2.000000
  0.000000 -0.000000  0.333333      2.000000
  0.125000  0.000000  0.333333      4.000000
  0.250000 -0.000000  0.333333      4.000000
  0.375000 -0.000000  0.333333      4.000000
  0.500000 -0.000000  0.333333      4.000000
 -0.375000 -0.000000  0.333333      4.000000
 -0.250000 -0.000000  0.333333      4.000000
 -0.125000  0.000000  0.333333      4.000000
  0.125000  0.125000  0.333333      2.000000
  0.250000  0.125000  0.333333      4.000000
  0.375000  0.125000  0.333333      4.000000
  0.500000  0.125000  0.333333      4.000000
 -0.375000  0.125000  0.333333      4.000000
 -0.250000  0.125000  0.333333      4.000000
 -0.125000  0.125000  0.333333      4.000000
  0.250000  0.250000  0.333333      2.000000
  0.375000  0.250000  0.333333      4.000000
  0.500000  0.250000  0.333333      4.000000
 -0.375000  0.250000  0.333333      4.000000
 -0.250000  0.250000  0.333333      4.000000
 -0.125000  0.250000  0.333333      4.000000
  0.375000  0.375000  0.333333      2.000000
  0.500000  0.375000  0.333333      4.000000
 -0.375000  0.375000  0.333333      4.000000
 -0.250000  0.375000  0.333333      4.000000
 -0.125000  0.375000  0.333333      4.000000
  0.500000  0.500000  0.333333      2.000000
 -0.375000  0.500000  0.333333      4.000000
 -0.250000  0.500000  0.333333      4.000000
 -0.125000  0.500000  0.333333      4.000000
 -0.375000 -0.375000  0.333333      2.000000
 -0.250000 -0.375000  0.333333      4.000000
 -0.125000 -0.375000  0.333333      4.000000
 -0.250000 -0.250000  0.333333      2.000000
 -0.125000 -0.250000  0.333333      4.000000
 -0.125000 -0.125000  0.333333      2.000000
  0.000000  0.000000  0.444444      2.000000
  0.125000  0.000000  0.444444      4.000000
  0.250000 -0.000000  0.444444      4.000000
  0.375000 -0.000000  0.444444      4.000000
  0.500000 -0.000000  0.444444      4.000000
 -0.375000 -0.000000  0.444444      4.000000
 -0.250000 -0.000000  0.444444      4.000000
 -0.125000 -0.000000  0.444444      4.000000
  0.125000  0.125000  0.444444      2.000000
  0.250000  0.125000  0.444444      4.000000
  0.375000  0.125000  0.444444      4.000000
  0.500000  0.125000  0.444444      4.000000
 -0.375000  0.125000  0.444444      4.000000
 -0.250000  0.125000  0.444444      4.000000
 -0.125000  0.125000  0.444444      4.000000
  0.250000  0.250000  0.444444      2.000000
  0.375000  0.250000  0.444444      4.000000
  0.500000  0.250000  0.444444      4.000000
 -0.375000  0.250000  0.444444      4.000000
 -0.250000  0.250000  0.444444      4.000000
 -0.125000  0.250000  0.444444      4.000000
  0.375000  0.375000  0.444444      2.000000
  0.500000  0.375000  0.444444      4.000000
 -0.375000  0.375000  0.444444      4.000000
 -0.250000  0.375000  0.444444      4.000000
 -0.125000  0.375000  0.444444      4.000000
  0.500000  0.500000  0.444444      2.000000
 -0.375000  0.500000  0.444444      4.000000
 -0.250000  0.500000  0.444444      4.000000
 -0.125000  0.500000  0.444444      4.000000
 -0.375000 -0.375000  0.444444      2.000000
 -0.250000 -0.375000  0.444444      4.000000
 -0.125000 -0.375000  0.444444      4.000000
 -0.250000 -0.250000  0.444444      2.000000
 -0.125000 -0.250000  0.444444      4.000000
 -0.125000 -0.125000  0.444444      2.000000
 
 Following cartesian coordinates:
            Coordinates               Weight
  0.000000  0.000000  0.000000      1.000000
  0.025658  0.009096  0.000000      4.000000
  0.051317  0.018192  0.000000      4.000000
  0.076975  0.027288  0.000000      4.000000
  0.102634  0.036384  0.000000      2.000000
  0.025658  0.036319  0.000000      2.000000
  0.051317  0.045415  0.000000      4.000000
  0.076975  0.054511  0.000000      4.000000
  0.102634  0.063607  0.000000      4.000000
 -0.076975 -0.000065  0.000000      4.000000
 -0.051317  0.009031  0.000000      4.000000
 -0.025658  0.018127  0.000000      2.000000
  0.051317  0.072638  0.000000      2.000000
  0.076975  0.081734  0.000000      4.000000
  0.102634  0.090830  0.000000      4.000000
 -0.076975  0.027158  0.000000      4.000000
 -0.051317  0.036254  0.000000      2.000000
  0.076975  0.108957  0.000000      2.000000
  0.102634  0.118053  0.000000      4.000000
 -0.076975  0.054381  0.000000      2.000000
  0.102634  0.145277  0.000000      1.000000
  0.011383  0.016113  0.019764      2.000000
  0.037042  0.025209  0.019764      4.000000
  0.062700  0.034305  0.019764      4.000000
  0.088359  0.043401  0.019764      4.000000
  0.114017  0.052497  0.019764      4.000000
 -0.065592 -0.011175  0.019764      4.000000
 -0.039934 -0.002079  0.019764      4.000000
 -0.014275  0.007017  0.019764      4.000000
  0.037042  0.052432  0.019764      2.000000
  0.062700  0.061528  0.019764      4.000000
  0.088359  0.070624  0.019764      4.000000
  0.114017  0.079720  0.019764      4.000000
 -0.065592  0.016048  0.019764      4.000000
 -0.039934  0.025144  0.019764      4.000000
 -0.014275  0.034240  0.019764      4.000000
  0.062700  0.088751  0.019764      2.000000
  0.088359  0.097847  0.019764      4.000000
  0.114017  0.106943  0.019764      4.000000
 -0.065592  0.043271  0.019764      4.000000
 -0.039934  0.052367  0.019764      4.000000
 -0.014275  0.061463  0.019764      4.000000
  0.088359  0.125070  0.019764      2.000000
  0.114017  0.134166  0.019764      4.000000
 -0.065592  0.070494  0.019764      4.000000
 -0.039934  0.079590  0.019764      4.000000
 -0.014275  0.088686  0.019764      4.000000
  0.114017  0.161390  0.019764      2.000000
 -0.065592  0.097717  0.019764      4.000000
 -0.039934  0.106813  0.019764      4.000000
 -0.014275  0.115909  0.019764      4.000000
 -0.065592 -0.092844  0.019764      2.000000
 -0.039934 -0.083748  0.019764      4.000000
 -0.014275 -0.074652  0.019764      4.000000
 -0.039934 -0.056525  0.019764      2.000000
 -0.014275 -0.047429  0.019764      4.000000
 -0.014275 -0.020206  0.019764      2.000000
  0.022767  0.032226  0.039527      2.000000
  0.048425  0.041322  0.039527      4.000000
  0.074084  0.050418  0.039527      4.000000
  0.099742  0.059514  0.039527      4.000000
  0.125401  0.068610  0.039527      4.000000
 -0.054209  0.004938  0.039527      4.000000
 -0.028550  0.014034  0.039527      4.000000
 -0.002892  0.023130  0.039527      4.000000
  0.048425  0.068545  0.039527      2.000000
  0.074084  0.077641  0.039527      4.000000
  0.099742  0.086737  0.039527      4.000000
  0.125401  0.095833  0.039527      4.000000
 -0.054209  0.032161  0.039527      4.000000
 -0.028550  0.041257  0.039527      4.000000
 -0.002892  0.050353  0.039527      4.000000
  0.074084  0.104864  0.039527      2.000000
  0.099742  0.113960  0.039527      4.000000
  0.125401  0.123056  0.039527      4.000000
 -0.054209  0.059384  0.039527      4.000000
 -0.028550  0.068480  0.039527      4.000000
 -0.002892  0.077576  0.039527      4.000000
  0.099742  0.141183  0.039527      2.000000
  0.125401  0.150280  0.039527      4.000000
 -0.054209  0.086607  0.039527      4.000000
 -0.028550  0.095703  0.039527      4.000000
 -0.002892  0.104799  0.039527      4.000000
  0.125401  0.177503  0.039527      2.000000
 -0.054209  0.113830  0.039527      4.000000
 -0.028550  0.122926  0.039527      4.000000
 -0.002892  0.132022  0.039527      4.000000
 -0.054209 -0.076731  0.039527      2.000000
 -0.028550 -0.067635  0.039527      4.000000
 -0.002892 -0.058539  0.039527      4.000000
 -0.028550 -0.040412  0.039527      2.000000
 -0.002892 -0.031316  0.039527      4.000000
 -0.002892 -0.004093  0.039527      2.000000
  0.034150  0.048339  0.059291      2.000000
  0.059809  0.057435  0.059291      4.000000
  0.085467  0.066531  0.059291      4.000000
  0.111126  0.075627  0.059291      4.000000
  0.136784  0.084723  0.059291      4.000000
 -0.042825  0.021051  0.059291      4.000000
 -0.017167  0.030147  0.059291      4.000000
  0.008492  0.039243  0.059291      4.000000
  0.059809  0.084658  0.059291      2.000000
  0.085467  0.093754  0.059291      4.000000
  0.111126  0.102850  0.059291      4.000000
  0.136784  0.111946  0.059291      4.000000
 -0.042825  0.048274  0.059291      4.000000
 -0.017167  0.057370  0.059291      4.000000
  0.008492  0.066466  0.059291      4.000000
  0.085467  0.120977  0.059291      2.000000
  0.111126  0.130073  0.059291      4.000000
  0.136784  0.139170  0.059291      4.000000
 -0.042825  0.075497  0.059291      4.000000
 -0.017167  0.084593  0.059291      4.000000
  0.008492  0.093689  0.059291      4.000000
  0.111126  0.157296  0.059291      2.000000
  0.136784  0.166393  0.059291      4.000000
 -0.042825  0.102720  0.059291      4.000000
 -0.017167  0.111816  0.059291      4.000000
  0.008492  0.120912  0.059291      4.000000
  0.136784  0.193616  0.059291      2.000000
 -0.042825  0.129943  0.059291      4.000000
 -0.017167  0.139039  0.059291      4.000000
  0.008492  0.148135  0.059291      4.000000
 -0.042825 -0.060618  0.059291      2.000000
 -0.017167 -0.051522  0.059291      4.000000
  0.008492 -0.042426  0.059291      4.000000
 -0.017167 -0.024299  0.059291      2.000000
  0.008492 -0.015203  0.059291      4.000000
  0.008492  0.012020  0.059291      2.000000
  0.045534  0.064452  0.079055      2.000000
  0.071192  0.073548  0.079055      4.000000
  0.096851  0.082644  0.079055      4.000000
  0.122509  0.091740  0.079055      4.000000
  0.148168  0.100836  0.079055      4.000000
 -0.031442  0.037164  0.079055      4.000000
 -0.005783  0.046260  0.079055      4.000000
  0.019875  0.055356  0.079055      4.000000
  0.071192  0.100771  0.079055      2.000000
  0.096851  0.109867  0.079055      4.000000
  0.122509  0.118963  0.079055      4.000000
  0.148168  0.128059  0.079055      4.000000
 -0.031442  0.064387  0.079055      4.000000
 -0.005783  0.073483  0.079055      4.000000
  0.019875  0.082579  0.079055      4.000000
  0.096851  0.137090  0.079055      2.000000
  0.122509  0.146186  0.079055      4.000000
  0.148168  0.155283  0.079055      4.000000
 -0.031442  0.091610  0.079055      4.000000
 -0.005783  0.100706  0.079055      4.000000
  0.019875  0.109802  0.079055      4.000000
  0.122509  0.173410  0.079055      2.000000
  0.148168  0.182506  0.079055      4.000000
 -0.031442  0.118833  0.079055      4.000000
 -0.005783  0.127929  0.079055      4.000000
  0.019875  0.137025  0.079055      4.000000
  0.148168  0.209729  0.079055      2.000000
 -0.031442  0.146056  0.079055      4.000000
 -0.005783  0.155152  0.079055      4.000000
  0.019875  0.164248  0.079055      4.000000
 -0.031442 -0.044505  0.079055      2.000000
 -0.005783 -0.035409  0.079055      4.000000
  0.019875 -0.026313  0.079055      4.000000
 -0.005783 -0.008186  0.079055      2.000000
  0.019875  0.000910  0.079055      4.000000
  0.019875  0.028133  0.079055      2.000000
 


--------------------------------------------------------------------------------------------------------




 Dimension of arrays:
   k-points           NKPTS =    165   k-points in BZ     NKDIM =    165   number of bands    NBANDS=     84
   number of dos      NEDOS =    301   number of ions     NIONS =     14
   non local maximal  LDIM  =      6   non local SUM 2l+1 LMDIM =     18
   total plane-waves  NPLWV = 110592
   max r-space proj   IRMAX =      1   max aug-charges    IRDMAX= 307820
   dimension x,y,z NGX =    48 NGY =   48 NGZ =   48
   dimension x,y,z NGXF=    96 NGYF=   96 NGZF=   96
   support grid    NGXF=   192 NGYF=  192 NGZF=  192
   ions per type =               4   8   2
   NGX,Y,Z   is equivalent  to a cutoff of  14.19, 14.19, 14.19 a.u.
   NGXF,Y,Z  is equivalent  to a cutoff of  28.39, 28.39, 28.39 a.u.

 SYSTEM =  routine with relax: pwdword             
 POSCAR =  EA152                                   

 Startparameter for this run:
   NWRITE =      2    write-flag & timer
   PREC   = acc       normal or accurate (medium, high low for compatibility)
   ISTART =      0    job   : 0-new  1-cont  2-samecut
   ICHARG =      2    charge: 1-file 2-atom 10-const
   ISPIN  =      1    spin polarized calculation?
   LNONCOLLINEAR =      F non collinear calculations
   LSORBIT =      F    spin-orbit coupling
   INIWAV =      1    electr: 0-lowe 1-rand  2-diag
   LASPH  =      T    aspherical Exc in radial PAW
   METAGGA=      F    non-selfconsistent MetaGGA calc.

 Electronic Relaxation 1
   ENCUT  =  600.0 eV  44.10 Ry    6.64 a.u.  11.23 11.23 11.23*2*pi/ulx,y,z
   ENINI  =  600.0     initial cutoff
   ENAUG  =  535.5 eV  augmentation charge cutoff
   NELM   =    100;   NELMIN=  6; NELMDL= -5     # of ELM steps 
   EDIFF  = 0.1E-08   stopping-criterion for ELM
   LREAL  =      F    real-space projection
   NLSPLINE    = F    spline interpolate recip. space projectors
   LCOMPAT=      F    compatible to vasp.4.4
   GGA_COMPAT  = T    GGA compatible to vasp.4.4-vasp.4.6
   LMAXPAW     = -100 max onsite density
   LMAXMIX     =    2 max onsite mixed and CHGCAR
   VOSKOWN=      0    Vosko Wilk Nusair interpolation
   ROPT   =    0.00000   0.00000   0.00000
 Ionic relaxation
   EDIFFG = 0.1E-07   stopping-criterion for IOM
   NSW    =      0    number of steps for IOM
   NBLOCK =      1;   KBLOCK =      1    inner block; outer block 
   IBRION =     -1    ionic relax: 0-MD 1-quasi-New 2-CG
   NFREE  =      0    steps in history (QN), initial steepest desc. (CG)
   ISIF   =     -1    stress and relaxation
   IWAVPR =     10    prediction:  0-non 1-charg 2-wave 3-comb
   ISYM   =      2    0-nonsym 1-usesym 2-fastsym
   LCORR  =      T    Harris-Foulkes like correction to forces

   POTIM  = 0.5000    time-step for ionic-motion
   TEIN   =    0.0    initial temperature
   TEBEG  =    0.0;   TEEND  =   0.0 temperature during run
   SMASS  =  -3.00    Nose mass-parameter (am)
   estimated Nose-frequenzy (Omega)   =  0.10E-29 period in steps = 0.13E+47 mass=  -0.722E-27a.u.
   SCALEE = 1.0000    scale energy and forces
   NPACO  =    256;   APACO  = 16.0  distance and # of slots for P.C.
   PSTRESS=    0.0 pullay stress

  Mass of Ions in am
   POMASS =  10.81 95.94 28.09
  Ionic Valenz
   ZVAL   =   3.00 14.00  4.00
  Atomic Wigner-Seitz radii
   RWIGS  =  -1.00 -1.00 -1.00
  virtual crystal weights 
   VCA    =   1.00  1.00  1.00
   NELECT =     132.0000    total number of electrons
   NUPDOWN=      -1.0000    fix difference up-down

 DOS related values:
   EMIN   =  10.00;   EMAX   =-10.00  energy-range for DOS
   EFERMI =   0.00
   ISMEAR =     0;   SIGMA  =   0.02  broadening in eV -4-tet -1-fermi 0-gaus

 Electronic relaxation 2 (details)
   IALGO  =     58    algorithm
   LDIAG  =      T    sub-space diagonalisation (order eigenvalues)
   LSUBROT=      F    optimize rotation matrix (better conditioning)
   TURBO    =      0    0=normal 1=particle mesh
   IRESTART =      0    0=no restart 2=restart with 2 vectors
   NREBOOT  =      0    no. of reboots
   NMIN     =      0    reboot dimension
   EREF     =   0.00    reference energy to select bands
   IMIX   =      4    mixing-type and parameters
     AMIX     =   0.40;   BMIX     =  1.00
     AMIX_MAG =   1.60;   BMIX_MAG =  1.00
     AMIN     =   0.10
     WC   =   100.;   INIMIX=   1;  MIXPRE=   1;  MAXMIX= -45

 Intra band minimization:
   WEIMIN = 0.0000     energy-eigenvalue tresh-hold
   EBREAK =  0.30E-11  absolut break condition
   DEPER  =   0.30     relativ break condition  

   TIME   =   0.40     timestep for ELM

  volume/ion in A,a.u.               =       8.98        60.62
  Fermi-wavevector in a.u.,A,eV,Ry     =   1.663739  3.144010 37.661277  2.768026
  Thomas-Fermi vector in A             =   2.750404
 
 Write flags
   LWAVE        =      T    write WAVECAR
   LDOWNSAMPLE  =      F    k-point downsampling of WAVECAR
   LCHARG       =      T    write CHGCAR
   LVTOT        =      F    write LOCPOT, total local potential
   LVHAR        =      F    write LOCPOT, Hartree potential only
   LELF         =      F    write electronic localiz. function (ELF)
   LORBIT       =      0    0 simple, 1 ext, 2 COOP (PROOUT), +10 PAW based schemes


 Dipole corrections
   LMONO  =      F    monopole corrections only (constant potential shift)
   LDIPOL =      F    correct potential (dipole corrections)
   IDIPOL =      0    1-x, 2-y, 3-z, 4-all directions 
   EPSILON=  1.0000000 bulk dielectric constant

 Exchange correlation treatment:
   GGA     =    --    GGA type
   LEXCH   =     8    internal setting for exchange type
   VOSKOWN=      0    Vosko Wilk Nusair interpolation
   LHFCALC =     F    Hartree Fock is set to
   LHFONE  =     F    Hartree Fock one center treatment
   AEXX    =    0.0000 exact exchange contribution

 Linear response parameters
   LEPSILON=     F    determine dielectric tensor
   LRPA    =     F    only Hartree local field effects (RPA)
   LNABLA  =     F    use nabla operator in PAW spheres
   LVEL    =     F    velocity operator in full k-point grid
   LINTERFAST=   F  fast interpolation
   KINTER  =     0    interpolate to denser k-point grid
   CSHIFT  =0.1000    complex shift for real part using Kramers Kronig
   OMEGAMAX=  -1.0    maximum frequency
   DEG_THRESHOLD= 0.2000000E-02 threshold for treating states as degnerate
   RTIME   =   -0.100 relaxation time in fs
  (WPLASMAI=    0.000 imaginary part of plasma frequency in eV, 0.658/RTIME)
   DFIELD  = 0.0000000 0.0000000 0.0000000 field for delta impulse in time
 
 Orbital magnetization related:
   ORBITALMAG=     F  switch on orbital magnetization
   LCHIMAG   =     F  perturbation theory with respect to B field
   DQ        =  0.001000  dq finite difference perturbation B field
   LLRAUG    =     F  two centre corrections for induced B field



--------------------------------------------------------------------------------------------------------


 Static calculation
 charge density and potential will be updated during run
 non-spin polarized calculation
 Conjugate gradient for all bands (Freysoldt, et al. PRB 79, 241103 (2009))
 preconditioned conjugated gradient                                        
 perform sub-space diagonalisation
    before iterative eigenvector-optimisation
 modified Broyden-mixing scheme, WC =      100.0
 initial mixing is a Kerker type mixing with AMIX =  0.4000 and BMIX =      1.0000
 Hartree-type preconditioning will be used
 using additional bands           18
 reciprocal scheme for non local part
 use partial core corrections
 no Harris-corrections to forces 
 use gradient corrections 
 use of overlap-Matrix (Vanderbilt PP)
 Gauss-broadening in eV      SIGMA  =   0.02


--------------------------------------------------------------------------------------------------------


  energy-cutoff  :      600.00
  volume of cell :      125.76
      direct lattice vectors                 reciprocal lattice vectors
     4.871686849  0.000000000 -2.805984897     0.205267709  0.072768531  0.000000000
    -1.627781059  4.591694849 -2.805984897     0.000000000  0.217784507  0.000000000
     0.000000000  0.000000000  5.622000000     0.102450746  0.145017331  0.177872643

  length of vectors
     5.622000000  5.622000000  5.622000000     0.217784507  0.217784507  0.251326200


 
 k-points in units of 2pi/SCALE and weight: EA                                      
   0.00000000  0.00000000  0.00000000       0.002
   0.02565846  0.00909607  0.00000000       0.007
   0.05131693  0.01819213  0.00000000       0.007
   0.07697539  0.02728820  0.00000000       0.007
   0.10263385  0.03638427  0.00000000       0.003
   0.02565846  0.03631913  0.00000000       0.003
   0.05131693  0.04541520  0.00000000       0.007
   0.07697539  0.05451126  0.00000000       0.007
   0.10263385  0.06360733  0.00000000       0.007
  -0.07697539 -0.00006514  0.00000000       0.007
  -0.05131693  0.00903093  0.00000000       0.007
  -0.02565846  0.01812700  0.00000000       0.003
   0.05131693  0.07263826  0.00000000       0.003
   0.07697539  0.08173433  0.00000000       0.007
   0.10263385  0.09083039  0.00000000       0.007
  -0.07697539  0.02715793  0.00000000       0.007
  -0.05131693  0.03625399  0.00000000       0.003
   0.07697539  0.10895739  0.00000000       0.003
   0.10263385  0.11805346  0.00000000       0.007
  -0.07697539  0.05438099  0.00000000       0.003
   0.10263385  0.14527652  0.00000000       0.002
   0.01138342  0.01611304  0.01976363       0.003
   0.03704188  0.02520910  0.01976363       0.007
   0.06270034  0.03430517  0.01976363       0.007
   0.08835881  0.04340124  0.01976363       0.007
   0.11401727  0.05249730  0.01976363       0.007
  -0.06559197 -0.01117516  0.01976363       0.007
  -0.03993351 -0.00207910  0.01976363       0.007
  -0.01427505  0.00701697  0.01976363       0.007
   0.03704188  0.05243217  0.01976363       0.003
   0.06270034  0.06152823  0.01976363       0.007
   0.08835881  0.07062430  0.01976363       0.007
   0.11401727  0.07972037  0.01976363       0.007
  -0.06559197  0.01604790  0.01976363       0.007
  -0.03993351  0.02514397  0.01976363       0.007
  -0.01427505  0.03424003  0.01976363       0.007
   0.06270034  0.08875130  0.01976363       0.003
   0.08835881  0.09784736  0.01976363       0.007
   0.11401727  0.10694343  0.01976363       0.007
  -0.06559197  0.04327096  0.01976363       0.007
  -0.03993351  0.05236703  0.01976363       0.007
  -0.01427505  0.06146310  0.01976363       0.007
   0.08835881  0.12507043  0.01976363       0.003
   0.11401727  0.13416649  0.01976363       0.007
  -0.06559197  0.07049403  0.01976363       0.007
  -0.03993351  0.07959009  0.01976363       0.007
  -0.01427505  0.08868616  0.01976363       0.007
   0.11401727  0.16138956  0.01976363       0.003
  -0.06559197  0.09771709  0.01976363       0.007
  -0.03993351  0.10681316  0.01976363       0.007
  -0.01427505  0.11590922  0.01976363       0.007
  -0.06559197 -0.09284435  0.01976363       0.003
  -0.03993351 -0.08374829  0.01976363       0.007
  -0.01427505 -0.07465222  0.01976363       0.007
  -0.03993351 -0.05652522  0.01976363       0.003
  -0.01427505 -0.04742916  0.01976363       0.007
  -0.01427505 -0.02020609  0.01976363       0.003
   0.02276683  0.03222607  0.03952725       0.003
   0.04842530  0.04132214  0.03952725       0.007
   0.07408376  0.05041821  0.03952725       0.007
   0.09974222  0.05951427  0.03952725       0.007
   0.12540069  0.06861034  0.03952725       0.007
  -0.05420856  0.00493787  0.03952725       0.007
  -0.02855009  0.01403394  0.03952725       0.007
  -0.00289163  0.02313001  0.03952725       0.007
   0.04842530  0.06854520  0.03952725       0.003
   0.07408376  0.07764127  0.03952725       0.007
   0.09974222  0.08673734  0.03952725       0.007
   0.12540069  0.09583340  0.03952725       0.007
  -0.05420856  0.03216094  0.03952725       0.007
  -0.02855009  0.04125700  0.03952725       0.007
  -0.00289163  0.05035307  0.03952725       0.007
   0.07408376  0.10486433  0.03952725       0.003
   0.09974222  0.11396040  0.03952725       0.007
   0.12540069  0.12305647  0.03952725       0.007
  -0.05420856  0.05938400  0.03952725       0.007
  -0.02855009  0.06848007  0.03952725       0.007
  -0.00289163  0.07757613  0.03952725       0.007
   0.09974222  0.14118346  0.03952725       0.003
   0.12540069  0.15027953  0.03952725       0.007
  -0.05420856  0.08660706  0.03952725       0.007
  -0.02855009  0.09570313  0.03952725       0.007
  -0.00289163  0.10479920  0.03952725       0.007
   0.12540069  0.17750259  0.03952725       0.003
  -0.05420856  0.11383013  0.03952725       0.007
  -0.02855009  0.12292619  0.03952725       0.007
  -0.00289163  0.13202226  0.03952725       0.007
  -0.05420856 -0.07673132  0.03952725       0.003
  -0.02855009 -0.06763525  0.03952725       0.007
  -0.00289163 -0.05853918  0.03952725       0.007
  -0.02855009 -0.04041219  0.03952725       0.003
  -0.00289163 -0.03131612  0.03952725       0.007
  -0.00289163 -0.00409306  0.03952725       0.003
   0.03415025  0.04833911  0.05929088       0.003
   0.05980871  0.05743518  0.05929088       0.007
   0.08546718  0.06653124  0.05929088       0.007
   0.11112564  0.07562731  0.05929088       0.007
   0.13678410  0.08472338  0.05929088       0.007
  -0.04282514  0.02105091  0.05929088       0.007
  -0.01716668  0.03014698  0.05929088       0.007
   0.00849178  0.03924304  0.05929088       0.007
   0.05980871  0.08465824  0.05929088       0.003
   0.08546718  0.09375431  0.05929088       0.007
   0.11112564  0.10285037  0.05929088       0.007
   0.13678410  0.11194644  0.05929088       0.007
  -0.04282514  0.04827397  0.05929088       0.007
  -0.01716668  0.05737004  0.05929088       0.007
   0.00849178  0.06646611  0.05929088       0.007
   0.08546718  0.12097737  0.05929088       0.003
   0.11112564  0.13007344  0.05929088       0.007
   0.13678410  0.13916950  0.05929088       0.007
  -0.04282514  0.07549704  0.05929088       0.007
  -0.01716668  0.08459310  0.05929088       0.007
   0.00849178  0.09368917  0.05929088       0.007
   0.11112564  0.15729650  0.05929088       0.003
   0.13678410  0.16639257  0.05929088       0.007
  -0.04282514  0.10272010  0.05929088       0.007
  -0.01716668  0.11181617  0.05929088       0.007
   0.00849178  0.12091223  0.05929088       0.007
   0.13678410  0.19361563  0.05929088       0.003
  -0.04282514  0.12994316  0.05929088       0.007
  -0.01716668  0.13903923  0.05929088       0.007
   0.00849178  0.14813530  0.05929088       0.007
  -0.04282514 -0.06061828  0.05929088       0.003
  -0.01716668 -0.05152221  0.05929088       0.007
   0.00849178 -0.04242615  0.05929088       0.007
  -0.01716668 -0.02429915  0.05929088       0.003
   0.00849178 -0.01520308  0.05929088       0.007
   0.00849178  0.01201998  0.05929088       0.003
   0.04553366  0.06445215  0.07905451       0.003
   0.07119213  0.07354821  0.07905451       0.007
   0.09685059  0.08264428  0.07905451       0.007
   0.12250906  0.09174035  0.07905451       0.007
   0.14816752  0.10083641  0.07905451       0.007
  -0.03144173  0.03716395  0.07905451       0.007
  -0.00578326  0.04626001  0.07905451       0.007
   0.01987520  0.05535608  0.07905451       0.007
   0.07119213  0.10077128  0.07905451       0.003
   0.09685059  0.10986734  0.07905451       0.007
   0.12250906  0.11896341  0.07905451       0.007
   0.14816752  0.12805948  0.07905451       0.007
  -0.03144173  0.06438701  0.07905451       0.007
  -0.00578326  0.07348308  0.07905451       0.007
   0.01987520  0.08257914  0.07905451       0.007
   0.09685059  0.13709041  0.07905451       0.003
   0.12250906  0.14618647  0.07905451       0.007
   0.14816752  0.15528254  0.07905451       0.007
  -0.03144173  0.09161007  0.07905451       0.007
  -0.00578326  0.10070614  0.07905451       0.007
   0.01987520  0.10980221  0.07905451       0.007
   0.12250906  0.17340954  0.07905451       0.003
   0.14816752  0.18250560  0.07905451       0.007
  -0.03144173  0.11883314  0.07905451       0.007
  -0.00578326  0.12792920  0.07905451       0.007
   0.01987520  0.13702527  0.07905451       0.007
   0.14816752  0.20972867  0.07905451       0.003
  -0.03144173  0.14605620  0.07905451       0.007
  -0.00578326  0.15515227  0.07905451       0.007
   0.01987520  0.16424833  0.07905451       0.007
  -0.03144173 -0.04450524  0.07905451       0.003
  -0.00578326 -0.03540918  0.07905451       0.007
   0.01987520 -0.02631311  0.07905451       0.007
  -0.00578326 -0.00818611  0.07905451       0.003
   0.01987520  0.00090995  0.07905451       0.007
   0.01987520  0.02813302  0.07905451       0.003
 
 k-points in reciprocal lattice and weights: EA                                      
   0.00000000  0.00000000  0.00000000       0.002
   0.12500000  0.00000000  0.00000000       0.007
   0.25000000  0.00000000  0.00000000       0.007
   0.37500000  0.00000000  0.00000000       0.007
   0.50000000  0.00000000  0.00000000       0.003
   0.12500000  0.12500000  0.00000000       0.003
   0.25000000  0.12500000  0.00000000       0.007
   0.37500000  0.12500000  0.00000000       0.007
   0.50000000  0.12500000  0.00000000       0.007
  -0.37500000  0.12500000  0.00000000       0.007
  -0.25000000  0.12500000  0.00000000       0.007
  -0.12500000  0.12500000  0.00000000       0.003
   0.25000000  0.25000000  0.00000000       0.003
   0.37500000  0.25000000  0.00000000       0.007
   0.50000000  0.25000000  0.00000000       0.007
  -0.37500000  0.25000000  0.00000000       0.007
  -0.25000000  0.25000000  0.00000000       0.003
   0.37500000  0.37500000  0.00000000       0.003
   0.50000000  0.37500000  0.00000000       0.007
  -0.37500000  0.37500000  0.00000000       0.003
   0.50000000  0.50000000  0.00000000       0.002
   0.00000000  0.00000000  0.11111111       0.003
   0.12500000 -0.00000000  0.11111111       0.007
   0.25000000  0.00000000  0.11111111       0.007
   0.37500000  0.00000000  0.11111111       0.007
   0.50000000  0.00000000  0.11111111       0.007
  -0.37500000  0.00000000  0.11111111       0.007
  -0.25000000 -0.00000000  0.11111111       0.007
  -0.12500000 -0.00000000  0.11111111       0.007
   0.12500000  0.12500000  0.11111111       0.003
   0.25000000  0.12500000  0.11111111       0.007
   0.37500000  0.12500000  0.11111111       0.007
   0.50000000  0.12500000  0.11111111       0.007
  -0.37500000  0.12500000  0.11111111       0.007
  -0.25000000  0.12500000  0.11111111       0.007
  -0.12500000  0.12500000  0.11111111       0.007
   0.25000000  0.25000000  0.11111111       0.003
   0.37500000  0.25000000  0.11111111       0.007
   0.50000000  0.25000000  0.11111111       0.007
  -0.37500000  0.25000000  0.11111111       0.007
  -0.25000000  0.25000000  0.11111111       0.007
  -0.12500000  0.25000000  0.11111111       0.007
   0.37500000  0.37500000  0.11111111       0.003
   0.50000000  0.37500000  0.11111111       0.007
  -0.37500000  0.37500000  0.11111111       0.007
  -0.25000000  0.37500000  0.11111111       0.007
  -0.12500000  0.37500000  0.11111111       0.007
   0.50000000  0.50000000  0.11111111       0.003
  -0.37500000  0.50000000  0.11111111       0.007
  -0.25000000  0.50000000  0.11111111       0.007
  -0.12500000  0.50000000  0.11111111       0.007
  -0.37500000 -0.37500000  0.11111111       0.003
  -0.25000000 -0.37500000  0.11111111       0.007
  -0.12500000 -0.37500000  0.11111111       0.007
  -0.25000000 -0.25000000  0.11111111       0.003
  -0.12500000 -0.25000000  0.11111111       0.007
  -0.12500000 -0.12500000  0.11111111       0.003
   0.00000000  0.00000000  0.22222222       0.003
   0.12500000 -0.00000000  0.22222222       0.007
   0.25000000 -0.00000000  0.22222222       0.007
   0.37500000 -0.00000000  0.22222222       0.007
   0.50000000  0.00000000  0.22222222       0.007
  -0.37500000  0.00000000  0.22222222       0.007
  -0.25000000  0.00000000  0.22222222       0.007
  -0.12500000 -0.00000000  0.22222222       0.007
   0.12500000  0.12500000  0.22222222       0.003
   0.25000000  0.12500000  0.22222222       0.007
   0.37500000  0.12500000  0.22222222       0.007
   0.50000000  0.12500000  0.22222222       0.007
  -0.37500000  0.12500000  0.22222222       0.007
  -0.25000000  0.12500000  0.22222222       0.007
  -0.12500000  0.12500000  0.22222222       0.007
   0.25000000  0.25000000  0.22222222       0.003
   0.37500000  0.25000000  0.22222222       0.007
   0.50000000  0.25000000  0.22222222       0.007
  -0.37500000  0.25000000  0.22222222       0.007
  -0.25000000  0.25000000  0.22222222       0.007
  -0.12500000  0.25000000  0.22222222       0.007
   0.37500000  0.37500000  0.22222222       0.003
   0.50000000  0.37500000  0.22222222       0.007
  -0.37500000  0.37500000  0.22222222       0.007
  -0.25000000  0.37500000  0.22222222       0.007
  -0.12500000  0.37500000  0.22222222       0.007
   0.50000000  0.50000000  0.22222222       0.003
  -0.37500000  0.50000000  0.22222222       0.007
  -0.25000000  0.50000000  0.22222222       0.007
  -0.12500000  0.50000000  0.22222222       0.007
  -0.37500000 -0.37500000  0.22222222       0.003
  -0.25000000 -0.37500000  0.22222222       0.007
  -0.12500000 -0.37500000  0.22222222       0.007
  -0.25000000 -0.25000000  0.22222222       0.003
  -0.12500000 -0.25000000  0.22222222       0.007
  -0.12500000 -0.12500000  0.22222222       0.003
   0.00000000 -0.00000000  0.33333333       0.003
   0.12500000  0.00000000  0.33333333       0.007
   0.25000000 -0.00000000  0.33333333       0.007
   0.37500000 -0.00000000  0.33333333       0.007
   0.50000000 -0.00000000  0.33333333       0.007
  -0.37500000 -0.00000000  0.33333333       0.007
  -0.25000000 -0.00000000  0.33333333       0.007
  -0.12500000  0.00000000  0.33333333       0.007
   0.12500000  0.12500000  0.33333333       0.003
   0.25000000  0.12500000  0.33333333       0.007
   0.37500000  0.12500000  0.33333333       0.007
   0.50000000  0.12500000  0.33333333       0.007
  -0.37500000  0.12500000  0.33333333       0.007
  -0.25000000  0.12500000  0.33333333       0.007
  -0.12500000  0.12500000  0.33333333       0.007
   0.25000000  0.25000000  0.33333333       0.003
   0.37500000  0.25000000  0.33333333       0.007
   0.50000000  0.25000000  0.33333333       0.007
  -0.37500000  0.25000000  0.33333333       0.007
  -0.25000000  0.25000000  0.33333333       0.007
  -0.12500000  0.25000000  0.33333333       0.007
   0.37500000  0.37500000  0.33333333       0.003
   0.50000000  0.37500000  0.33333333       0.007
  -0.37500000  0.37500000  0.33333333       0.007
  -0.25000000  0.37500000  0.33333333       0.007
  -0.12500000  0.37500000  0.33333333       0.007
   0.50000000  0.50000000  0.33333333       0.003
  -0.37500000  0.50000000  0.33333333       0.007
  -0.25000000  0.50000000  0.33333333       0.007
  -0.12500000  0.50000000  0.33333333       0.007
  -0.37500000 -0.37500000  0.33333333       0.003
  -0.25000000 -0.37500000  0.33333333       0.007
  -0.12500000 -0.37500000  0.33333333       0.007
  -0.25000000 -0.25000000  0.33333333       0.003
  -0.12500000 -0.25000000  0.33333333       0.007
  -0.12500000 -0.12500000  0.33333333       0.003
   0.00000000  0.00000000  0.44444444       0.003
   0.12500000  0.00000000  0.44444444       0.007
   0.25000000 -0.00000000  0.44444444       0.007
   0.37500000 -0.00000000  0.44444444       0.007
   0.50000000 -0.00000000  0.44444444       0.007
  -0.37500000 -0.00000000  0.44444444       0.007
  -0.25000000 -0.00000000  0.44444444       0.007
  -0.12500000 -0.00000000  0.44444444       0.007
   0.12500000  0.12500000  0.44444444       0.003
   0.25000000  0.12500000  0.44444444       0.007
   0.37500000  0.12500000  0.44444444       0.007
   0.50000000  0.12500000  0.44444444       0.007
  -0.37500000  0.12500000  0.44444444       0.007
  -0.25000000  0.12500000  0.44444444       0.007
  -0.12500000  0.12500000  0.44444444       0.007
   0.25000000  0.25000000  0.44444444       0.003
   0.37500000  0.25000000  0.44444444       0.007
   0.50000000  0.25000000  0.44444444       0.007
  -0.37500000  0.25000000  0.44444444       0.007
  -0.25000000  0.25000000  0.44444444       0.007
  -0.12500000  0.25000000  0.44444444       0.007
   0.37500000  0.37500000  0.44444444       0.003
   0.50000000  0.37500000  0.44444444       0.007
  -0.37500000  0.37500000  0.44444444       0.007
  -0.25000000  0.37500000  0.44444444       0.007
  -0.12500000  0.37500000  0.44444444       0.007
   0.50000000  0.50000000  0.44444444       0.003
  -0.37500000  0.50000000  0.44444444       0.007
  -0.25000000  0.50000000  0.44444444       0.007
  -0.12500000  0.50000000  0.44444444       0.007
  -0.37500000 -0.37500000  0.44444444       0.003
  -0.25000000 -0.37500000  0.44444444       0.007
  -0.12500000 -0.37500000  0.44444444       0.007
  -0.25000000 -0.25000000  0.44444444       0.003
  -0.12500000 -0.25000000  0.44444444       0.007
  -0.12500000 -0.12500000  0.44444444       0.003
 
 position of ions in fractional coordinates (direct lattice) 
   0.50000000  0.00000000  0.00000000
   0.00000000  0.00000000  0.50000000
   0.00000000  0.50000000  0.00000000
   0.50000000  0.50000000  0.50000000
   0.23099000  0.73099000  0.96198000
   0.24714000  0.74714000  0.99428000
   0.76901000  0.26901000  0.03802000
   0.75286000  0.25286000  0.00572000
   0.73099000  0.76901000  0.50000000
   0.74714000  0.75286000  0.50000000
   0.26901000  0.23099000  0.50000000
   0.25286000  0.24714000  0.50000000
   0.25000000  0.25000000  0.00000000
   0.75000000  0.75000000  0.00000000
 
 position of ions in cartesian coordinates  (Angst):
   2.43584342  0.00000000 -1.40299245
   0.00000000  0.00000000  2.81100000
  -0.81389053  2.29584742 -1.40299245
   1.62195290  2.29584742  0.00501510
  -0.06458073  3.35648302  2.70895021
  -0.01219165  3.43063889  2.79990750
   3.30848652  1.23521183 -2.69892000
   3.25609744  1.16105596 -2.78987729
   2.30937446  3.53105926 -1.39797735
   2.41434086  3.45690338 -1.39797735
   0.93453133  1.06063559  1.40800755
   0.82956493  1.13479146  1.40800755
   0.81097645  1.14792371 -1.40299245
   2.43292934  3.44377114 -4.20897735
 


--------------------------------------------------------------------------------------------------------


 k-point   1 :   0.0000 0.0000 0.0000  plane waves:    4279
 k-point   2 :   0.1250 0.0000 0.0000  plane waves:    4197
 k-point   3 :   0.2500 0.0000 0.0000  plane waves:    4195
 k-point   4 :   0.3750 0.0000 0.0000  plane waves:    4207
 k-point   5 :   0.5000 0.0000 0.0000  plane waves:    4164
 k-point   6 :   0.1250 0.1250 0.0000  plane waves:    4181
 k-point   7 :   0.2500 0.1250 0.0000  plane waves:    4207
 k-point   8 :   0.3750 0.1250 0.0000  plane waves:    4205
 k-point   9 :   0.5000 0.1250 0.0000  plane waves:    4209
 k-point  10 :  -0.3750 0.1250 0.0000  plane waves:    4198
 k-point  11 :  -0.2500 0.1250 0.0000  plane waves:    4196
 k-point  12 :  -0.1250 0.1250 0.0000  plane waves:    4204
 k-point  13 :   0.2500 0.2500 0.0000  plane waves:    4192
 k-point  14 :   0.3750 0.2500 0.0000  plane waves:    4201
 k-point  15 :   0.5000 0.2500 0.0000  plane waves:    4194
 k-point  16 :  -0.3750 0.2500 0.0000  plane waves:    4184
 k-point  17 :  -0.2500 0.2500 0.0000  plane waves:    4190
 k-point  18 :   0.3750 0.3750 0.0000  plane waves:    4200
 k-point  19 :   0.5000 0.3750 0.0000  plane waves:    4193
 k-point  20 :  -0.3750 0.3750 0.0000  plane waves:    4176
 k-point  21 :   0.5000 0.5000 0.0000  plane waves:    4184
 k-point  22 :   0.0000 0.0000 0.1111  plane waves:    4200
 k-point  23 :   0.1250-0.0000 0.1111  plane waves:    4191
 k-point  24 :   0.2500 0.0000 0.1111  plane waves:    4199
 k-point  25 :   0.3750 0.0000 0.1111  plane waves:    4204
 k-point  26 :   0.5000 0.0000 0.1111  plane waves:    4201
 k-point  27 :  -0.3750 0.0000 0.1111  plane waves:    4205
 k-point  28 :  -0.2500-0.0000 0.1111  plane waves:    4181
 k-point  29 :  -0.1250-0.0000 0.1111  plane waves:    4198
 k-point  30 :   0.1250 0.1250 0.1111  plane waves:    4193
 k-point  31 :   0.2500 0.1250 0.1111  plane waves:    4189
 k-point  32 :   0.3750 0.1250 0.1111  plane waves:    4210
 k-point  33 :   0.5000 0.1250 0.1111  plane waves:    4195
 k-point  34 :  -0.3750 0.1250 0.1111  plane waves:    4189
 k-point  35 :  -0.2500 0.1250 0.1111  plane waves:    4194
 k-point  36 :  -0.1250 0.1250 0.1111  plane waves:    4185
 k-point  37 :   0.2500 0.2500 0.1111  plane waves:    4198
 k-point  38 :   0.3750 0.2500 0.1111  plane waves:    4198
 k-point  39 :   0.5000 0.2500 0.1111  plane waves:    4198
 k-point  40 :  -0.3750 0.2500 0.1111  plane waves:    4185
 k-point  41 :  -0.2500 0.2500 0.1111  plane waves:    4185
 k-point  42 :  -0.1250 0.2500 0.1111  plane waves:    4199
 k-point  43 :   0.3750 0.3750 0.1111  plane waves:    4203
 k-point  44 :   0.5000 0.3750 0.1111  plane waves:    4195
 k-point  45 :  -0.3750 0.3750 0.1111  plane waves:    4198
 k-point  46 :  -0.2500 0.3750 0.1111  plane waves:    4192
 k-point  47 :  -0.1250 0.3750 0.1111  plane waves:    4205
 k-point  48 :   0.5000 0.5000 0.1111  plane waves:    4198
 k-point  49 :  -0.3750 0.5000 0.1111  plane waves:    4201
 k-point  50 :  -0.2500 0.5000 0.1111  plane waves:    4206
 k-point  51 :  -0.1250 0.5000 0.1111  plane waves:    4200
 k-point  52 :  -0.3750-0.3750 0.1111  plane waves:    4201
 k-point  53 :  -0.2500-0.3750 0.1111  plane waves:    4196
 k-point  54 :  -0.1250-0.3750 0.1111  plane waves:    4199
 k-point  55 :  -0.2500-0.2500 0.1111  plane waves:    4195
 k-point  56 :  -0.1250-0.2500 0.1111  plane waves:    4191
 k-point  57 :  -0.1250-0.1250 0.1111  plane waves:    4196
 k-point  58 :   0.0000 0.0000 0.2222  plane waves:    4196
 k-point  59 :   0.1250-0.0000 0.2222  plane waves:    4183
 k-point  60 :   0.2500-0.0000 0.2222  plane waves:    4196
 k-point  61 :   0.3750-0.0000 0.2222  plane waves:    4209
 k-point  62 :   0.5000 0.0000 0.2222  plane waves:    4196
 k-point  63 :  -0.3750 0.0000 0.2222  plane waves:    4203
 k-point  64 :  -0.2500 0.0000 0.2222  plane waves:    4197
 k-point  65 :  -0.1250-0.0000 0.2222  plane waves:    4192
 k-point  66 :   0.1250 0.1250 0.2222  plane waves:    4188
 k-point  67 :   0.2500 0.1250 0.2222  plane waves:    4195
 k-point  68 :   0.3750 0.1250 0.2222  plane waves:    4200
 k-point  69 :   0.5000 0.1250 0.2222  plane waves:    4191
 k-point  70 :  -0.3750 0.1250 0.2222  plane waves:    4190
 k-point  71 :  -0.2500 0.1250 0.2222  plane waves:    4199
 k-point  72 :  -0.1250 0.1250 0.2222  plane waves:    4195
 k-point  73 :   0.2500 0.2500 0.2222  plane waves:    4197
 k-point  74 :   0.3750 0.2500 0.2222  plane waves:    4199
 k-point  75 :   0.5000 0.2500 0.2222  plane waves:    4192
 k-point  76 :  -0.3750 0.2500 0.2222  plane waves:    4188
 k-point  77 :  -0.2500 0.2500 0.2222  plane waves:    4195
 k-point  78 :  -0.1250 0.2500 0.2222  plane waves:    4191
 k-point  79 :   0.3750 0.3750 0.2222  plane waves:    4189
 k-point  80 :   0.5000 0.3750 0.2222  plane waves:    4202
 k-point  81 :  -0.3750 0.3750 0.2222  plane waves:    4206
 k-point  82 :  -0.2500 0.3750 0.2222  plane waves:    4201
 k-point  83 :  -0.1250 0.3750 0.2222  plane waves:    4210
 k-point  84 :   0.5000 0.5000 0.2222  plane waves:    4198
 k-point  85 :  -0.3750 0.5000 0.2222  plane waves:    4200
 k-point  86 :  -0.2500 0.5000 0.2222  plane waves:    4198
 k-point  87 :  -0.1250 0.5000 0.2222  plane waves:    4196
 k-point  88 :  -0.3750-0.3750 0.2222  plane waves:    4196
 k-point  89 :  -0.2500-0.3750 0.2222  plane waves:    4182
 k-point  90 :  -0.1250-0.3750 0.2222  plane waves:    4187
 k-point  91 :  -0.2500-0.2500 0.2222  plane waves:    4189
 k-point  92 :  -0.1250-0.2500 0.2222  plane waves:    4191
 k-point  93 :  -0.1250-0.1250 0.2222  plane waves:    4188
 k-point  94 :   0.0000-0.0000 0.3333  plane waves:    4160
 k-point  95 :   0.1250 0.0000 0.3333  plane waves:    4190
 k-point  96 :   0.2500-0.0000 0.3333  plane waves:    4195
 k-point  97 :   0.3750-0.0000 0.3333  plane waves:    4208
 k-point  98 :   0.5000-0.0000 0.3333  plane waves:    4208
 k-point  99 :  -0.3750-0.0000 0.3333  plane waves:    4204
 k-point 100 :  -0.2500-0.0000 0.3333  plane waves:    4199
 k-point 101 :  -0.1250 0.0000 0.3333  plane waves:    4187
 k-point 102 :   0.1250 0.1250 0.3333  plane waves:    4203
 k-point 103 :   0.2500 0.1250 0.3333  plane waves:    4201
 k-point 104 :   0.3750 0.1250 0.3333  plane waves:    4201
 k-point 105 :   0.5000 0.1250 0.3333  plane waves:    4211
 k-point 106 :  -0.3750 0.1250 0.3333  plane waves:    4205
 k-point 107 :  -0.2500 0.1250 0.3333  plane waves:    4193
 k-point 108 :  -0.1250 0.1250 0.3333  plane waves:    4184
 k-point 109 :   0.2500 0.2500 0.3333  plane waves:    4194
 k-point 110 :   0.3750 0.2500 0.3333  plane waves:    4192
 k-point 111 :   0.5000 0.2500 0.3333  plane waves:    4199
 k-point 112 :  -0.3750 0.2500 0.3333  plane waves:    4204
 k-point 113 :  -0.2500 0.2500 0.3333  plane waves:    4202
 k-point 114 :  -0.1250 0.2500 0.3333  plane waves:    4199
 k-point 115 :   0.3750 0.3750 0.3333  plane waves:    4206
 k-point 116 :   0.5000 0.3750 0.3333  plane waves:    4196
 k-point 117 :  -0.3750 0.3750 0.3333  plane waves:    4206
 k-point 118 :  -0.2500 0.3750 0.3333  plane waves:    4195
 k-point 119 :  -0.1250 0.3750 0.3333  plane waves:    4200
 k-point 120 :   0.5000 0.5000 0.3333  plane waves:    4212
 k-point 121 :  -0.3750 0.5000 0.3333  plane waves:    4193
 k-point 122 :  -0.2500 0.5000 0.3333  plane waves:    4199
 k-point 123 :  -0.1250 0.5000 0.3333  plane waves:    4190
 k-point 124 :  -0.3750-0.3750 0.3333  plane waves:    4182
 k-point 125 :  -0.2500-0.3750 0.3333  plane waves:    4180
 k-point 126 :  -0.1250-0.3750 0.3333  plane waves:    4188
 k-point 127 :  -0.2500-0.2500 0.3333  plane waves:    4189
 k-point 128 :  -0.1250-0.2500 0.3333  plane waves:    4201
 k-point 129 :  -0.1250-0.1250 0.3333  plane waves:    4188
 k-point 130 :   0.0000 0.0000 0.4444  plane waves:    4184
 k-point 131 :   0.1250 0.0000 0.4444  plane waves:    4187
 k-point 132 :   0.2500-0.0000 0.4444  plane waves:    4199
 k-point 133 :   0.3750-0.0000 0.4444  plane waves:    4203
 k-point 134 :   0.5000-0.0000 0.4444  plane waves:    4199
 k-point 135 :  -0.3750-0.0000 0.4444  plane waves:    4202
 k-point 136 :  -0.2500-0.0000 0.4444  plane waves:    4194
 k-point 137 :  -0.1250-0.0000 0.4444  plane waves:    4187
 k-point 138 :   0.1250 0.1250 0.4444  plane waves:    4205
 k-point 139 :   0.2500 0.1250 0.4444  plane waves:    4204
 k-point 140 :   0.3750 0.1250 0.4444  plane waves:    4200
 k-point 141 :   0.5000 0.1250 0.4444  plane waves:    4206
 k-point 142 :  -0.3750 0.1250 0.4444  plane waves:    4201
 k-point 143 :  -0.2500 0.1250 0.4444  plane waves:    4205
 k-point 144 :  -0.1250 0.1250 0.4444  plane waves:    4203
 k-point 145 :   0.2500 0.2500 0.4444  plane waves:    4200
 k-point 146 :   0.3750 0.2500 0.4444  plane waves:    4201
 k-point 147 :   0.5000 0.2500 0.4444  plane waves:    4198
 k-point 148 :  -0.3750 0.2500 0.4444  plane waves:    4195
 k-point 149 :  -0.2500 0.2500 0.4444  plane waves:    4194
 k-point 150 :  -0.1250 0.2500 0.4444  plane waves:    4200
 k-point 151 :   0.3750 0.3750 0.4444  plane waves:    4192
 k-point 152 :   0.5000 0.3750 0.4444  plane waves:    4192
 k-point 153 :  -0.3750 0.3750 0.4444  plane waves:    4198
 k-point 154 :  -0.2500 0.3750 0.4444  plane waves:    4200
 k-point 155 :  -0.1250 0.3750 0.4444  plane waves:    4199
 k-point 156 :   0.5000 0.5000 0.4444  plane waves:    4204
 k-point 157 :  -0.3750 0.5000 0.4444  plane waves:    4197
 k-point 158 :  -0.2500 0.5000 0.4444  plane waves:    4195
 k-point 159 :  -0.1250 0.5000 0.4444  plane waves:    4203
 k-point 160 :  -0.3750-0.3750 0.4444  plane waves:    4184
 k-point 161 :  -0.2500-0.3750 0.4444  plane waves:    4186
 k-point 162 :  -0.1250-0.3750 0.4444  plane waves:    4204
 k-point 163 :  -0.2500-0.2500 0.4444  plane waves:    4195
 k-point 164 :  -0.1250-0.2500 0.4444  plane waves:    4197
 k-point 165 :  -0.1250-0.1250 0.4444  plane waves:    4184

 maximum and minimum number of plane-waves per node :      2140     2065

 maximum number of plane-waves:      4279
 maximum index in each direction: 
   IXMAX=   11   IYMAX=   11   IZMAX=   11
   IXMIN=  -11   IYMIN=  -11   IZMIN=  -11


 parallel 3D FFT for wavefunctions:
    minimum data exchange during FFTs selected (reduces bandwidth)
 parallel 3D FFT for charge:
    minimum data exchange during FFTs selected (reduces bandwidth)


 total amount of memory used by VASP MPI-rank0   453291. kBytes
=======================================================================

   base      :      30000. kBytes
   nonl-proj :     153161. kBytes
   fftplans  :      12481. kBytes
   grid      :       9393. kBytes
   one-center:        108. kBytes
   wavefun   :     248148. kBytes
 
     INWAV:  cpu time    0.0000: real time    0.0000
 Broyden mixing: mesh for mixing (old mesh)
   NGX = 23   NGY = 23   NGZ = 23
  (NGX  = 96   NGY  = 96   NGZ  = 96)
  gives a total of  12167 points

 initial charge density was supplied:
 charge density of overlapping atoms calculated
 number of electron     132.0000000 magnetization 
 keeping initial charge density in first step


--------------------------------------------------------------------------------------------------------


 Maximum index for augmentation-charges        24879 (set IRDMAX)


--------------------------------------------------------------------------------------------------------


 First call to EWALD:  gamma=   0.354
 Maximum number of real-space cells 3x 3x 3
 Maximum number of reciprocal cells 3x 3x 3

[...]
  atomic energy  EATOM  =     15389.07168825
  ---------------------------------------------------
  free energy    TOTEN  =     72342.57986161 eV

  energy without entropy =    72342.58114471  energy(sigma->0) =    72342.58050316


--------------------------------------------------------------------------------------------------------




--------------------------------------- Iteration      1(  52)  ---------------------------------------


    POTLOK:  cpu time    0.0913: real time    0.0918
    SETDIJ:  cpu time    0.6717: real time    0.6760
    TRIAL :  cpu time   23.9274: real time   24.1291
    CORREC:  cpu time    9.0839: real time    9.1540
    CHARGE:  cpu time    2.6395: real time    2.6570
    --------------------------------------------
      LOOP:  cpu time   36.4238: real time   36.7183

 eigenvalue-minimisations  :     0
 total energy-change (2. order) :-0.2037268E-07  (-0.2359800E-07)
 number of electron     132.0000002 magnetization 
 augmentation part       36.6497787 magnetization 

 Free energy of the ion-electron system (eV)
  ---------------------------------------------------
  alpha Z        PSCENC =      1219.26009200
  Ewald energy   TEWEN  =     65988.09221100
  -Hartree energ DENC   =     -7286.41771180
  -exchange      EXHF   =         0.00000000
  -V(xc)+E(xc)   XCENC  =       795.58926193
  PAW double counting   =    953966.15367065  -953652.32287488
  entropy T*S    EENTRO =        -0.00128306
  eigenvalues    EBANDS =     -4076.84519245
  atomic energy  EATOM  =     15389.07168825
  ---------------------------------------------------
  free energy    TOTEN  =     72342.57986159 eV

  energy without entropy =    72342.58114465  energy(sigma->0) =    72342.58050312


--------------------------------------------------------------------------------------------------------




--------------------------------------- Iteration      1(  53)  ---------------------------------------


    POTLOK:  cpu time    0.0939: real time    0.0945
    SETDIJ:  cpu time    0.6679: real time    0.6719
    TRIAL :  cpu time   23.6236: real time   23.8180
    CORREC:  cpu time    8.9832: real time    9.0557
    CHARGE:  cpu time    2.5915: real time    2.6114
    --------------------------------------------
      LOOP:  cpu time   35.9741: real time   36.2659

 eigenvalue-minimisations  :     0
 total energy-change (2. order) :-0.2561137E-07  (-0.2085179E-07)
 number of electron     132.0000002 magnetization 
 augmentation part       36.6497779 magnetization 

 Free energy of the ion-electron system (eV)
  ---------------------------------------------------
  alpha Z        PSCENC =      1219.26009200
  Ewald energy   TEWEN  =     65988.09221100
  -Hartree energ DENC   =     -7286.41758548
  -exchange      EXHF   =         0.00000000
  -V(xc)+E(xc)   XCENC  =       795.58925472
  PAW double counting   =    953965.39969754  -953651.56887721
  entropy T*S    EENTRO =        -0.00128301
  eigenvalues    EBANDS =     -4076.84533619
  atomic energy  EATOM  =     15389.07168825
  ---------------------------------------------------
  free energy    TOTEN  =     72342.57986156 eV

  energy without entropy =    72342.58114457  energy(sigma->0) =    72342.58050307


--------------------------------------------------------------------------------------------------------




--------------------------------------- Iteration      1(  54)  ---------------------------------------


    POTLOK:  cpu time    0.0893: real time    0.0900
    SETDIJ:  cpu time    0.6610: real time    0.6655
    TRIAL :  cpu time   23.8586: real time   24.0583
    CORREC:  cpu time    9.1000: real time    9.1694
    CHARGE:  cpu time    2.7129: real time    2.7304
    --------------------------------------------
      LOOP:  cpu time   36.4300: real time   36.7225

 eigenvalue-minimisations  :     0
 total energy-change (2. order) :-0.2118759E-07  (-0.9357541E-08)
 number of electron     132.0000002 magnetization 
 augmentation part       36.6497782 magnetization 

 Free energy of the ion-electron system (eV)
  ---------------------------------------------------
  alpha Z        PSCENC =      1219.26009200
  Ewald energy   TEWEN  =     65988.09221100
  -Hartree energ DENC   =     -7286.41729509
  -exchange      EXHF   =         0.00000000
  -V(xc)+E(xc)   XCENC  =       795.58924034
  PAW double counting   =    953964.16516556  -953650.33430472
  entropy T*S    EENTRO =        -0.00128298
  eigenvalues    EBANDS =     -4076.84565279
  atomic energy  EATOM  =     15389.07168825
  ---------------------------------------------------
  free energy    TOTEN  =     72342.57986154 eV

  energy without entropy =    72342.58114453  energy(sigma->0) =    72342.58050304


--------------------------------------------------------------------------------------------------------




--------------------------------------- Iteration      1(  55)  ---------------------------------------


    POTLOK:  cpu time    0.0899: real time    0.0905
    SETDIJ:  cpu time    0.6675: real time    0.6714
    TRIAL :  cpu time   24.8063: real time   25.0102
    CORREC:  cpu time    8.8709: real time    8.9401
    CHARGE:  cpu time    2.6294: real time    2.6461
    --------------------------------------------
      LOOP:  cpu time   37.0759: real time   37.3716

 eigenvalue-minimisations  :     0
 total energy-change (2. order) :-0.9546056E-08  (-0.8153448E-08)
 number of electron     132.0000002 magnetization 
 augmentation part       36.6497782 magnetization 

 Free energy of the ion-electron system (eV)
  ---------------------------------------------------
  alpha Z        PSCENC =      1219.26009200
  Ewald energy   TEWEN  =     65988.09221100
  -Hartree energ DENC   =     -7286.41706039
  -exchange      EXHF   =         0.00000000
  -V(xc)+E(xc)   XCENC  =       795.58923113
  PAW double counting   =    953963.59792249  -953649.76703680
  entropy T*S    EENTRO =        -0.00128296
  eigenvalues    EBANDS =     -4076.84590316
  atomic energy  EATOM  =     15389.07168825
  ---------------------------------------------------
  free energy    TOTEN  =     72342.57986153 eV

  energy without entropy =    72342.58114450  energy(sigma->0) =    72342.58050302


--------------------------------------------------------------------------------------------------------




--------------------------------------- Iteration      1(  56)  ---------------------------------------


    POTLOK:  cpu time    0.0920: real time    0.0926
    SETDIJ:  cpu time    0.6770: real time    0.6819
    TRIAL :  cpu time   24.0639: real time   24.2643
    CORREC:  cpu time    9.1900: real time    9.2595
    CHARGE:  cpu time    2.7628: real time    2.7800
    --------------------------------------------
      LOOP:  cpu time   36.7946: real time   37.0879

 eigenvalue-minimisations  :     0
 total energy-change (2. order) :-0.8847564E-08  (-0.6698714E-08)
 number of electron     132.0000002 magnetization 
 augmentation part       36.6497784 magnetization 

 Free energy of the ion-electron system (eV)
  ---------------------------------------------------
  alpha Z        PSCENC =      1219.26009200
  Ewald energy   TEWEN  =     65988.09221100
  -Hartree energ DENC   =     -7286.41679011
  -exchange      EXHF   =         0.00000000
  -V(xc)+E(xc)   XCENC  =       795.58922143
  PAW double counting   =    953963.03740792  -953649.20650842
  entropy T*S    EENTRO =        -0.00128295
  eigenvalues    EBANDS =     -4076.84617758
  atomic energy  EATOM  =     15389.07168825
  ---------------------------------------------------
  free energy    TOTEN  =     72342.57986153 eV

  energy without entropy =    72342.58114447  energy(sigma->0) =    72342.58050300


--------------------------------------------------------------------------------------------------------




--------------------------------------- Iteration      1(  57)  ---------------------------------------


    POTLOK:  cpu time    0.0893: real time    0.0898
    SETDIJ:  cpu time    0.6692: real time    0.6735
    TRIAL :  cpu time   25.0060: real time   25.2058
    CORREC:  cpu time    8.8839: real time    8.9504
    CHARGE:  cpu time    2.6419: real time    2.6577
    --------------------------------------------
      LOOP:  cpu time   37.3001: real time   37.5881

 eigenvalue-minimisations  :     0
 total energy-change (2. order) :-0.1071021E-07  (-0.8904682E-08)
 number of electron     132.0000002 magnetization 
 augmentation part       36.6497787 magnetization 

 Free energy of the ion-electron system (eV)
  ---------------------------------------------------
  alpha Z        PSCENC =      1219.26009200
  Ewald energy   TEWEN  =     65988.09221100
  -Hartree energ DENC   =     -7286.41666859
  -exchange      EXHF   =         0.00000000
  -V(xc)+E(xc)   XCENC  =       795.58921677
  PAW double counting   =    953962.68853693  -953648.85762827
  entropy T*S    EENTRO =        -0.00128292
  eigenvalues    EBANDS =     -4076.84630363
  atomic energy  EATOM  =     15389.07168825
  ---------------------------------------------------
  free energy    TOTEN  =     72342.57986151 eV

  energy without entropy =    72342.58114444  energy(sigma->0) =    72342.58050298


--------------------------------------------------------------------------------------------------------




--------------------------------------- Iteration      1(  58)  ---------------------------------------


    POTLOK:  cpu time    0.0928: real time    0.0934
    SETDIJ:  cpu time    0.6704: real time    0.6750
    TRIAL :  cpu time   24.2114: real time   24.4136
    CORREC:  cpu time    9.2559: real time    9.3289
    CHARGE:  cpu time    2.6795: real time    2.6987
    --------------------------------------------
      LOOP:  cpu time   36.9183: real time   37.2189

 eigenvalue-minimisations  :     0
 total energy-change (2. order) :-0.8847564E-08  (-0.3438261E-08)
 number of electron     132.0000002 magnetization 
 augmentation part       36.6497788 magnetization 

 Free energy of the ion-electron system (eV)
  ---------------------------------------------------
  alpha Z        PSCENC =      1219.26009200
  Ewald energy   TEWEN  =     65988.09221100
  -Hartree energ DENC   =     -7286.41641078
  -exchange      EXHF   =         0.00000000
  -V(xc)+E(xc)   XCENC  =       795.58920717
  PAW double counting   =    953961.99755489  -953648.16662984
  entropy T*S    EENTRO =        -0.00128292
  eigenvalues    EBANDS =     -4076.84656826
  atomic energy  EATOM  =     15389.07168825
  ---------------------------------------------------
  free energy    TOTEN  =     72342.57986151 eV

  energy without entropy =    72342.58114442  energy(sigma->0) =    72342.58050296


--------------------------------------------------------------------------------------------------------




--------------------------------------- Iteration      1(  59)  ---------------------------------------


    POTLOK:  cpu time    0.0922: real time    0.0927
    SETDIJ:  cpu time    0.6700: real time    0.6745
    TRIAL :  cpu time   24.4473: real time   24.6409
    CORREC:  cpu time    8.3561: real time    8.4148
    CHARGE:  cpu time    2.8827: real time    2.9003
    --------------------------------------------
      LOOP:  cpu time   36.4579: real time   36.7342

 eigenvalue-minimisations  :     0
 total energy-change (2. order) :-0.1513399E-08  ( 0.3015706E-07)
 number of electron     132.0000002 magnetization 
 augmentation part       36.6497790 magnetization 

 Free energy of the ion-electron system (eV)
  ---------------------------------------------------
  alpha Z        PSCENC =      1219.26009200
  Ewald energy   TEWEN  =     65988.09221100
  -Hartree energ DENC   =     -7286.41637473
  -exchange      EXHF   =         0.00000000
  -V(xc)+E(xc)   XCENC  =       795.58920591
  PAW double counting   =    953961.87373703  -953648.04280849
  entropy T*S    EENTRO =        -0.00128290
  eigenvalues    EBANDS =     -4076.84660655
  atomic energy  EATOM  =     15389.07168825
  ---------------------------------------------------
  free energy    TOTEN  =     72342.57986150 eV

  energy without entropy =    72342.58114441  energy(sigma->0) =    72342.58050295


--------------------------------------------------------------------------------------------------------




--------------------------------------- Iteration      1(  60)  ---------------------------------------


    POTLOK:  cpu time    0.0878: real time    0.0883
    SETDIJ:  cpu time    0.6705: real time    0.6745
    TRIAL :  cpu time   24.7055: real time   24.8963
    CORREC:  cpu time    9.1200: real time    9.1856
    CHARGE:  cpu time    2.6493: real time    2.6669
    --------------------------------------------
      LOOP:  cpu time   37.2433: real time   37.5235

 eigenvalue-minimisations  :     0
 total energy-change (2. order) :-0.1059379E-07  (-0.2447863E-08)
 number of electron     132.0000002 magnetization 
 augmentation part       36.6497790 magnetization 

 Free energy of the ion-electron system (eV)
  ---------------------------------------------------
  alpha Z        PSCENC =      1219.26009200
  Ewald energy   TEWEN  =     65988.09221100
  -Hartree energ DENC   =     -7286.41626583
  -exchange      EXHF   =         0.00000000
  -V(xc)+E(xc)   XCENC  =       795.58920226
  PAW double counting   =    953961.54722842  -953647.71629179
  entropy T*S    EENTRO =        -0.00128290
  eigenvalues    EBANDS =     -4076.84671992
  atomic energy  EATOM  =     15389.07168825
  ---------------------------------------------------
  free energy    TOTEN  =     72342.57986149 eV

  energy without entropy =    72342.58114439  energy(sigma->0) =    72342.58050294


--------------------------------------------------------------------------------------------------------




--------------------------------------- Iteration      1(  61)  ---------------------------------------


    POTLOK:  cpu time    0.0912: real time    0.0918
    SETDIJ:  cpu time    0.6639: real time    0.6677
    TRIAL :  cpu time   23.6996: real time   23.8932
    CORREC:  cpu time    9.1760: real time    9.2462
    CHARGE:  cpu time    2.7387: real time    2.7560
    --------------------------------------------
      LOOP:  cpu time   36.3813: real time   36.6677

 eigenvalue-minimisations  :     0
 total energy-change (2. order) :-0.1396984E-08  (-0.9670922E-08)
 number of electron     132.0000002 magnetization 
 augmentation part       36.6497793 magnetization 

 Free energy of the ion-electron system (eV)
  ---------------------------------------------------
  alpha Z        PSCENC =      1219.26009200
  Ewald energy   TEWEN  =     65988.09221100
  -Hartree energ DENC   =     -7286.41624732
  -exchange      EXHF   =         0.00000000
  -V(xc)+E(xc)   XCENC  =       795.58920171
  PAW double counting   =    953961.47931260  -953647.64837428
  entropy T*S    EENTRO =        -0.00128287
  eigenvalues    EBANDS =     -4076.84673956
  atomic energy  EATOM  =     15389.07168825
  ---------------------------------------------------
  free energy    TOTEN  =     72342.57986149 eV

  energy without entropy =    72342.58114437  energy(sigma->0) =    72342.58050293


--------------------------------------------------------------------------------------------------------




--------------------------------------- Iteration      1(  62)  ---------------------------------------


    POTLOK:  cpu time    0.0885: real time    0.0890
    SETDIJ:  cpu time    0.6723: real time    0.6764
    TRIAL :  cpu time   23.9917: real time   24.1861
    CORREC:  cpu time    8.9610: real time    9.0276
    CHARGE:  cpu time    2.6935: real time    2.7118
    --------------------------------------------
      LOOP:  cpu time   36.4184: real time   36.7027

 eigenvalue-minimisations  :     0
 total energy-change (2. order) :-0.7217750E-08  (-0.7682692E-08)
 number of electron     132.0000002 magnetization 
 augmentation part       36.6497798 magnetization 

 Free energy of the ion-electron system (eV)
  ---------------------------------------------------
  alpha Z        PSCENC =      1219.26009200
  Ewald energy   TEWEN  =     65988.09221100
  -Hartree energ DENC   =     -7286.41604241
  -exchange      EXHF   =         0.00000000
  -V(xc)+E(xc)   XCENC  =       795.58919582
  PAW double counting   =    953960.97378979  -953647.14284037
  entropy T*S    EENTRO =        -0.00128285
  eigenvalues    EBANDS =     -4076.84694971
  atomic energy  EATOM  =     15389.07168825
  ---------------------------------------------------
  free energy    TOTEN  =     72342.57986148 eV

  energy without entropy =    72342.58114433  energy(sigma->0) =    72342.58050291


--------------------------------------------------------------------------------------------------------




--------------------------------------- Iteration      1(  63)  ---------------------------------------


    POTLOK:  cpu time    0.0920: real time    0.0925
    SETDIJ:  cpu time    0.6667: real time    0.6713
    TRIAL :  cpu time   24.3141: real time   24.5107
    CORREC:  cpu time    8.9327: real time    8.9987
    CHARGE:  cpu time    2.6317: real time    2.6477
    --------------------------------------------
      LOOP:  cpu time   36.6506: real time   36.9347

 eigenvalue-minimisations  :     0
 total energy-change (2. order) :-0.2561137E-08  (-0.4183599E-08)
 number of electron     132.0000002 magnetization 
 augmentation part       36.6497799 magnetization 

 Free energy of the ion-electron system (eV)
  ---------------------------------------------------
  alpha Z        PSCENC =      1219.26009200
  Ewald energy   TEWEN  =     65988.09221100
  -Hartree energ DENC   =     -7286.41585402
  -exchange      EXHF   =         0.00000000
  -V(xc)+E(xc)   XCENC  =       795.58919041
  PAW double counting   =    953960.45955141  -953646.62858897
  entropy T*S    EENTRO =        -0.00128284
  eigenvalues    EBANDS =     -4076.84714575
  atomic energy  EATOM  =     15389.07168825
  ---------------------------------------------------
  free energy    TOTEN  =     72342.57986148 eV

  energy without entropy =    72342.58114432  energy(sigma->0) =    72342.58050290


--------------------------------------------------------------------------------------------------------




--------------------------------------- Iteration      1(  64)  ---------------------------------------


    POTLOK:  cpu time    0.0928: real time    0.0933
    SETDIJ:  cpu time    0.6678: real time    0.6719
    TRIAL :  cpu time   24.1007: real time   24.2948
    CORREC:  cpu time    9.0484: real time    9.1165
    CHARGE:  cpu time    2.7545: real time    2.7726
    --------------------------------------------
      LOOP:  cpu time   36.6723: real time   36.9576

 eigenvalue-minimisations  :     0
 total energy-change (2. order) :-0.5238689E-08  (-0.5551423E-09)
 number of electron     132.0000002 magnetization 
 augmentation part       36.6497799 magnetization 

 Free energy of the ion-electron system (eV)
  ---------------------------------------------------
  alpha Z        PSCENC =      1219.26009200
  Ewald energy   TEWEN  =     65988.09221100
  -Hartree energ DENC   =     -7286.41581277
  -exchange      EXHF   =         0.00000000
  -V(xc)+E(xc)   XCENC  =       795.58918924
  PAW double counting   =    953960.27785522  -953646.44688742
  entropy T*S    EENTRO =        -0.00128284
  eigenvalues    EBANDS =     -4076.84719120
  atomic energy  EATOM  =     15389.07168825
  ---------------------------------------------------
  free energy    TOTEN  =     72342.57986148 eV

  energy without entropy =    72342.58114431  energy(sigma->0) =    72342.58050290


--------------------------------------------------------------------------------------------------------




--------------------------------------- Iteration      1(  65)  ---------------------------------------


    POTLOK:  cpu time    0.0911: real time    0.0917
