<?xml version="1.0" encoding="ISO-8859-1"?>
<modeling>
 <generator>
  <i name="program" type="string">vasp </i>
  <i name="version" type="string">6.2.0  </i>
  <i name="subversion" type="string">18Jan21 (build Jan 05 2022 15:41:44) complex                          parallel </i>
  <i name="platform" type="string">LinuxIFC </i>
  <i name="date" type="string">2025 05 07 </i>
  <i name="time" type="string">16:27:16 </i>
 </generator>
 <incar>
  <i type="string" name="SYSTEM">routine with relax: pwdword</i>
  <i type="string" name="PREC">Acc</i>
  <i type="int" name="IALGO">    38</i>
  <i type="string" name="ALGO">A</i>
  <i type="logical" name="ADDGRID"> T  </i>
  <i type="int" name="ICHARG">     2</i>
  <i type="int" name="NELM">   100</i>
  <i type="int" name="NELMIN">     6</i>
  <i name="EDIFF">      0.00000000</i>
  <i type="int" name="NSW">     0</i>
  <i type="int" name="ISIF">    -1</i>
  <i name="ENCUT">    600.00000000</i>
  <i type="logical" name="LREAL"> F  </i>
  <i type="int" name="ISMEAR">     0</i>
  <i name="SIGMA">      0.02000000</i>
  <i type="logical" name="LASPH"> T  </i>
  <i type="string" name="METAGGA">R2SCAN</i>
  <i type="logical" name="LMIXTAU"> F  </i>
 </incar>
 <primitive_cell>
  <structure name="primitive_cell" >
   <crystal>
    <varray name="basis" >
     <v>       5.35267620       0.00000000      -2.74913069 </v>
     <v>      -1.99558790       4.96676670      -2.74913069 </v>
     <v>       0.00000000       0.00000000       6.01738000 </v>
    </varray>
    <i name="volume">    159.97501927 </i>
    <varray name="rec_basis" >
     <v>       0.18682243       0.07506304       0.00000000 </v>
     <v>       0.00000000       0.20133823       0.00000000 </v>
     <v>       0.08535264       0.12627808       0.16618528 </v>
    </varray>
   </crystal>
   <varray name="positions" >
    <v>       0.00000000       0.00000000       0.50000000 </v>
    <v>       0.00000000       0.50000000       1.00000000 </v>
    <v>       0.50000000       0.50000000       0.50000000 </v>
    <v>       0.50000000       0.00000000       0.00000000 </v>
    <v>       0.00000000       0.50000000       0.50000000 </v>
    <v>       0.25000000       0.25000000       1.00000000 </v>
    <v>       0.75000000       0.75000000       1.00000000 </v>
    <v>       0.50000000       0.00000000       0.50000000 </v>
    <v>       0.24495000       0.74495000       0.98991000 </v>
    <v>       0.75505000       0.25505000       0.01009000 </v>
    <v>       0.74495000       0.75505000       0.50000000 </v>
    <v>       0.25505000       0.24495000       0.50000000 </v>
   </varray>
  </structure>
  <varray name="primitive_index" >
   <v type="int" >        1 </v>
   <v type="int" >        2 </v>
   <v type="int" >        3 </v>
   <v type="int" >        4 </v>
   <v type="int" >        5 </v>
   <v type="int" >        6 </v>
   <v type="int" >        7 </v>
   <v type="int" >        8 </v>
   <v type="int" >        9 </v>
   <v type="int" >       10 </v>
   <v type="int" >       11 </v>
   <v type="int" >       12 </v>
  </varray>
 </primitive_cell>
 <kpoints>
  <generation param="Gamma">
   <v type="int" name="divisions">       7        7        8 </v>
   <v name="usershift">      0.00000000       0.00000000       0.00000000 </v>
   <v name="genvec1">      0.14285714       0.00000000       0.00000000 </v>
   <v name="genvec2">      0.00000000       0.14285714       0.00000000 </v>
   <v name="genvec3">      0.00000000      -0.00000000       0.12500000 </v>
   <v name="shift">      0.00000000       0.00000000       0.00000000 </v>
  </generation>
  <varray name="kpointlist" >
   <v>       0.00000000       0.00000000       0.00000000 </v>
   <v>       0.14285714       0.00000000       0.00000000 </v>
   <v>       0.28571429       0.00000000       0.00000000 </v>
   <v>       0.42857143      -0.00000000       0.00000000 </v>
   <v>       0.14285714       0.14285714       0.00000000 </v>
   <v>       0.28571429       0.14285714       0.00000000 </v>
   <v>       0.42857143       0.14285714       0.00000000 </v>
   <v>      -0.42857143       0.14285714       0.00000000 </v>
   <v>      -0.28571429       0.14285714       0.00000000 </v>
   <v>      -0.14285714       0.14285714       0.00000000 </v>
   <v>       0.28571429       0.28571429       0.00000000 </v>
   <v>       0.42857143       0.28571429       0.00000000 </v>
   <v>      -0.42857143       0.28571429       0.00000000 </v>
   <v>      -0.28571429       0.28571429       0.00000000 </v>
   <v>       0.42857143       0.42857143       0.00000000 </v>
   <v>      -0.42857143       0.42857143       0.00000000 </v>
   <v>      -0.00000000      -0.00000000       0.12500000 </v>
   <v>       0.14285714      -0.00000000       0.12500000 </v>
   <v>       0.28571429       0.00000000       0.12500000 </v>
   <v>       0.42857143      -0.00000000       0.12500000 </v>
   <v>      -0.42857143       0.00000000       0.12500000 </v>
   <v>      -0.28571429      -0.00000000       0.12500000 </v>
   <v>      -0.14285714      -0.00000000       0.12500000 </v>
   <v>       0.14285714       0.14285714       0.12500000 </v>
   <v>       0.28571429       0.14285714       0.12500000 </v>
   <v>       0.42857143       0.14285714       0.12500000 </v>
   <v>      -0.42857143       0.14285714       0.12500000 </v>
   <v>      -0.28571429       0.14285714       0.12500000 </v>
   <v>      -0.14285714       0.14285714       0.12500000 </v>
   <v>       0.28571429       0.28571429       0.12500000 </v>
   <v>       0.42857143       0.28571429       0.12500000 </v>
   <v>      -0.42857143       0.28571429       0.12500000 </v>
   <v>      -0.28571429       0.28571429       0.12500000 </v>
   <v>      -0.14285714       0.28571429       0.12500000 </v>
   <v>       0.42857143       0.42857143       0.12500000 </v>
   <v>      -0.42857143       0.42857143       0.12500000 </v>
   <v>      -0.28571429       0.42857143       0.12500000 </v>
   <v>      -0.14285714       0.42857143       0.12500000 </v>
   <v>      -0.42857143      -0.42857143       0.12500000 </v>
   <v>      -0.28571429      -0.42857143       0.12500000 </v>
   <v>      -0.14285714      -0.42857143       0.12500000 </v>
   <v>      -0.28571429      -0.28571429       0.12500000 </v>
   <v>      -0.14285714      -0.28571429       0.12500000 </v>
   <v>      -0.14285714      -0.14285714       0.12500000 </v>
   <v>      -0.00000000      -0.00000000       0.25000000 </v>
   <v>       0.14285714      -0.00000000       0.25000000 </v>
   <v>       0.28571429       0.00000000       0.25000000 </v>
   <v>       0.42857143      -0.00000000       0.25000000 </v>
   <v>      -0.42857143       0.00000000       0.25000000 </v>
   <v>      -0.28571429      -0.00000000       0.25000000 </v>
   <v>      -0.14285714      -0.00000000       0.25000000 </v>
   <v>       0.14285714       0.14285714       0.25000000 </v>
   <v>       0.28571429       0.14285714       0.25000000 </v>
   <v>       0.42857143       0.14285714       0.25000000 </v>
   <v>      -0.42857143       0.14285714       0.25000000 </v>
   <v>      -0.28571429       0.14285714       0.25000000 </v>
   <v>      -0.14285714       0.14285714       0.25000000 </v>
   <v>       0.28571429       0.28571429       0.25000000 </v>
   <v>       0.42857143       0.28571429       0.25000000 </v>
   <v>      -0.42857143       0.28571429       0.25000000 </v>
   <v>      -0.28571429       0.28571429       0.25000000 </v>
   <v>      -0.14285714       0.28571429       0.25000000 </v>
   <v>       0.42857143       0.42857143       0.25000000 </v>
   <v>      -0.42857143       0.42857143       0.25000000 </v>
   <v>      -0.28571429       0.42857143       0.25000000 </v>
   <v>      -0.14285714       0.42857143       0.25000000 </v>
   <v>      -0.42857143      -0.42857143       0.25000000 </v>
   <v>      -0.28571429      -0.42857143       0.25000000 </v>
   <v>      -0.14285714      -0.42857143       0.25000000 </v>
   <v>      -0.28571429      -0.28571429       0.25000000 </v>
   <v>      -0.14285714      -0.28571429       0.25000000 </v>
   <v>      -0.14285714      -0.14285714       0.25000000 </v>
   <v>      -0.00000000      -0.00000000       0.37500000 </v>
   <v>       0.14285714      -0.00000000       0.37500000 </v>
   <v>       0.28571429      -0.00000000       0.37500000 </v>
   <v>       0.42857143      -0.00000000       0.37500000 </v>
   <v>      -0.42857143      -0.00000000       0.37500000 </v>
   <v>      -0.28571429      -0.00000000       0.37500000 </v>
   <v>      -0.14285714      -0.00000000       0.37500000 </v>
   <v>       0.14285714       0.14285714       0.37500000 </v>
   <v>       0.28571429       0.14285714       0.37500000 </v>
   <v>       0.42857143       0.14285714       0.37500000 </v>
   <v>      -0.42857143       0.14285714       0.37500000 </v>
   <v>      -0.28571429       0.14285714       0.37500000 </v>
   <v>      -0.14285714       0.14285714       0.37500000 </v>
   <v>       0.28571429       0.28571429       0.37500000 </v>
   <v>       0.42857143       0.28571429       0.37500000 </v>
   <v>      -0.42857143       0.28571429       0.37500000 </v>
   <v>      -0.28571429       0.28571429       0.37500000 </v>
   <v>      -0.14285714       0.28571429       0.37500000 </v>
   <v>       0.42857143       0.42857143       0.37500000 </v>
   <v>      -0.42857143       0.42857143       0.37500000 </v>
   <v>      -0.28571429       0.42857143       0.37500000 </v>
   <v>      -0.14285714       0.42857143       0.37500000 </v>
   <v>      -0.42857143      -0.42857143       0.37500000 </v>
   <v>      -0.28571429      -0.42857143       0.37500000 </v>
   <v>      -0.14285714      -0.42857143       0.37500000 </v>
   <v>      -0.28571429      -0.28571429       0.37500000 </v>
   <v>      -0.14285714      -0.28571429       0.37500000 </v>
   <v>      -0.14285714      -0.14285714       0.37500000 </v>
   <v>      -0.00000000      -0.00000000       0.50000000 </v>
   <v>       0.14285714      -0.00000000       0.50000000 </v>
   <v>       0.28571429       0.00000000       0.50000000 </v>
   <v>       0.42857143      -0.00000000       0.50000000 </v>
   <v>       0.14285714       0.14285714       0.50000000 </v>
   <v>       0.28571429       0.14285714       0.50000000 </v>
   <v>       0.42857143       0.14285714       0.50000000 </v>
   <v>      -0.42857143       0.14285714       0.50000000 </v>
   <v>      -0.28571429       0.14285714       0.50000000 </v>
   <v>      -0.14285714       0.14285714       0.50000000 </v>
   <v>       0.28571429       0.28571429       0.50000000 </v>
   <v>       0.42857143       0.28571429       0.50000000 </v>
   <v>      -0.42857143       0.28571429       0.50000000 </v>
   <v>      -0.28571429       0.28571429       0.50000000 </v>
   <v>       0.42857143       0.42857143       0.50000000 </v>
   <v>      -0.42857143       0.42857143       0.50000000 </v>
  </varray>
  <varray name="weights" >
   <v>       0.00255102 </v>
   <v>       0.01020408 </v>
   <v>       0.01020408 </v>
   <v>       0.01020408 </v>
   <v>       0.00510204 </v>
   <v>       0.01020408 </v>
   <v>       0.01020408 </v>
   <v>       0.01020408 </v>
   <v>       0.01020408 </v>
   <v>       0.00510204 </v>
   <v>       0.00510204 </v>
   <v>       0.01020408 </v>
   <v>       0.01020408 </v>
   <v>       0.00510204 </v>
   <v>       0.00510204 </v>
   <v>       0.00510204 </v>
   <v>       0.00510204 </v>
   <v>       0.01020408 </v>
   <v>       0.01020408 </v>
   <v>       0.01020408 </v>
   <v>       0.01020408 </v>
   <v>       0.01020408 </v>
   <v>       0.01020408 </v>
   <v>       0.00510204 </v>
   <v>       0.01020408 </v>
   <v>       0.01020408 </v>
   <v>       0.01020408 </v>
   <v>       0.01020408 </v>
   <v>       0.01020408 </v>
   <v>       0.00510204 </v>
   <v>       0.01020408 </v>
   <v>       0.01020408 </v>
   <v>       0.01020408 </v>
   <v>       0.01020408 </v>
   <v>       0.00510204 </v>
   <v>       0.01020408 </v>
   <v>       0.01020408 </v>
   <v>       0.01020408 </v>
   <v>       0.00510204 </v>
   <v>       0.01020408 </v>
   <v>       0.01020408 </v>
   <v>       0.00510204 </v>
   <v>       0.01020408 </v>
   <v>       0.00510204 </v>
   <v>       0.00510204 </v>
   <v>       0.01020408 </v>
   <v>       0.01020408 </v>
   <v>       0.01020408 </v>
   <v>       0.01020408 </v>
   <v>       0.01020408 </v>
   <v>       0.01020408 </v>
   <v>       0.00510204 </v>
   <v>       0.01020408 </v>
   <v>       0.01020408 </v>
   <v>       0.01020408 </v>
   <v>       0.01020408 </v>
   <v>       0.01020408 </v>
   <v>       0.00510204 </v>
   <v>       0.01020408 </v>
   <v>       0.01020408 </v>
   <v>       0.01020408 </v>
   <v>       0.01020408 </v>
   <v>       0.00510204 </v>
   <v>       0.01020408 </v>
   <v>       0.01020408 </v>
   <v>       0.01020408 </v>
   <v>       0.00510204 </v>
   <v>       0.01020408 </v>
   <v>       0.01020408 </v>
   <v>       0.00510204 </v>
   <v>       0.01020408 </v>
   <v>       0.00510204 </v>
   <v>       0.00510204 </v>
   <v>       0.01020408 </v>
   <v>       0.01020408 </v>
   <v>       0.01020408 </v>
   <v>       0.01020408 </v>
   <v>       0.01020408 </v>
   <v>       0.01020408 </v>
   <v>       0.00510204 </v>
   <v>       0.01020408 </v>
   <v>       0.01020408 </v>
   <v>       0.01020408 </v>
   <v>       0.01020408 </v>
   <v>       0.01020408 </v>
   <v>       0.00510204 </v>
   <v>       0.01020408 </v>
   <v>       0.01020408 </v>
   <v>       0.01020408 </v>
   <v>       0.01020408 </v>
   <v>       0.00510204 </v>
   <v>       0.01020408 </v>
   <v>       0.01020408 </v>
   <v>       0.01020408 </v>
   <v>       0.00510204 </v>
   <v>       0.01020408 </v>
   <v>       0.01020408 </v>
   <v>       0.00510204 </v>
   <v>       0.01020408 </v>
   <v>       0.00510204 </v>
   <v>       0.00255102 </v>
   <v>       0.01020408 </v>
   <v>       0.01020408 </v>
   <v>       0.01020408 </v>
   <v>       0.00510204 </v>
   <v>       0.01020408 </v>
   <v>       0.01020408 </v>
   <v>       0.01020408 </v>
   <v>       0.01020408 </v>
   <v>       0.00510204 </v>
   <v>       0.00510204 </v>
   <v>       0.01020408 </v>
   <v>       0.01020408 </v>
   <v>       0.00510204 </v>
   <v>       0.00510204 </v>
   <v>       0.00510204 </v>
  </varray>
 </kpoints>
 <parameters>
  <separator name="general" >
   <i type="string" name="SYSTEM">routine with relax: pwdword</i>
   <i type="logical" name="LCOMPAT"> F  </i>
  </separator>
  <separator name="electronic" >
   <i type="string" name="PREC">acc</i>
   <i name="ENMAX">    600.00000000</i>
   <i name="ENAUG">    535.51400000</i>
   <i name="EDIFF">      0.00000000</i>
   <i type="int" name="IALGO">    58</i>
   <i type="int" name="IWAVPR">    10</i>
   <i type="int" name="NBANDS">    54</i>
   <i type="int" name="NBANDSLOW">    -1</i>
   <i type="int" name="NBANDSHIGH">    -1</i>
   <i name="NELECT">     84.00000000</i>
   <i type="int" name="TURBO">     0</i>
   <i type="int" name="IRESTART">     0</i>
   <i type="int" name="NREBOOT">     0</i>
   <i type="int" name="NMIN">     0</i>
   <i name="EREF">      0.00000000</i>
   <separator name="electronic smearing" >
    <i type="int" name="ISMEAR">     0</i>
    <i name="SIGMA">      0.02000000</i>
    <i name="KSPACING">      0.50000000</i>
    <i type="logical" name="KGAMMA"> T  </i>
    <i type="logical" name="KBLOWUP"> F  </i>
   </separator>
   <separator name="electronic projectors" >
    <i type="logical" name="LREAL"> F  </i>
    <v name="ROPT">      0.00000000      0.00000000      0.00000000</v>
    <i type="int" name="LMAXPAW">  -100</i>
    <i type="int" name="LMAXMIX">     2</i>
    <i type="logical" name="NLSPLINE"> F  </i>
   </separator>
   <separator name="electronic startup" >
    <i type="int" name="ISTART">     0</i>
    <i type="int" name="ICHARG">     2</i>
    <i type="int" name="INIWAV">     1</i>
   </separator>
   <separator name="electronic spin" >
    <i type="int" name="ISPIN">     1</i>
    <i type="logical" name="LNONCOLLINEAR"> F  </i>
    <v name="MAGMOM">      1.00000000      1.00000000      1.00000000      1.00000000      1.00000000      1.00000000      1.00000000      1.00000000      1.00000000      1.00000000      1.00000000      1.00000000</v>
    <i name="NUPDOWN">     -1.00000000</i>
    <i type="logical" name="LSORBIT"> F  </i>
    <v name="SAXIS">      0.00000000      0.00000000      1.00000000</v>
    <i type="logical" name="LSPIRAL"> F  </i>
    <v name="QSPIRAL">      0.00000000      0.00000000      0.00000000</v>
    <i type="logical" name="LZEROZ"> F  </i>
   </separator>
   <separator name="electronic exchange-correlation" >
    <i type="logical" name="LASPH"> T  </i>
    <i type="logical" name="LMETAGGA"> F  </i>
   </separator>
   <separator name="electronic convergence" >
    <i type="int" name="NELM">   100</i>
    <i type="int" name="NELMDL">    -5</i>
    <i type="int" name="NELMIN">     6</i>
    <i name="ENINI">    600.00000000</i>
    <separator name="electronic convergence detail" >
     <i type="logical" name="LDIAG"> T  </i>
     <i type="logical" name="LSUBROT"> F  </i>
     <i name="WEIMIN">      0.00000000</i>
     <i name="EBREAK">      0.00000000</i>
     <i name="DEPER">      0.30000000</i>
     <i type="int" name="NRMM">     4</i>
     <i name="TIME">      0.40000000</i>
    </separator>
   </separator>
   <separator name="electronic mixer" >
    <i name="AMIX">      0.40000000</i>
    <i name="BMIX">      1.00000000</i>
    <i name="AMIN">      0.10000000</i>
    <i name="AMIX_MAG">      1.60000000</i>
    <i name="BMIX_MAG">      1.00000000</i>
    <separator name="electronic mixer details" >
     <i type="int" name="IMIX">     4</i>
     <i type="logical" name="MIXFIRST"> F  </i>
     <i type="int" name="MAXMIX">   -45</i>
     <i name="WC">    100.00000000</i>
     <i type="int" name="INIMIX">     1</i>
     <i type="int" name="MIXPRE">     1</i>
     <i type="int" name="MREMOVE">     5</i>
    </separator>
   </separator>
   <separator name="electronic dipolcorrection" >
    <i type="logical" name="LDIPOL"> F  </i>
    <i type="logical" name="LMONO"> F  </i>
    <i type="int" name="IDIPOL">     0</i>
    <i name="EPSILON">      1.00000000</i>
    <v name="DIPOL">   -100.00000000   -100.00000000   -100.00000000</v>
    <i name="EFIELD">      0.00000000</i>
   </separator>
  </separator>
  <separator name="grids" >
   <i type="int" name="NGX">    48</i>
   <i type="int" name="NGY">    48</i>
   <i type="int" name="NGZ">    48</i>
   <i type="int" name="NGXF">    96</i>
   <i type="int" name="NGYF">    96</i>
   <i type="int" name="NGZF">    96</i>
   <i type="logical" name="ADDGRID"> T  </i>
  </separator>
  <separator name="ionic" >
   <i type="int" name="NSW">     0</i>
   <i type="int" name="IBRION">    -1</i>
   <i type="int" name="MDALGO">     0</i>
   <i type="int" name="ISIF">    -1</i>
   <i name="PSTRESS">      0.00000000</i>
   <i name="EDIFFG">      0.00000001</i>
   <i type="int" name="NFREE">     0</i>
   <i name="POTIM">      0.50000000</i>
   <i name="SMASS">     -3.00000000</i>
   <i name="SCALEE">      1.00000000</i>
  </separator>
  <separator name="ionic md" >
   <i name="TEBEG">      0.00010000</i>
   <i name="TEEND">      0.00010000</i>
   <i type="int" name="NBLOCK">     1</i>
   <i type="int" name="KBLOCK">     1</i>
   <i type="int" name="NPACO">   256</i>
   <i name="APACO">     16.00000000</i>
  </separator>
  <separator name="symmetry" >
   <i type="int" name="ISYM">     2</i>
   <i name="SYMPREC">      0.00001000</i>
  </separator>
  <separator name="dos" >
   <i type="int" name="LORBIT">     0</i>
   <v name="RWIGS">     -1.00000000     -1.00000000     -1.00000000</v>
   <i type="int" name="NEDOS">   301</i>
   <i name="EMIN">     10.00000000</i>
   <i name="EMAX">    -10.00000000</i>
   <i name="EFERMI">      0.00000000</i>
  </separator>
  <separator name="writing" >
   <i type="int" name="NWRITE">     2</i>
   <i type="logical" name="LWAVE"> T  </i>
   <i type="logical" name="LDOWNSAMPLE"> F  </i>
   <i type="logical" name="LCHARG"> T  </i>
   <i type="logical" name="LPARD"> F  </i>
   <i type="logical" name="LVTOT"> F  </i>
   <i type="logical" name="LVHAR"> F  </i>
   <i type="logical" name="LELF"> F  </i>
   <i type="logical" name="LOPTICS"> F  </i>
   <v name="STM">      0.00000000      0.00000000      0.00000000      0.00000000      0.00000000      0.00000000      0.00000000</v>
  </separator>
  <separator name="performance" >
   <i type="int" name="NPAR">     6</i>
   <i type="int" name="NSIM">     4</i>
   <i type="int" name="NBLK">    -1</i>
   <i type="logical" name="LPLANE"> T  </i>
   <i type="logical" name="LSCALAPACK"> T  </i>
   <i type="logical" name="LSCAAWARE"> F  </i>
   <i type="logical" name="LSCALU"> F  </i>
   <i type="logical" name="LASYNC"> F  </i>
   <i type="logical" name="LORBITALREAL"> F  </i>
  </separator>
  <separator name="miscellaneous" >
   <i type="int" name="IDIOT">     3</i>
   <i type="int" name="PHON_NSTRUCT">    -1</i>
   <i type="logical" name="LMUSIC"> F  </i>
   <v name="POMASS">     10.81100000     95.94000000     28.08500000</v>
   <v name="DARWINR">      0.00000000      0.00000000      0.00000000</v>
   <v name="DARWINV">      1.00000000      1.00000000      1.00000000</v>
   <i type="logical" name="LCORR"> T  </i>
  </separator>
  <i type="logical" name="GGA_COMPAT"> T  </i>
  <i type="logical" name="LBERRY"> F  </i>
  <i type="int" name="ICORELEVEL">     0</i>
  <i type="logical" name="LDAU"> F  </i>
  <i type="int" name="I_CONSTRAINED_M">     0</i>
  <separator name="electronic exchange-correlation" >
   <i type="string" name="GGA">--</i>
   <i type="int" name="VOSKOWN">     0</i>
   <i type="logical" name="LHFCALC"> F  </i>
   <i type="string" name="PRECFOCK"></i>
   <i type="logical" name="LSYMGRAD"> F  </i>
   <i type="logical" name="LHFONE"> F  </i>
   <i type="logical" name="LRHFCALC"> F  </i>
   <i type="logical" name="LTHOMAS"> F  </i>
   <i type="logical" name="LMODELHF"> F  </i>
   <i type="logical" name="LFOCKACE"> F  </i>
   <i name="ENCUT4O">     -1.00000000</i>
   <i type="int" name="EXXOEP">     0</i>
   <i type="int" name="FOURORBIT">     0</i>
   <i name="AEXX">      0.00000000</i>
   <i name="HFALPHA">      0.00000000</i>
   <i name="MCALPHA">      0.00000000</i>
   <i name="ALDAX">      1.00000000</i>
   <i name="AGGAX">      1.00000000</i>
   <i name="ALDAC">      1.00000000</i>
   <i name="AGGAC">      1.00000000</i>
   <i type="int" name="NKREDX">     1</i>
   <i type="int" name="NKREDY">     1</i>
   <i type="int" name="NKREDZ">     1</i>
   <i type="logical" name="SHIFTRED"> F  </i>
   <i type="logical" name="ODDONLY"> F  </i>
   <i type="logical" name="EVENONLY"> F  </i>
   <i type="int" name="LMAXFOCK">     0</i>
   <i type="int" name="NMAXFOCKAE">     0</i>
   <i type="logical" name="LFOCKAEDFT"> F  </i>
   <i name="HFSCREEN">      0.00000000</i>
   <i name="HFSCREENC">      0.00000000</i>
   <i type="int" name="NBANDSGWLOW">     0</i>
  </separator>
  <separator name="vdW DFT" >
   <i type="logical" name="LUSE_VDW"> F  </i>
   <i name="Zab_VDW">     -0.84910000</i>
   <i name="PARAM1">      0.12340000</i>
   <i name="PARAM2">      1.00000000</i>
   <i name="PARAM3">      0.00000000</i>
  </separator>
  <separator name="model GW" >
   <i type="int" name="MODEL_GW">     0</i>
   <i name="MODEL_EPS0">      7.99875096</i>
   <i name="MODEL_ALPHA">      1.00000000</i>
  </separator>
  <separator name="linear response parameters" >
   <i type="logical" name="LEPSILON"> F  </i>
   <i type="logical" name="LRPA"> F  </i>
   <i type="logical" name="LNABLA"> F  </i>
   <i type="logical" name="LVEL"> F  </i>
   <i type="int" name="KINTER">     0</i>
   <i name="CSHIFT">      0.10000000</i>
   <i name="OMEGAMAX">     -1.00000000</i>
   <i name="DEG_THRESHOLD">      0.00200000</i>
   <i name="RTIME">     -0.10000000</i>
   <i name="WPLASMAI">      0.00000000</i>
   <v name="DFIELD">      0.00000000      0.00000000      0.00000000</v>
   <v name="WPLASMA">      0.00000000      0.00000000      0.00000000      0.00000000      0.00000000      0.00000000      0.00000000      0.00000000      0.00000000</v>
  </separator>
  <separator name="orbital magnetization" >
   <i type="logical" name="NUCIND"> F  </i>
   <v name="MAGPOS">      0.00000000      0.00000000      0.00000000</v>
   <i type="logical" name="LNICSALL"> T  </i>
   <i type="logical" name="ORBITALMAG"> F  </i>
   <i type="logical" name="LMAGBLOCH"> F  </i>
   <i type="logical" name="LCHIMAG"> F  </i>
   <i type="logical" name="LGAUGE"> T  </i>
   <i type="int" name="MAGATOM">     0</i>
   <v name="MAGDIPOL">      0.00000000      0.00000000      0.00000000</v>
   <v name="AVECCONST">      0.00000000      0.00000000      0.00000000</v>
  </separator>
  <separator name="response functions" >
   <i type="logical" name="LFINITE_TEMPERATURE"> F  </i>
   <i type="logical" name="LADDER"> F  </i>
   <i type="logical" name="LRPAFORCE"> F  </i>
   <i type="logical" name="LFXC"> F  </i>
   <i type="logical" name="LHARTREE"> T  </i>
   <i type="int" name="IBSE">     0</i>
   <v type="int" name="KPOINT">    -1     0     0     0</v>
   <i type="logical" name="LTCTC"> F  </i>
   <i type="logical" name="LTCTE"> F  </i>
   <i type="logical" name="LTETE"> F  </i>
   <i type="logical" name="LTRIPLET"> F  </i>
   <i type="logical" name="LFXCEPS"> F  </i>
   <i type="logical" name="LFXHEG"> F  </i>
   <i type="int" name="NATURALO">     2</i>
   <i type="logical" name="LHOLEGF"> F  </i>
   <i type="logical" name="L2ORDER"> F  </i>
   <i type="logical" name="LDMP1"> F  </i>
   <i type="logical" name="LMP2LT"> F  </i>
   <i type="logical" name="LSMP2LT"> F  </i>
   <i type="logical" name="LGWLF"> F  </i>
   <i name="ENCUTGW">     -2.00000000</i>
   <i name="ENCUTGWSOFT">     -2.00000000</i>
   <i name="ENCUTLF">     -1.00000000</i>
   <i type="logical" name="LESF_SPLINES"> F  </i>
   <i type="int" name="LMAXMP2">    -1</i>
   <i name="SCISSOR">      0.00000000</i>
   <i type="int" name="NOMEGA">     0</i>
   <i type="int" name="NOMEGAR">     0</i>
   <i type="int" name="NBANDSGW">    -1</i>
   <i type="int" name="NBANDSO">    -1</i>
   <i type="int" name="NBANDSV">    -1</i>
   <i type="int" name="NELM">   100</i>
   <i type="int" name="NELMHF">     1</i>
   <i type="int" name="DIM">     3</i>
   <i type="int" name="IESPILON">     4</i>
   <i type="int" name="ANTIRES">     0</i>
   <i name="OMEGAMAX">    -30.00000000</i>
   <i name="OMEGAMIN">    -30.00000000</i>
   <i name="OMEGATL">   -200.00000000</i>
   <i type="int" name="OMEGAGRID">     0</i>
   <i name="CSHIFT">     -0.10000000</i>
   <i type="logical" name="LSELFENERGY"> F  </i>
   <i type="logical" name="LSPECTRAL"> F  </i>
   <i type="logical" name="LSPECTRALGW"> F  </i>
   <i type="logical" name="LSINGLES"> F  </i>
   <i type="logical" name="LFERMIGW"> F  </i>
   <i type="logical" name="ODDONLYGW"> F  </i>
   <i type="logical" name="EVENONLYGW"> F  </i>
   <i type="int" name="NKREDLFX">     1</i>
   <i type="int" name="NKREDLFY">     1</i>
   <i type="int" name="NKREDLFZ">     1</i>
   <i type="int" name="MAXMEM">  2800</i>
   <i type="int" name="TELESCOPE">     0</i>
   <i type="int" name="NTAUPAR">    -1</i>
   <i type="int" name="NOMEGAPAR">    -1</i>
   <i name="DAMP_NEWTON">      0.80000001</i>
   <i name="LAMBDA">      1.00000000</i>
  </separator>
  <separator name="External order field" >
   <i name="OFIELD_KAPPA">      0.00000000</i>
   <v name="OFIELD_K">      0.00000000      0.00000000      0.00000000</v>
   <i name="OFIELD_Q6_NEAR">      0.00000000</i>
   <i name="OFIELD_Q6_FAR">      0.00000000</i>
   <i name="OFIELD_A">      0.00000000</i>
  </separator>
 </parameters>
 <atominfo>
  <atoms>      12 </atoms>
  <types>       3 </types>
  <array name="atoms" >
   <dimension dim="1">ion</dimension>
   <field type="string">element</field>
   <field type="int">atomtype</field>
   <set>
    <rc><c>B </c><c>   1</c></rc>
    <rc><c>B </c><c>   1</c></rc>
    <rc><c>B </c><c>   1</c></rc>
    <rc><c>B </c><c>   1</c></rc>
    <rc><c>Mo</c><c>   2</c></rc>
    <rc><c>Mo</c><c>   2</c></rc>
    <rc><c>Mo</c><c>   2</c></rc>
    <rc><c>Mo</c><c>   2</c></rc>
    <rc><c>Si</c><c>   3</c></rc>
    <rc><c>Si</c><c>   3</c></rc>
    <rc><c>Si</c><c>   3</c></rc>
    <rc><c>Si</c><c>   3</c></rc>
   </set>
  </array>
  <array name="atomtypes" >
   <dimension dim="1">type</dimension>
   <field type="int">atomspertype</field>
   <field type="string">element</field>
   <field>mass</field>
   <field>valence</field>
   <field type="string">pseudopotential</field>
   <set>
    <rc><c>   4</c><c>B </c><c>     10.81100000</c><c>      3.00000000</c><c>  PAW_PBE B 06Sep2000                   </c></rc>
    <rc><c>   4</c><c>Mo</c><c>     95.94000000</c><c>     14.00000000</c><c>  PAW_PBE Mo_sv 02Feb2006               </c></rc>
    <rc><c>   4</c><c>Si</c><c>     28.08500000</c><c>      4.00000000</c><c>  PAW_PBE Si 05Jan2001                  </c></rc>
   </set>
  </array>
 </atominfo>
 <structure name="initialpos" >
  <crystal>
   <varray name="basis" >
    <v>       5.35267620       0.00000000      -2.74913069 </v>
    <v>      -1.99558790       4.96676670      -2.74913069 </v>
    <v>       0.00000000       0.00000000       6.01738000 </v>
   </varray>
   <i name="volume">    159.97501927 </i>
   <varray name="rec_basis" >
    <v>       0.18682243       0.07506304       0.00000000 </v>
    <v>       0.00000000       0.20133823       0.00000000 </v>
    <v>       0.08535264       0.12627808       0.16618528 </v>
   </varray>
  </crystal>
  <varray name="positions" >
   <v>       0.00000000       0.00000000       0.50000000 </v>
   <v>       0.00000000       0.50000000       0.00000000 </v>
   <v>       0.50000000       0.50000000       0.50000000 </v>
   <v>       0.50000000       0.00000000       0.00000000 </v>
   <v>       0.00000000       0.50000000       0.50000000 </v>
   <v>       0.25000000       0.25000000       0.00000000 </v>
   <v>       0.75000000       0.75000000       0.00000000 </v>
   <v>       0.50000000       0.00000000       0.50000000 </v>
   <v>       0.24495000       0.74495000       0.98991000 </v>
   <v>       0.75505000       0.25505000       0.01009000 </v>
   <v>       0.74495000       0.75505000       0.50000000 </v>
   <v>       0.25505000       0.24495000       0.50000000 </v>
  </varray>
 </structure>
 <calculation>
  <scstep>
   <time name="total">   16.61   16.75</time>
   <energy>
    <i name="alphaZ">    342.31293975 </i>
    <i name="ewald">  -6415.14912701 </i>
    <i name="hartreedc">  -1848.18628993 </i>
    <i name="XCdc">    321.88522001 </i>
    <i name="pawpsdc">   6444.67582193 </i>
    <i name="pawaedc">  -6389.50304870 </i>
    <i name="eentropy">     -0.00105363 </i>
    <i name="bandstr">     95.31120477 </i>
    <i name="atom">   8146.07472429 </i>
    <i name="e_fr_energy">    697.42039146 </i>
    <i name="e_wo_entrp">    697.42144510 </i>
    <i name="e_0_energy">    697.42091828 </i>
   </energy>
  </scstep>
  <scstep>
   <time name="total">   16.23   16.35</time>
   <energy>
    <i name="e_fr_energy">   -150.83200155 </i>
    <i name="e_wo_entrp">   -150.83057880 </i>
    <i name="e_0_energy">   -150.83129017 </i>
   </energy>
  </scstep>
  <scstep>
   <time name="total">   18.21   18.35</time>
   <energy>
    <i name="e_fr_energy">   -185.87433982 </i>
    <i name="e_wo_entrp">   -185.87308789 </i>
    <i name="e_0_energy">   -185.87371385 </i>
   </energy>
  </scstep>
  <scstep>
   <time name="total">   17.12   17.25</time>
   <energy>
    <i name="e_fr_energy">   -186.74288997 </i>
    <i name="e_wo_entrp">   -186.74160002 </i>
    <i name="e_0_energy">   -186.74224499 </i>
   </energy>
  </scstep>
  <scstep>
   <time name="total">   18.51   18.66</time>
   <energy>
    <i name="e_fr_energy">   -186.75676336 </i>
    <i name="e_wo_entrp">   -186.75547233 </i>
    <i name="e_0_energy">   -186.75611784 </i>
   </energy>
  </scstep>
  <scstep>
   <time name="total">   17.75   17.89</time>
   <energy>
    <i name="e_fr_energy">   -118.43847656 </i>
    <i name="e_wo_entrp">   -118.43597045 </i>
    <i name="e_0_energy">   -118.43722351 </i>
   </energy>
  </scstep>
  <scstep>
   <time name="total">   17.93   18.07</time>
   <energy>
    <i name="e_fr_energy">   -145.94404193 </i>
    <i name="e_wo_entrp">   -145.94107287 </i>
    <i name="e_0_energy">   -145.94255740 </i>
   </energy>
  </scstep>
  <scstep>
   <time name="total">   17.77   17.91</time>
   <energy>
    <i name="e_fr_energy">   -150.31632856 </i>
    <i name="e_wo_entrp">   -150.31378057 </i>
    <i name="e_0_energy">   -150.31505457 </i>
   </energy>
  </scstep>
  <scstep>
   <time name="total">   17.88   18.01</time>
   <energy>
    <i name="e_fr_energy">   -151.21572369 </i>
    <i name="e_wo_entrp">   -151.21269921 </i>
    <i name="e_0_energy">   -151.21421145 </i>
   </energy>
  </scstep>
  <scstep>
   <time name="total">   17.94   18.09</time>
   <energy>
    <i name="e_fr_energy">   -151.55995947 </i>
    <i name="e_wo_entrp">   -151.55667418 </i>
    <i name="e_0_energy">   -151.55831683 </i>
   </energy>
  </scstep>
  <scstep>
   <time name="total">   17.82   17.95</time>
   <energy>
    <i name="e_fr_energy">   -151.69544729 </i>
    <i name="e_wo_entrp">   -151.69235490 </i>
    <i name="e_0_energy">   -151.69390109 </i>
   </energy>
  </scstep>
  <scstep>
   <time name="total">   17.94   18.08</time>
   <energy>
    <i name="e_fr_energy">   -151.73527689 </i>
    <i name="e_wo_entrp">   -151.73222135 </i>
    <i name="e_0_energy">   -151.73374912 </i>
   </energy>
  </scstep>
  <scstep>
   <time name="total">   17.79   17.93</time>
   <energy>
    <i name="e_fr_energy">   -151.75367716 </i>
    <i name="e_wo_entrp">   -151.75070903 </i>
    <i name="e_0_energy">   -151.75219309 </i>
   </energy>
  </scstep>
  <scstep>
   <time name="total">   17.92   18.06</time>
   <energy>
    <i name="e_fr_energy">   -151.76476754 </i>
    <i name="e_wo_entrp">   -151.76179096 </i>
    <i name="e_0_energy">   -151.76327925 </i>
   </energy>
  </scstep>
  <scstep>
   <time name="total">   17.83   17.96</time>
   <energy>
    <i name="e_fr_energy">   -151.77068947 </i>
    <i name="e_wo_entrp">   -151.76764542 </i>
    <i name="e_0_energy">   -151.76916745 </i>
   </energy>
  </scstep>
  <scstep>
   <time name="total">   17.88   18.01</time>
   <energy>
    <i name="e_fr_energy">   -151.77323074 </i>
    <i name="e_wo_entrp">   -151.77018703 </i>
    <i name="e_0_energy">   -151.77170889 </i>
   </energy>
  </scstep>
  <scstep>
   <time name="total">   17.92   18.06</time>
   <energy>
    <i name="e_fr_energy">   -151.77439695 </i>
    <i name="e_wo_entrp">   -151.77133022 </i>
    <i name="e_0_energy">   -151.77286358 </i>
   </energy>
  </scstep>
  <scstep>
   <time name="total">   17.90   18.04</time>
   <energy>
    <i name="e_fr_energy">   -151.77516517 </i>
    <i name="e_wo_entrp">   -151.77208047 </i>
    <i name="e_0_energy">   -151.77362282 </i>
   </energy>
  </scstep>
  <scstep>
   <time name="total">   17.92   18.06</time>
   <energy>
    <i name="e_fr_energy">   -151.77541160 </i>
    <i name="e_wo_entrp">   -151.77232973 </i>
    <i name="e_0_energy">   -151.77387067 </i>
   </energy>
  </scstep>
  <scstep>
   <time name="total">   17.80   17.93</time>
   <energy>
    <i name="e_fr_energy">   -151.77554826 </i>
    <i name="e_wo_entrp">   -151.77246458 </i>
    <i name="e_0_energy">   -151.77400642 </i>
   </energy>
  </scstep>
  <scstep>
   <time name="total">   17.95   18.09</time>
   <energy>
    <i name="e_fr_energy">   -151.77562381 </i>
    <i name="e_wo_entrp">   -151.77253590 </i>
    <i name="e_0_energy">   -151.77407986 </i>
   </energy>
  </scstep>
  <scstep>
   <time name="total">   17.90   18.04</time>
   <energy>
    <i name="e_fr_energy">   -151.77565047 </i>
    <i name="e_wo_entrp">   -151.77256434 </i>
    <i name="e_0_energy">   -151.77410741 </i>
   </energy>
  </scstep>
  <scstep>
   <time name="total">   17.87   18.01</time>
   <energy>
    <i name="e_fr_energy">   -151.77567151 </i>
    <i name="e_wo_entrp">   -151.77258473 </i>
    <i name="e_0_energy">   -151.77412812 </i>
   </energy>
  </scstep>
  <scstep>
   <time name="total">   17.83   17.96</time>
   <energy>
    <i name="e_fr_energy">   -151.77568156 </i>
    <i name="e_wo_entrp">   -151.77259584 </i>
    <i name="e_0_energy">   -151.77413870 </i>
   </energy>
  </scstep>
  <scstep>
   <time name="total">   17.85   17.98</time>
   <energy>
    <i name="e_fr_energy">   -151.77568424 </i>
    <i name="e_wo_entrp">   -151.77259890 </i>
    <i name="e_0_energy">   -151.77414157 </i>
   </energy>
  </scstep>
  <scstep>
   <time name="total">   17.89   18.02</time>
   <energy>
    <i name="e_fr_energy">   -151.77568642 </i>
    <i name="e_wo_entrp">   -151.77260173 </i>
    <i name="e_0_energy">   -151.77414407 </i>
   </energy>
  </scstep>
  <scstep>
   <time name="total">   17.77   17.90</time>
   <energy>
    <i name="e_fr_energy">   -151.77568755 </i>
    <i name="e_wo_entrp">   -151.77260315 </i>
    <i name="e_0_energy">   -151.77414535 </i>
   </energy>
  </scstep>
  <scstep>
   <time name="total">   17.88   18.01</time>
   <energy>
    <i name="e_fr_energy">   -151.77568784 </i>
    <i name="e_wo_entrp">   -151.77260368 </i>
    <i name="e_0_energy">   -151.77414576 </i>
   </energy>
  </scstep>
  <scstep>
   <time name="total">   17.87   18.01</time>
   <energy>
    <i name="e_fr_energy">   -151.77568812 </i>
    <i name="e_wo_entrp">   -151.77260370 </i>
    <i name="e_0_energy">   -151.77414591 </i>
   </energy>
  </scstep>
  <scstep>
   <time name="total">   17.90   18.03</time>
   <energy>
    <i name="e_fr_energy">   -151.77568823 </i>
    <i name="e_wo_entrp">   -151.77260392 </i>
    <i name="e_0_energy">   -151.77414607 </i>
   </energy>
  </scstep>
  <scstep>
   <time name="total">   17.91   18.05</time>
   <energy>
    <i name="e_fr_energy">   -151.77568828 </i>
    <i name="e_wo_entrp">   -151.77260402 </i>
    <i name="e_0_energy">   -151.77414615 </i>
   </energy>
  </scstep>
  <scstep>
   <time name="total">   17.85   17.98</time>
   <energy>
    <i name="e_fr_energy">   -151.77568830 </i>
    <i name="e_wo_entrp">   -151.77260394 </i>
    <i name="e_0_energy">   -151.77414612 </i>
   </energy>
  </scstep>
  <scstep>
   <time name="total">   17.92   18.06</time>
   <energy>
    <i name="e_fr_energy">   -151.77568830 </i>
    <i name="e_wo_entrp">   -151.77260397 </i>
    <i name="e_0_energy">   -151.77414613 </i>
   </energy>
  </scstep>
  <scstep>
   <time name="total">   17.80   17.93</time>
   <energy>
    <i name="e_fr_energy">   -151.77568831 </i>
    <i name="e_wo_entrp">   -151.77260393 </i>
    <i name="e_0_energy">   -151.77414612 </i>
   </energy>
  </scstep>
  <scstep>
   <time name="total">   17.94   18.08</time>
   <energy>
    <i name="e_fr_energy">   -151.77568831 </i>
    <i name="e_wo_entrp">   -151.77260394 </i>
    <i name="e_0_energy">   -151.77414612 </i>
   </energy>
  </scstep>
  <scstep>
   <time name="total">   17.84   17.98</time>
   <energy>
    <i name="e_fr_energy">   -151.77568831 </i>
    <i name="e_wo_entrp">   -151.77260392 </i>
    <i name="e_0_energy">   -151.77414611 </i>
   </energy>
  </scstep>
  <scstep>
   <time name="total">   17.82   17.95</time>
   <energy>
    <i name="e_fr_energy">   -151.77568831 </i>
    <i name="e_wo_entrp">   -151.77260392 </i>
    <i name="e_0_energy">   -151.77414611 </i>
   </energy>
  </scstep>
  <scstep>
   <time name="total">   17.84   17.99</time>
   <energy>
    <i name="e_fr_energy">   -151.77568831 </i>
    <i name="e_wo_entrp">   -151.77260391 </i>
    <i name="e_0_energy">   -151.77414611 </i>
   </energy>
  </scstep>
  <scstep>
   <time name="total">   20.27   20.43</time>
   <energy>
    <i name="alphaZ">    342.31293975 </i>
    <i name="ewald">  -6415.14912701 </i>
    <i name="hartreedc">  -1773.59190742 </i>
    <i name="XCdc">    331.00668166 </i>
    <i name="pawpsdc">  11608.24265587 </i>
    <i name="pawaedc"> -11563.12899980 </i>
    <i name="eentropy">     -0.00308441 </i>
    <i name="bandstr">   -827.53957124 </i>
    <i name="atom">   8146.07472429 </i>
    <i name="e_fr_energy">   -151.77568831 </i>
    <i name="e_wo_entrp">   -151.77260390 </i>
    <i name="e_0_energy">   -151.77414611 </i>
   </energy>
  </scstep>
  <structure>
   <crystal>
    <varray name="basis" >
     <v>       5.35267620       0.00000000      -2.74913069 </v>
     <v>      -1.99558790       4.96676670      -2.74913069 </v>
     <v>       0.00000000       0.00000000       6.01738000 </v>
    </varray>
    <i name="volume">    159.97501927 </i>
    <varray name="rec_basis" >
     <v>       0.18682243       0.07506304       0.00000000 </v>
     <v>       0.00000000       0.20133823       0.00000000 </v>
     <v>       0.08535264       0.12627808       0.16618528 </v>
    </varray>
   </crystal>
   <varray name="positions" >
    <v>       0.00000000       0.00000000       0.50000000 </v>
    <v>       0.00000000       0.50000000       0.00000000 </v>
    <v>       0.50000000       0.50000000       0.50000000 </v>
    <v>       0.50000000       0.00000000       0.00000000 </v>
    <v>       0.00000000       0.50000000       0.50000000 </v>
    <v>       0.25000000       0.25000000       0.00000000 </v>
    <v>       0.75000000       0.75000000       0.00000000 </v>
    <v>       0.50000000       0.00000000       0.50000000 </v>
    <v>       0.24495000       0.74495000       0.98991000 </v>
    <v>       0.75505000       0.25505000       0.01009000 </v>
    <v>       0.74495000       0.75505000       0.50000000 </v>
    <v>       0.25505000       0.24495000       0.50000000 </v>
   </varray>
  </structure>
  <varray name="forces" >
   <v>       0.00000000       0.00000000       0.00000000 </v>
   <v>       0.00000000       0.00000000       0.00000000 </v>
   <v>       0.00000000       0.00000000       0.00000000 </v>
   <v>       0.00000000       0.00000000       0.00000000 </v>
   <v>       0.00000000       0.00000000       0.00000000 </v>
   <v>       0.00000000       0.00000000       0.00000000 </v>
   <v>       0.00000000       0.00000000       0.00000000 </v>
   <v>       0.00000000       0.00000000       0.00000000 </v>
   <v>       0.00000000       0.00000000       0.00000000 </v>
   <v>       0.00000000       0.00000000       0.00000000 </v>
   <v>       0.00000000       0.00000000       0.00000000 </v>
   <v>       0.00000000       0.00000000       0.00000000 </v>
  </varray>
  <varray name="stress" >
   <v>       0.00000000       0.00000000       0.00000000 </v>
   <v>       0.00000000       0.00000000       0.00000000 </v>
   <v>       0.00000000       0.00000000       0.00000000 </v>
  </varray>
  <energy>
   <i name="e_fr_energy">   -151.77568831 </i>
   <i name="e_wo_entrp">   -151.77260390 </i>
   <i name="e_0_energy">   -151.77414611 </i>
  </energy>
  <time name="totalsc">  699.52  704.93</time>
  <eigenvalues>
   <array>
    <dimension dim="1">band</dimension>
    <dimension dim="2">kpoint</dimension>
    <dimension dim="3">spin</dimension>
    <field>eigene</field>
    <field>occ</field>
    <set>
     <set comment="spin 1">
      <set comment="kpoint 1">
       <r>  -53.7343    1.0000 </r>
       <r>  -53.7339    1.0000 </r>
       <r>  -53.0011    1.0000 </r>
       <r>  -52.9975    1.0000 </r>
       <r>  -27.2167    1.0000 </r>
       <r>  -27.2165    1.0000 </r>
       <r>  -27.2148    1.0000 </r>
       <r>  -27.2146    1.0000 </r>
       <r>  -26.9970    1.0000 </r>
       <r>  -26.9834    1.0000 </r>
       <r>  -26.8079    1.0000 </r>
       <r>  -26.8055    1.0000 </r>
       <r>  -26.6850    1.0000 </r>
       <r>  -26.6848    1.0000 </r>
       <r>  -26.4129    1.0000 </r>
       <r>  -26.3981    1.0000 </r>
       <r>   -3.6259    1.0000 </r>
       <r>   -1.1863    1.0000 </r>
       <r>    0.1983    1.0000 </r>
       <r>    0.1995    1.0000 </r>
       <r>    0.7506    1.0000 </r>
       <r>    0.7518    1.0000 </r>
       <r>    3.4092    1.0000 </r>
       <r>    3.6773    1.0000 </r>
       <r>    3.9363    1.0000 </r>
       <r>    4.3093    1.0000 </r>
       <r>    4.5306    1.0000 </r>
       <r>    4.8079    1.0000 </r>
       <r>    5.1327    1.0000 </r>
       <r>    5.2712    1.0000 </r>
       <r>    5.2928    1.0000 </r>
       <r>    5.2928    1.0000 </r>
       <r>    5.4866    1.0000 </r>
       <r>    5.6914    1.0000 </r>
       <r>    6.5660    1.0000 </r>
       <r>    7.4262    1.0000 </r>
       <r>    7.4268    1.0000 </r>
       <r>    8.4137    1.0000 </r>
       <r>    9.4595    1.0000 </r>
       <r>    9.5353    1.0000 </r>
       <r>    9.5363    1.0000 </r>
       <r>    9.6954    0.0000 </r>
       <r>    9.8651    0.0000 </r>
       <r>    9.8652    0.0000 </r>
       <r>   10.2499    0.0000 </r>
       <r>   10.2503    0.0000 </r>
       <r>   10.3385    0.0000 </r>
       <r>   10.3399    0.0000 </r>
       <r>   10.4948    0.0000 </r>
       <r>   11.2686    0.0000 </r>
       <r>   11.5820    0.0000 </r>
       <r>   12.2503    0.0000 </r>
       <r>   12.3260    0.0000 </r>
       <r>   12.3275    0.0000 </r>
      </set>
      <set comment="kpoint 2">
       <r>  -53.7343    1.0000 </r>
       <r>  -53.7339    1.0000 </r>
       <r>  -53.0010    1.0000 </r>
       <r>  -52.9976    1.0000 </r>
       <r>  -27.2166    1.0000 </r>
       <r>  -27.2161    1.0000 </r>
       <r>  -27.2151    1.0000 </r>
       <r>  -27.2149    1.0000 </r>
       <r>  -26.9970    1.0000 </r>
       <r>  -26.9840    1.0000 </r>
       <r>  -26.8075    1.0000 </r>
       <r>  -26.8050    1.0000 </r>
       <r>  -26.6854    1.0000 </r>
       <r>  -26.6849    1.0000 </r>
       <r>  -26.4121    1.0000 </r>
       <r>  -26.3988    1.0000 </r>
       <r>   -3.4978    1.0000 </r>
       <r>   -1.1393    1.0000 </r>
       <r>   -0.1721    1.0000 </r>
       <r>    0.0197    1.0000 </r>
       <r>    0.8437    1.0000 </r>
       <r>    0.9842    1.0000 </r>
       <r>    2.9977    1.0000 </r>
       <r>    3.3536    1.0000 </r>
       <r>    4.1266    1.0000 </r>
       <r>    4.6457    1.0000 </r>
       <r>    4.6585    1.0000 </r>
       <r>    5.0044    1.0000 </r>
       <r>    5.0270    1.0000 </r>
       <r>    5.1900    1.0000 </r>
       <r>    5.1989    1.0000 </r>
       <r>    5.3015    1.0000 </r>
       <r>    5.3427    1.0000 </r>
       <r>    6.1333    1.0000 </r>
       <r>    6.4393    1.0000 </r>
       <r>    7.4301    1.0000 </r>
       <r>    7.7573    1.0000 </r>
       <r>    8.3391    1.0000 </r>
       <r>    9.3976    1.0000 </r>
       <r>    9.5583    0.9996 </r>
       <r>    9.6085    0.4289 </r>
       <r>    9.6199    0.1631 </r>
       <r>    9.9504    0.0000 </r>
       <r>   10.0211    0.0000 </r>
       <r>   10.0774    0.0000 </r>
       <r>   10.1546    0.0000 </r>
       <r>   10.2275    0.0000 </r>
       <r>   10.3354    0.0000 </r>
       <r>   10.5512    0.0000 </r>
       <r>   11.5323    0.0000 </r>
       <r>   11.5883    0.0000 </r>
       <r>   12.1121    0.0000 </r>
       <r>   12.3590    0.0000 </r>
       <r>   12.7085    0.0000 </r>
      </set>
      <set comment="kpoint 3">
       <r>  -53.7343    1.0000 </r>
       <r>  -53.7340    1.0000 </r>
       <r>  -53.0007    1.0000 </r>
       <r>  -52.9979    1.0000 </r>
       <r>  -27.2167    1.0000 </r>
       <r>  -27.2157    1.0000 </r>
       <r>  -27.2154    1.0000 </r>
       <r>  -27.2152    1.0000 </r>
       <r>  -26.9963    1.0000 </r>
       <r>  -26.9862    1.0000 </r>
       <r>  -26.8067    1.0000 </r>
       <r>  -26.8038    1.0000 </r>
       <r>  -26.6860    1.0000 </r>
       <r>  -26.6849    1.0000 </r>
       <r>  -26.4102    1.0000 </r>
       <r>  -26.4008    1.0000 </r>
       <r>   -3.1231    1.0000 </r>
       <r>   -1.0157    1.0000 </r>
       <r>   -0.9214    1.0000 </r>
       <r>   -0.2686    1.0000 </r>
       <r>    0.9925    1.0000 </r>
       <r>    1.4432    1.0000 </r>
       <r>    2.2823    1.0000 </r>
       <r>    3.3581    1.0000 </r>
       <r>    3.6437    1.0000 </r>
       <r>    4.2676    1.0000 </r>
       <r>    4.4087    1.0000 </r>
       <r>    5.2786    1.0000 </r>
       <r>    5.3190    1.0000 </r>
       <r>    5.5017    1.0000 </r>
       <r>    5.5603    1.0000 </r>
       <r>    5.7634    1.0000 </r>
       <r>    5.9530    1.0000 </r>
       <r>    5.9622    1.0000 </r>
       <r>    6.2548    1.0000 </r>
       <r>    7.5356    1.0000 </r>
       <r>    8.3251    1.0000 </r>
       <r>    8.3696    1.0000 </r>
       <r>    9.1552    1.0000 </r>
       <r>    9.2251    1.0000 </r>
       <r>    9.6058    0.5062 </r>
       <r>    9.6314    0.0363 </r>
       <r>    9.7242    0.0000 </r>
       <r>    9.8519    0.0000 </r>
       <r>    9.9073    0.0000 </r>
       <r>    9.9498    0.0000 </r>
       <r>   10.4084    0.0000 </r>
       <r>   10.5239    0.0000 </r>
       <r>   10.5556    0.0000 </r>
       <r>   11.7445    0.0000 </r>
       <r>   11.9786    0.0000 </r>
       <r>   12.0640    0.0000 </r>
       <r>   12.2991    0.0000 </r>
       <r>   12.5690    0.0000 </r>
      </set>
      <set comment="kpoint 4">
       <r>  -53.7342    1.0000 </r>
       <r>  -53.7341    1.0000 </r>
       <r>  -53.0005    1.0000 </r>
       <r>  -52.9981    1.0000 </r>
       <r>  -27.2165    1.0000 </r>
       <r>  -27.2162    1.0000 </r>
       <r>  -27.2154    1.0000 </r>
       <r>  -27.2150    1.0000 </r>
       <r>  -26.9938    1.0000 </r>
       <r>  -26.9899    1.0000 </r>
       <r>  -26.8059    1.0000 </r>
       <r>  -26.8033    1.0000 </r>
       <r>  -26.6860    1.0000 </r>
       <r>  -26.6853    1.0000 </r>
       <r>  -26.4080    1.0000 </r>
       <r>  -26.4030    1.0000 </r>
       <r>   -2.5310    1.0000 </r>
       <r>   -1.7730    1.0000 </r>
       <r>   -0.7990    1.0000 </r>
       <r>   -0.5487    1.0000 </r>
       <r>    1.2523    1.0000 </r>
       <r>    1.6821    1.0000 </r>
       <r>    2.0401    1.0000 </r>
       <r>    2.7718    1.0000 </r>
       <r>    3.5311    1.0000 </r>
       <r>    3.8855    1.0000 </r>
       <r>    4.6562    1.0000 </r>
       <r>    5.2398    1.0000 </r>
       <r>    5.3602    1.0000 </r>
       <r>    5.3778    1.0000 </r>
       <r>    5.8057    1.0000 </r>
       <r>    6.0442    1.0000 </r>
       <r>    6.2496    1.0000 </r>
       <r>    6.4460    1.0000 </r>
       <r>    6.7069    1.0000 </r>
       <r>    7.3655    1.0000 </r>
       <r>    8.5721    1.0000 </r>
       <r>    8.8095    1.0000 </r>
       <r>    8.8448    1.0000 </r>
       <r>    8.8847    1.0000 </r>
       <r>    9.1571    1.0000 </r>
       <r>    9.2920    1.0000 </r>
       <r>    9.5955    0.7714 </r>
       <r>    9.6183    0.1917 </r>
       <r>    9.9511    0.0000 </r>
       <r>   10.1870    0.0000 </r>
       <r>   10.1958    0.0000 </r>
       <r>   10.4233    0.0000 </r>
       <r>   10.8829    0.0000 </r>
       <r>   11.3252    0.0000 </r>
       <r>   12.3121    0.0000 </r>
       <r>   12.4373    0.0000 </r>
       <r>   12.4801    0.0000 </r>
       <r>   12.6238    0.0000 </r>
      </set>
      <set comment="kpoint 5">
       <r>  -53.7342    1.0000 </r>
       <r>  -53.7340    1.0000 </r>
       <r>  -53.0009    1.0000 </r>
       <r>  -52.9977    1.0000 </r>
       <r>  -27.2164    1.0000 </r>
       <r>  -27.2160    1.0000 </r>
       <r>  -27.2156    1.0000 </r>
       <r>  -27.2152    1.0000 </r>
       <r>  -26.9953    1.0000 </r>
       <r>  -26.9864    1.0000 </r>
       <r>  -26.8069    1.0000 </r>
       <r>  -26.8045    1.0000 </r>
       <r>  -26.6857    1.0000 </r>
       <r>  -26.6846    1.0000 </r>
       <r>  -26.4103    1.0000 </r>
       <r>  -26.4008    1.0000 </r>
       <r>   -3.2868    1.0000 </r>
       <r>   -1.0318    1.0000 </r>
       <r>   -0.5108    1.0000 </r>
       <r>   -0.4062    1.0000 </r>
       <r>    1.2777    1.0000 </r>
       <r>    1.3571    1.0000 </r>
       <r>    2.2243    1.0000 </r>
       <r>    3.1904    1.0000 </r>
       <r>    3.7273    1.0000 </r>
       <r>    3.9509    1.0000 </r>
       <r>    4.8971    1.0000 </r>
       <r>    5.1378    1.0000 </r>
       <r>    5.1929    1.0000 </r>
       <r>    5.2425    1.0000 </r>
       <r>    5.5056    1.0000 </r>
       <r>    5.6627    1.0000 </r>
       <r>    5.7836    1.0000 </r>
       <r>    6.3198    1.0000 </r>
       <r>    6.4948    1.0000 </r>
       <r>    7.3897    1.0000 </r>
       <r>    7.7982    1.0000 </r>
       <r>    8.4972    1.0000 </r>
       <r>    9.3241    1.0000 </r>
       <r>    9.3686    1.0000 </r>
       <r>    9.5730    0.9902 </r>
       <r>    9.7015    0.0000 </r>
       <r>    9.7876    0.0000 </r>
       <r>   10.0016    0.0000 </r>
       <r>   10.0811    0.0000 </r>
       <r>   10.1650    0.0000 </r>
       <r>   10.3833    0.0000 </r>
       <r>   10.4973    0.0000 </r>
       <r>   10.5777    0.0000 </r>
       <r>   11.5104    0.0000 </r>
       <r>   11.7862    0.0000 </r>
       <r>   11.9729    0.0000 </r>
       <r>   12.4419    0.0000 </r>
       <r>   12.5561    0.0000 </r>
      </set>
      <set comment="kpoint 6">
       <r>  -53.7341    1.0000 </r>
       <r>  -53.7341    1.0000 </r>
       <r>  -53.0006    1.0000 </r>
       <r>  -52.9980    1.0000 </r>
       <r>  -27.2170    1.0000 </r>
       <r>  -27.2162    1.0000 </r>
       <r>  -27.2157    1.0000 </r>
       <r>  -27.2144    1.0000 </r>
       <r>  -26.9930    1.0000 </r>
       <r>  -26.9901    1.0000 </r>
       <r>  -26.8064    1.0000 </r>
       <r>  -26.8036    1.0000 </r>
       <r>  -26.6859    1.0000 </r>
       <r>  -26.6847    1.0000 </r>
       <r>  -26.4080    1.0000 </r>
       <r>  -26.4031    1.0000 </r>
       <r>   -2.8426    1.0000 </r>
       <r>   -1.2052    1.0000 </r>
       <r>   -0.8637    1.0000 </r>
       <r>   -0.7008    1.0000 </r>
       <r>    1.5701    1.0000 </r>
       <r>    1.6089    1.0000 </r>
       <r>    1.9044    1.0000 </r>
       <r>    2.9154    1.0000 </r>
       <r>    3.2350    1.0000 </r>
       <r>    4.0113    1.0000 </r>
       <r>    4.5221    1.0000 </r>
       <r>    5.1868    1.0000 </r>
       <r>    5.2257    1.0000 </r>
       <r>    5.3599    1.0000 </r>
       <r>    5.8818    1.0000 </r>
       <r>    6.1494    1.0000 </r>
       <r>    6.2990    1.0000 </r>
       <r>    6.3931    1.0000 </r>
       <r>    6.4409    1.0000 </r>
       <r>    7.5831    1.0000 </r>
       <r>    8.0039    1.0000 </r>
       <r>    8.5598    1.0000 </r>
       <r>    8.8583    1.0000 </r>
       <r>    9.1944    1.0000 </r>
       <r>    9.3527    1.0000 </r>
       <r>    9.6007    0.6462 </r>
       <r>    9.8054    0.0000 </r>
       <r>    9.9419    0.0000 </r>
       <r>   10.0260    0.0000 </r>
       <r>   10.2154    0.0000 </r>
       <r>   10.3040    0.0000 </r>
       <r>   10.5953    0.0000 </r>
       <r>   10.8400    0.0000 </r>
       <r>   11.5476    0.0000 </r>
       <r>   11.8104    0.0000 </r>
       <r>   11.9373    0.0000 </r>
       <r>   12.4226    0.0000 </r>
       <r>   12.6183    0.0000 </r>
      </set>
      <set comment="kpoint 7">
       <r>  -53.7342    1.0000 </r>
       <r>  -53.7340    1.0000 </r>
       <r>  -53.0005    1.0000 </r>
       <r>  -52.9981    1.0000 </r>
       <r>  -27.2174    1.0000 </r>
       <r>  -27.2162    1.0000 </r>
       <r>  -27.2154    1.0000 </r>
       <r>  -27.2140    1.0000 </r>
       <r>  -26.9947    1.0000 </r>
       <r>  -26.9896    1.0000 </r>
       <r>  -26.8063    1.0000 </r>
       <r>  -26.8030    1.0000 </r>
       <r>  -26.6857    1.0000 </r>
       <r>  -26.6852    1.0000 </r>
       <r>  -26.4080    1.0000 </r>
       <r>  -26.4029    1.0000 </r>
       <r>   -2.2030    1.0000 </r>
       <r>   -1.9805    1.0000 </r>
       <r>   -0.8985    1.0000 </r>
       <r>   -0.6641    1.0000 </r>
       <r>    1.0832    1.0000 </r>
       <r>    1.9688    1.0000 </r>
       <r>    2.1421    1.0000 </r>
       <r>    2.5656    1.0000 </r>
       <r>    3.4410    1.0000 </r>
       <r>    4.1273    1.0000 </r>
       <r>    4.4789    1.0000 </r>
       <r>    5.1286    1.0000 </r>
       <r>    5.2914    1.0000 </r>
       <r>    5.4598    1.0000 </r>
       <r>    5.5815    1.0000 </r>
       <r>    5.9657    1.0000 </r>
       <r>    6.2886    1.0000 </r>
       <r>    6.8398    1.0000 </r>
       <r>    6.9560    1.0000 </r>
       <r>    7.4688    1.0000 </r>
       <r>    8.3443    1.0000 </r>
       <r>    8.5579    1.0000 </r>
       <r>    8.8052    1.0000 </r>
       <r>    8.9106    1.0000 </r>
       <r>    8.9929    1.0000 </r>
       <r>    9.4131    1.0000 </r>
       <r>    9.5777    0.9773 </r>
       <r>    9.8017    0.0000 </r>
       <r>   10.1700    0.0000 </r>
       <r>   10.2245    0.0000 </r>
       <r>   10.2938    0.0000 </r>
       <r>   10.6335    0.0000 </r>
       <r>   10.9617    0.0000 </r>
       <r>   11.1502    0.0000 </r>
       <r>   11.7297    0.0000 </r>
       <r>   12.0119    0.0000 </r>
       <r>   12.7294    0.0000 </r>
       <r>   12.9170    0.0000 </r>
      </set>
      <set comment="kpoint 8">
       <r>  -53.7343    1.0000 </r>
       <r>  -53.7340    1.0000 </r>
       <r>  -53.0005    1.0000 </r>
       <r>  -52.9981    1.0000 </r>
       <r>  -27.2173    1.0000 </r>
       <r>  -27.2162    1.0000 </r>
       <r>  -27.2150    1.0000 </r>
       <r>  -27.2139    1.0000 </r>
       <r>  -26.9984    1.0000 </r>
       <r>  -26.9859    1.0000 </r>
       <r>  -26.8068    1.0000 </r>
       <r>  -26.8027    1.0000 </r>
       <r>  -26.6864    1.0000 </r>
       <r>  -26.6847    1.0000 </r>
       <r>  -26.4100    1.0000 </r>
       <r>  -26.4008    1.0000 </r>
       <r>   -2.6644    1.0000 </r>
       <r>   -1.4330    1.0000 </r>
       <r>   -1.0419    1.0000 </r>
       <r>   -0.4336    1.0000 </r>
       <r>    0.7738    1.0000 </r>
       <r>    1.4800    1.0000 </r>
       <r>    2.4754    1.0000 </r>
       <r>    3.3396    1.0000 </r>
       <r>    3.8193    1.0000 </r>
       <r>    3.8616    1.0000 </r>
       <r>    4.7777    1.0000 </r>
       <r>    5.0123    1.0000 </r>
       <r>    5.3431    1.0000 </r>
       <r>    5.4052    1.0000 </r>
       <r>    5.5593    1.0000 </r>
       <r>    5.6782    1.0000 </r>
       <r>    5.7469    1.0000 </r>
       <r>    6.6984    1.0000 </r>
       <r>    6.9552    1.0000 </r>
       <r>    7.4110    1.0000 </r>
       <r>    8.1688    1.0000 </r>
       <r>    8.7211    1.0000 </r>
       <r>    8.9200    1.0000 </r>
       <r>    9.0289    1.0000 </r>
       <r>    9.1919    1.0000 </r>
       <r>    9.3739    1.0000 </r>
       <r>    9.6186    0.1861 </r>
       <r>    9.6320    0.0330 </r>
       <r>   10.0904    0.0000 </r>
       <r>   10.2882    0.0000 </r>
       <r>   10.3941    0.0000 </r>
       <r>   10.5120    0.0000 </r>
       <r>   10.6417    0.0000 </r>
       <r>   11.2576    0.0000 </r>
       <r>   11.5189    0.0000 </r>
       <r>   11.6771    0.0000 </r>
       <r>   12.3774    0.0000 </r>
       <r>   12.4478    0.0000 </r>
      </set>
      <set comment="kpoint 9">
       <r>  -53.7343    1.0000 </r>
       <r>  -53.7339    1.0000 </r>
       <r>  -53.0007    1.0000 </r>
       <r>  -52.9979    1.0000 </r>
       <r>  -27.2170    1.0000 </r>
       <r>  -27.2158    1.0000 </r>
       <r>  -27.2154    1.0000 </r>
       <r>  -27.2139    1.0000 </r>
       <r>  -26.9996    1.0000 </r>
       <r>  -26.9835    1.0000 </r>
       <r>  -26.8071    1.0000 </r>
       <r>  -26.8035    1.0000 </r>
       <r>  -26.6865    1.0000 </r>
       <r>  -26.6846    1.0000 </r>
       <r>  -26.4118    1.0000 </r>
       <r>  -26.3990    1.0000 </r>
       <r>   -3.1729    1.0000 </r>
       <r>   -1.1419    1.0000 </r>
       <r>   -0.6472    1.0000 </r>
       <r>   -0.1367    1.0000 </r>
       <r>    0.5858    1.0000 </r>
       <r>    0.9842    1.0000 </r>
       <r>    3.1131    1.0000 </r>
       <r>    3.7106    1.0000 </r>
       <r>    4.2210    1.0000 </r>
       <r>    4.3402    1.0000 </r>
       <r>    4.5892    1.0000 </r>
       <r>    4.7424    1.0000 </r>
       <r>    5.0942    1.0000 </r>
       <r>    5.1750    1.0000 </r>
       <r>    5.2585    1.0000 </r>
       <r>    5.6028    1.0000 </r>
       <r>    5.9926    1.0000 </r>
       <r>    6.0359    1.0000 </r>
       <r>    6.2431    1.0000 </r>
       <r>    7.6547    1.0000 </r>
       <r>    7.8812    1.0000 </r>
       <r>    8.7706    1.0000 </r>
       <r>    9.2671    1.0000 </r>
       <r>    9.3115    1.0000 </r>
       <r>    9.3903    1.0000 </r>
       <r>    9.4551    1.0000 </r>
       <r>    9.7099    0.0000 </r>
       <r>    9.7775    0.0000 </r>
       <r>    9.9110    0.0000 </r>
       <r>   10.1330    0.0000 </r>
       <r>   10.4244    0.0000 </r>
       <r>   10.5953    0.0000 </r>
       <r>   10.6227    0.0000 </r>
       <r>   10.9118    0.0000 </r>
       <r>   11.3950    0.0000 </r>
       <r>   11.4293    0.0000 </r>
       <r>   12.0791    0.0000 </r>
       <r>   12.8392    0.0000 </r>
      </set>
      <set comment="kpoint 10">
       <r>  -53.7344    1.0000 </r>
       <r>  -53.7339    1.0000 </r>
       <r>  -53.0009    1.0000 </r>
       <r>  -52.9977    1.0000 </r>
       <r>  -27.2167    1.0000 </r>
       <r>  -27.2162    1.0000 </r>
       <r>  -27.2153    1.0000 </r>
       <r>  -27.2141    1.0000 </r>
       <r>  -26.9987    1.0000 </r>
       <r>  -26.9830    1.0000 </r>
       <r>  -26.8074    1.0000 </r>
       <r>  -26.8046    1.0000 </r>
       <r>  -26.6858    1.0000 </r>
       <r>  -26.6848    1.0000 </r>
       <r>  -26.4127    1.0000 </r>
       <r>  -26.3982    1.0000 </r>
       <r>   -3.4587    1.0000 </r>
       <r>   -1.1760    1.0000 </r>
       <r>   -0.1342    1.0000 </r>
       <r>    0.1981    1.0000 </r>
       <r>    0.4728    1.0000 </r>
       <r>    0.7749    1.0000 </r>
       <r>    3.5836    1.0000 </r>
       <r>    3.8288    1.0000 </r>
       <r>    3.8731    1.0000 </r>
       <r>    4.6434    1.0000 </r>
       <r>    4.6571    1.0000 </r>
       <r>    4.8431    1.0000 </r>
       <r>    5.0419    1.0000 </r>
       <r>    5.1815    1.0000 </r>
       <r>    5.1988    1.0000 </r>
       <r>    5.3330    1.0000 </r>
       <r>    5.4547    1.0000 </r>
       <r>    5.6226    1.0000 </r>
       <r>    6.3640    1.0000 </r>
       <r>    7.5152    1.0000 </r>
       <r>    8.1337    1.0000 </r>
       <r>    8.1975    1.0000 </r>
       <r>    9.4096    1.0000 </r>
       <r>    9.5067    1.0000 </r>
       <r>    9.5414    1.0000 </r>
       <r>    9.5993    0.6839 </r>
       <r>    9.7811    0.0000 </r>
       <r>    9.9141    0.0000 </r>
       <r>   10.0164    0.0000 </r>
       <r>   10.1892    0.0000 </r>
       <r>   10.3341    0.0000 </r>
       <r>   10.3812    0.0000 </r>
       <r>   10.6325    0.0000 </r>
       <r>   11.0567    0.0000 </r>
       <r>   11.4493    0.0000 </r>
       <r>   11.7471    0.0000 </r>
       <r>   12.2027    0.0000 </r>
       <r>   12.4772    0.0000 </r>
      </set>
      <set comment="kpoint 11">
       <r>  -53.7342    1.0000 </r>
       <r>  -53.7340    1.0000 </r>
       <r>  -53.0005    1.0000 </r>
       <r>  -52.9981    1.0000 </r>
       <r>  -27.2178    1.0000 </r>
       <r>  -27.2163    1.0000 </r>
       <r>  -27.2155    1.0000 </r>
       <r>  -27.2133    1.0000 </r>
       <r>  -26.9952    1.0000 </r>
       <r>  -26.9895    1.0000 </r>
       <r>  -26.8068    1.0000 </r>
       <r>  -26.8029    1.0000 </r>
       <r>  -26.6855    1.0000 </r>
       <r>  -26.6847    1.0000 </r>
       <r>  -26.4081    1.0000 </r>
       <r>  -26.4028    1.0000 </r>
       <r>   -2.3600    1.0000 </r>
       <r>   -1.4157    1.0000 </r>
       <r>   -1.2806    1.0000 </r>
       <r>   -0.7472    1.0000 </r>
       <r>    1.0477    1.0000 </r>
       <r>    2.1738    1.0000 </r>
       <r>    2.2907    1.0000 </r>
       <r>    2.3747    1.0000 </r>
       <r>    3.4015    1.0000 </r>
       <r>    3.9621    1.0000 </r>
       <r>    4.6382    1.0000 </r>
       <r>    4.9460    1.0000 </r>
       <r>    5.2503    1.0000 </r>
       <r>    5.2893    1.0000 </r>
       <r>    5.7028    1.0000 </r>
       <r>    5.9766    1.0000 </r>
       <r>    6.5259    1.0000 </r>
       <r>    6.5870    1.0000 </r>
       <r>    6.9223    1.0000 </r>
       <r>    7.9349    1.0000 </r>
       <r>    7.9726    1.0000 </r>
       <r>    8.4596    1.0000 </r>
       <r>    8.5644    1.0000 </r>
       <r>    8.9476    1.0000 </r>
       <r>    9.2452    1.0000 </r>
       <r>    9.6953    0.0000 </r>
       <r>    9.7480    0.0000 </r>
       <r>   10.1197    0.0000 </r>
       <r>   10.1497    0.0000 </r>
       <r>   10.2132    0.0000 </r>
       <r>   10.3586    0.0000 </r>
       <r>   10.5630    0.0000 </r>
       <r>   10.8021    0.0000 </r>
       <r>   11.5198    0.0000 </r>
       <r>   11.7691    0.0000 </r>
       <r>   11.9846    0.0000 </r>
       <r>   12.2465    0.0000 </r>
       <r>   12.4167    0.0000 </r>
      </set>
      <set comment="kpoint 12">
       <r>  -53.7343    1.0000 </r>
       <r>  -53.7339    1.0000 </r>
       <r>  -53.0005    1.0000 </r>
       <r>  -52.9982    1.0000 </r>
       <r>  -27.2178    1.0000 </r>
       <r>  -27.2166    1.0000 </r>
       <r>  -27.2149    1.0000 </r>
       <r>  -27.2127    1.0000 </r>
       <r>  -27.0001    1.0000 </r>
       <r>  -26.9857    1.0000 </r>
       <r>  -26.8076    1.0000 </r>
       <r>  -26.8022    1.0000 </r>
       <r>  -26.6854    1.0000 </r>
       <r>  -26.6846    1.0000 </r>
       <r>  -26.4099    1.0000 </r>
       <r>  -26.4008    1.0000 </r>
       <r>   -2.0209    1.0000 </r>
       <r>   -1.7352    1.0000 </r>
       <r>   -1.3815    1.0000 </r>
       <r>   -0.6434    1.0000 </r>
       <r>    0.7202    1.0000 </r>
       <r>    1.5113    1.0000 </r>
       <r>    2.7830    1.0000 </r>
       <r>    3.0514    1.0000 </r>
       <r>    3.6498    1.0000 </r>
       <r>    4.3025    1.0000 </r>
       <r>    4.4832    1.0000 </r>
       <r>    4.9190    1.0000 </r>
       <r>    5.1899    1.0000 </r>
       <r>    5.4362    1.0000 </r>
       <r>    5.4662    1.0000 </r>
       <r>    5.5205    1.0000 </r>
       <r>    6.0027    1.0000 </r>
       <r>    6.6545    1.0000 </r>
       <r>    7.3895    1.0000 </r>
       <r>    8.0118    1.0000 </r>
       <r>    8.1875    1.0000 </r>
       <r>    8.4229    1.0000 </r>
       <r>    8.7850    1.0000 </r>
       <r>    8.8378    1.0000 </r>
       <r>    9.0090    1.0000 </r>
       <r>    9.3661    1.0000 </r>
       <r>    9.6803    0.0000 </r>
       <r>    9.7917    0.0000 </r>
       <r>   10.2266    0.0000 </r>
       <r>   10.3823    0.0000 </r>
       <r>   10.4889    0.0000 </r>
       <r>   10.5410    0.0000 </r>
       <r>   10.5932    0.0000 </r>
       <r>   11.1526    0.0000 </r>
       <r>   11.5057    0.0000 </r>
       <r>   11.6423    0.0000 </r>
       <r>   12.4712    0.0000 </r>
       <r>   12.7987    0.0000 </r>
      </set>
      <set comment="kpoint 13">
       <r>  -53.7344    1.0000 </r>
       <r>  -53.7339    1.0000 </r>
       <r>  -53.0005    1.0000 </r>
       <r>  -52.9981    1.0000 </r>
       <r>  -27.2174    1.0000 </r>
       <r>  -27.2167    1.0000 </r>
       <r>  -27.2145    1.0000 </r>
       <r>  -27.2127    1.0000 </r>
       <r>  -27.0029    1.0000 </r>
       <r>  -26.9829    1.0000 </r>
       <r>  -26.8080    1.0000 </r>
       <r>  -26.8021    1.0000 </r>
       <r>  -26.6863    1.0000 </r>
       <r>  -26.6842    1.0000 </r>
       <r>  -26.4114    1.0000 </r>
       <r>  -26.3991    1.0000 </r>
       <r>   -2.5885    1.0000 </r>
       <r>   -1.3468    1.0000 </r>
       <r>   -1.1009    1.0000 </r>
       <r>   -0.4368    1.0000 </r>
       <r>    0.4786    1.0000 </r>
       <r>    1.0136    1.0000 </r>
       <r>    3.3035    1.0000 </r>
       <r>    3.7658    1.0000 </r>
       <r>    3.9174    1.0000 </r>
       <r>    4.2793    1.0000 </r>
       <r>    4.7210    1.0000 </r>
       <r>    4.8086    1.0000 </r>
       <r>    5.0552    1.0000 </r>
       <r>    5.1415    1.0000 </r>
       <r>    5.2198    1.0000 </r>
       <r>    5.2682    1.0000 </r>
       <r>    5.7074    1.0000 </r>
       <r>    6.9096    1.0000 </r>
       <r>    7.3746    1.0000 </r>
       <r>    7.6303    1.0000 </r>
       <r>    8.0478    1.0000 </r>
       <r>    8.5159    1.0000 </r>
       <r>    8.8738    1.0000 </r>
       <r>    8.9075    1.0000 </r>
       <r>    8.9525    1.0000 </r>
       <r>    9.4368    1.0000 </r>
       <r>    9.5890    0.8857 </r>
       <r>    9.8921    0.0000 </r>
       <r>   10.1693    0.0000 </r>
       <r>   10.2751    0.0000 </r>
       <r>   10.3233    0.0000 </r>
       <r>   10.6133    0.0000 </r>
       <r>   10.7121    0.0000 </r>
       <r>   10.8577    0.0000 </r>
       <r>   10.9888    0.0000 </r>
       <r>   11.0773    0.0000 </r>
       <r>   12.6946    0.0000 </r>
       <r>   13.0106    0.0000 </r>
      </set>
      <set comment="kpoint 14">
       <r>  -53.7344    1.0000 </r>
       <r>  -53.7339    1.0000 </r>
       <r>  -53.0006    1.0000 </r>
       <r>  -52.9980    1.0000 </r>
       <r>  -27.2171    1.0000 </r>
       <r>  -27.2163    1.0000 </r>
       <r>  -27.2150    1.0000 </r>
       <r>  -27.2130    1.0000 </r>
       <r>  -27.0024    1.0000 </r>
       <r>  -26.9822    1.0000 </r>
       <r>  -26.8076    1.0000 </r>
       <r>  -26.8028    1.0000 </r>
       <r>  -26.6867    1.0000 </r>
       <r>  -26.6843    1.0000 </r>
       <r>  -26.4122    1.0000 </r>
       <r>  -26.3984    1.0000 </r>
       <r>   -2.9881    1.0000 </r>
       <r>   -1.2585    1.0000 </r>
       <r>   -0.7053    1.0000 </r>
       <r>   -0.0098    1.0000 </r>
       <r>    0.1967    1.0000 </r>
       <r>    0.8308    1.0000 </r>
       <r>    3.7675    1.0000 </r>
       <r>    4.0497    1.0000 </r>
       <r>    4.1564    1.0000 </r>
       <r>    4.2714    1.0000 </r>
       <r>    4.4507    1.0000 </r>
       <r>    4.7677    1.0000 </r>
       <r>    4.9931    1.0000 </r>
       <r>    5.0142    1.0000 </r>
       <r>    5.0298    1.0000 </r>
       <r>    5.0731    1.0000 </r>
       <r>    5.9855    1.0000 </r>
       <r>    6.6567    1.0000 </r>
       <r>    6.9342    1.0000 </r>
       <r>    7.4063    1.0000 </r>
       <r>    7.7707    1.0000 </r>
       <r>    8.8742    1.0000 </r>
       <r>    9.0767    1.0000 </r>
       <r>    9.1660    1.0000 </r>
       <r>    9.2099    1.0000 </r>
       <r>    9.4268    1.0000 </r>
       <r>    9.5944    0.7940 </r>
       <r>    9.8718    0.0000 </r>
       <r>    9.9423    0.0000 </r>
       <r>   10.0988    0.0000 </r>
       <r>   10.5556    0.0000 </r>
       <r>   10.5967    0.0000 </r>
       <r>   10.6898    0.0000 </r>
       <r>   10.7589    0.0000 </r>
       <r>   10.8259    0.0000 </r>
       <r>   10.8923    0.0000 </r>
       <r>   12.6597    0.0000 </r>
       <r>   13.1258    0.0000 </r>
      </set>
      <set comment="kpoint 15">
       <r>  -53.7344    1.0000 </r>
       <r>  -53.7339    1.0000 </r>
       <r>  -53.0005    1.0000 </r>
       <r>  -52.9982    1.0000 </r>
       <r>  -27.2176    1.0000 </r>
       <r>  -27.2170    1.0000 </r>
       <r>  -27.2142    1.0000 </r>
       <r>  -27.2121    1.0000 </r>
       <r>  -27.0043    1.0000 </r>
       <r>  -26.9826    1.0000 </r>
       <r>  -26.8090    1.0000 </r>
       <r>  -26.8015    1.0000 </r>
       <r>  -26.6855    1.0000 </r>
       <r>  -26.6840    1.0000 </r>
       <r>  -26.4113    1.0000 </r>
       <r>  -26.3992    1.0000 </r>
       <r>   -1.9554    1.0000 </r>
       <r>   -1.8286    1.0000 </r>
       <r>   -1.2777    1.0000 </r>
       <r>   -0.5696    1.0000 </r>
       <r>    0.4571    1.0000 </r>
       <r>    1.0328    1.0000 </r>
       <r>    3.4435    1.0000 </r>
       <r>    3.5456    1.0000 </r>
       <r>    4.0274    1.0000 </r>
       <r>    4.1965    1.0000 </r>
       <r>    4.6969    1.0000 </r>
       <r>    4.7715    1.0000 </r>
       <r>    4.9635    1.0000 </r>
       <r>    5.1401    1.0000 </r>
       <r>    5.3899    1.0000 </r>
       <r>    5.5929    1.0000 </r>
       <r>    5.8686    1.0000 </r>
       <r>    5.8915    1.0000 </r>
       <r>    7.7762    1.0000 </r>
       <r>    8.3215    1.0000 </r>
       <r>    8.4273    1.0000 </r>
       <r>    8.5198    1.0000 </r>
       <r>    8.5859    1.0000 </r>
       <r>    8.8343    1.0000 </r>
       <r>    9.1944    1.0000 </r>
       <r>    9.2153    1.0000 </r>
       <r>    9.2923    1.0000 </r>
       <r>    9.6459    0.0024 </r>
       <r>    9.8093    0.0000 </r>
       <r>   10.1864    0.0000 </r>
       <r>   10.3189    0.0000 </r>
       <r>   10.7271    0.0000 </r>
       <r>   10.8789    0.0000 </r>
       <r>   11.0982    0.0000 </r>
       <r>   11.2663    0.0000 </r>
       <r>   11.3165    0.0000 </r>
       <r>   12.7570    0.0000 </r>
       <r>   13.1292    0.0000 </r>
      </set>
      <set comment="kpoint 16">
       <r>  -53.7344    1.0000 </r>
       <r>  -53.7338    1.0000 </r>
       <r>  -53.0005    1.0000 </r>
       <r>  -52.9981    1.0000 </r>
       <r>  -27.2174    1.0000 </r>
       <r>  -27.2171    1.0000 </r>
       <r>  -27.2140    1.0000 </r>
       <r>  -27.2121    1.0000 </r>
       <r>  -27.0053    1.0000 </r>
       <r>  -26.9815    1.0000 </r>
       <r>  -26.8092    1.0000 </r>
       <r>  -26.8015    1.0000 </r>
       <r>  -26.6859    1.0000 </r>
       <r>  -26.6838    1.0000 </r>
       <r>  -26.4118    1.0000 </r>
       <r>  -26.3986    1.0000 </r>
       <r>   -2.3201    1.0000 </r>
       <r>   -1.6449    1.0000 </r>
       <r>   -1.0683    1.0000 </r>
       <r>   -0.3153    1.0000 </r>
       <r>    0.1971    1.0000 </r>
       <r>    0.8769    1.0000 </r>
       <r>    3.7700    1.0000 </r>
       <r>    3.9524    1.0000 </r>
       <r>    3.9861    1.0000 </r>
       <r>    4.3477    1.0000 </r>
       <r>    4.5620    1.0000 </r>
       <r>    4.7536    1.0000 </r>
       <r>    4.8861    1.0000 </r>
       <r>    5.0576    1.0000 </r>
       <r>    5.1819    1.0000 </r>
       <r>    5.3044    1.0000 </r>
       <r>    5.7320    1.0000 </r>
       <r>    6.2318    1.0000 </r>
       <r>    8.1009    1.0000 </r>
       <r>    8.1412    1.0000 </r>
       <r>    8.2028    1.0000 </r>
       <r>    8.3896    1.0000 </r>
       <r>    8.6349    1.0000 </r>
       <r>    8.7447    1.0000 </r>
       <r>    8.9340    1.0000 </r>
       <r>    9.1819    1.0000 </r>
       <r>    9.5964    0.7514 </r>
       <r>    9.7360    0.0000 </r>
       <r>    9.8803    0.0000 </r>
       <r>   10.0394    0.0000 </r>
       <r>   10.2632    0.0000 </r>
       <r>   10.6950    0.0000 </r>
       <r>   10.8730    0.0000 </r>
       <r>   10.9423    0.0000 </r>
       <r>   11.0269    0.0000 </r>
       <r>   11.2257    0.0000 </r>
       <r>   12.9742    0.0000 </r>
       <r>   13.1680    0.0000 </r>
      </set>
      <set comment="kpoint 17">
       <r>  -53.7344    1.0000 </r>
       <r>  -53.7339    1.0000 </r>
       <r>  -53.0009    1.0000 </r>
       <r>  -52.9976    1.0000 </r>
       <r>  -27.2169    1.0000 </r>
       <r>  -27.2160    1.0000 </r>
       <r>  -27.2149    1.0000 </r>
       <r>  -27.2144    1.0000 </r>
       <r>  -26.9983    1.0000 </r>
       <r>  -26.9831    1.0000 </r>
       <r>  -26.8072    1.0000 </r>
       <r>  -26.8050    1.0000 </r>
       <r>  -26.6858    1.0000 </r>
       <r>  -26.6847    1.0000 </r>
       <r>  -26.4127    1.0000 </r>
       <r>  -26.3982    1.0000 </r>
       <r>   -3.4975    1.0000 </r>
       <r>   -1.1766    1.0000 </r>
       <r>   -0.0652    1.0000 </r>
       <r>    0.1972    1.0000 </r>
       <r>    0.5288    1.0000 </r>
       <r>    0.7707    1.0000 </r>
       <r>    3.5435    1.0000 </r>
       <r>    3.7934    1.0000 </r>
       <r>    3.8864    1.0000 </r>
       <r>    4.6065    1.0000 </r>
       <r>    4.6186    1.0000 </r>
       <r>    4.9315    1.0000 </r>
       <r>    5.0215    1.0000 </r>
       <r>    5.2191    1.0000 </r>
       <r>    5.2717    1.0000 </r>
       <r>    5.3000    1.0000 </r>
       <r>    5.4321    1.0000 </r>
       <r>    5.5147    1.0000 </r>
       <r>    6.4065    1.0000 </r>
       <r>    7.4940    1.0000 </r>
       <r>    8.0466    1.0000 </r>
       <r>    8.1939    1.0000 </r>
       <r>    9.4373    1.0000 </r>
       <r>    9.4831    1.0000 </r>
       <r>    9.6186    0.1865 </r>
       <r>    9.6228    0.1170 </r>
       <r>    9.7498    0.0000 </r>
       <r>    9.9544    0.0000 </r>
       <r>   10.0862    0.0000 </r>
       <r>   10.2152    0.0000 </r>
       <r>   10.2490    0.0000 </r>
       <r>   10.3551    0.0000 </r>
       <r>   10.6085    0.0000 </r>
       <r>   11.1851    0.0000 </r>
       <r>   11.4551    0.0000 </r>
       <r>   11.9145    0.0000 </r>
       <r>   12.1893    0.0000 </r>
       <r>   12.4405    0.0000 </r>
      </set>
      <set comment="kpoint 18">
       <r>  -53.7343    1.0000 </r>
       <r>  -53.7339    1.0000 </r>
       <r>  -53.0008    1.0000 </r>
       <r>  -52.9978    1.0000 </r>
       <r>  -27.2171    1.0000 </r>
       <r>  -27.2155    1.0000 </r>
       <r>  -27.2153    1.0000 </r>
       <r>  -27.2143    1.0000 </r>
       <r>  -26.9992    1.0000 </r>
       <r>  -26.9836    1.0000 </r>
       <r>  -26.8066    1.0000 </r>
       <r>  -26.8042    1.0000 </r>
       <r>  -26.6865    1.0000 </r>
       <r>  -26.6845    1.0000 </r>
       <r>  -26.4119    1.0000 </r>
       <r>  -26.3989    1.0000 </r>
       <r>   -3.2298    1.0000 </r>
       <r>   -1.1356    1.0000 </r>
       <r>   -0.5810    1.0000 </r>
       <r>   -0.1028    1.0000 </r>
       <r>    0.6103    1.0000 </r>
       <r>    0.9834    1.0000 </r>
       <r>    3.0936    1.0000 </r>
       <r>    3.6503    1.0000 </r>
       <r>    4.2713    1.0000 </r>
       <r>    4.4155    1.0000 </r>
       <r>    4.5560    1.0000 </r>
       <r>    4.7261    1.0000 </r>
       <r>    5.0960    1.0000 </r>
       <r>    5.1994    1.0000 </r>
       <r>    5.2631    1.0000 </r>
       <r>    5.6468    1.0000 </r>
       <r>    5.8778    1.0000 </r>
       <r>    6.0717    1.0000 </r>
       <r>    6.0879    1.0000 </r>
       <r>    7.6295    1.0000 </r>
       <r>    7.9425    1.0000 </r>
       <r>    8.6689    1.0000 </r>
       <r>    9.3206    1.0000 </r>
       <r>    9.3307    1.0000 </r>
       <r>    9.4255    1.0000 </r>
       <r>    9.5299    1.0000 </r>
       <r>    9.7059    0.0000 </r>
       <r>    9.8280    0.0000 </r>
       <r>    9.9535    0.0000 </r>
       <r>   10.0492    0.0000 </r>
       <r>   10.4248    0.0000 </r>
       <r>   10.5400    0.0000 </r>
       <r>   10.6196    0.0000 </r>
       <r>   10.9873    0.0000 </r>
       <r>   11.5069    0.0000 </r>
       <r>   11.5246    0.0000 </r>
       <r>   12.0342    0.0000 </r>
       <r>   12.7632    0.0000 </r>
      </set>
      <set comment="kpoint 19">
       <r>  -53.7343    1.0000 </r>
       <r>  -53.7340    1.0000 </r>
       <r>  -53.0005    1.0000 </r>
       <r>  -52.9981    1.0000 </r>
       <r>  -27.2174    1.0000 </r>
       <r>  -27.2159    1.0000 </r>
       <r>  -27.2149    1.0000 </r>
       <r>  -27.2144    1.0000 </r>
       <r>  -26.9981    1.0000 </r>
       <r>  -26.9859    1.0000 </r>
       <r>  -26.8061    1.0000 </r>
       <r>  -26.8034    1.0000 </r>
       <r>  -26.6865    1.0000 </r>
       <r>  -26.6847    1.0000 </r>
       <r>  -26.4101    1.0000 </r>
       <r>  -26.4008    1.0000 </r>
       <r>   -2.7350    1.0000 </r>
       <r>   -1.3781    1.0000 </r>
       <r>   -1.0238    1.0000 </r>
       <r>   -0.4026    1.0000 </r>
       <r>    0.7888    1.0000 </r>
       <r>    1.4758    1.0000 </r>
       <r>    2.4427    1.0000 </r>
[...]
       <r>   -0.9737    1.0000 </r>
       <r>   -0.6442    1.0000 </r>
       <r>    0.1007    1.0000 </r>
       <r>    1.2541    1.0000 </r>
       <r>    2.0104    1.0000 </r>
       <r>    2.6345    1.0000 </r>
       <r>    3.1597    1.0000 </r>
       <r>    3.1640    1.0000 </r>
       <r>    4.9012    1.0000 </r>
       <r>    5.1003    1.0000 </r>
       <r>    5.4401    1.0000 </r>
       <r>    5.4762    1.0000 </r>
       <r>    5.8615    1.0000 </r>
       <r>    5.9265    1.0000 </r>
       <r>    6.2334    1.0000 </r>
       <r>    6.3699    1.0000 </r>
       <r>    7.2940    1.0000 </r>
       <r>    8.4758    1.0000 </r>
       <r>    8.6435    1.0000 </r>
       <r>    8.8359    1.0000 </r>
       <r>    8.8920    1.0000 </r>
       <r>    9.1942    1.0000 </r>
       <r>    9.4665    1.0000 </r>
       <r>    9.9011    0.0000 </r>
       <r>    9.9243    0.0000 </r>
       <r>   10.0121    0.0000 </r>
       <r>   10.0377    0.0000 </r>
       <r>   10.1462    0.0000 </r>
       <r>   10.5346    0.0000 </r>
       <r>   11.0001    0.0000 </r>
       <r>   11.0967    0.0000 </r>
       <r>   11.9591    0.0000 </r>
       <r>   12.0169    0.0000 </r>
       <r>   12.2422    0.0000 </r>
       <r>   12.8306    0.0000 </r>
       <r>   13.2468    0.0000 </r>
      </set>
      <set comment="kpoint 116">
       <r>  -53.7345    1.0000 </r>
       <r>  -53.7338    1.0000 </r>
       <r>  -53.0007    1.0000 </r>
       <r>  -52.9979    1.0000 </r>
       <r>  -27.2215    1.0000 </r>
       <r>  -27.2210    1.0000 </r>
       <r>  -27.2130    1.0000 </r>
       <r>  -27.2130    1.0000 </r>
       <r>  -26.9999    1.0000 </r>
       <r>  -26.9805    1.0000 </r>
       <r>  -26.8057    1.0000 </r>
       <r>  -26.8036    1.0000 </r>
       <r>  -26.6843    1.0000 </r>
       <r>  -26.6841    1.0000 </r>
       <r>  -26.4141    1.0000 </r>
       <r>  -26.3981    1.0000 </r>
       <r>   -1.9253    1.0000 </r>
       <r>   -1.0086    1.0000 </r>
       <r>   -1.0012    1.0000 </r>
       <r>   -0.9407    1.0000 </r>
       <r>    0.3663    1.0000 </r>
       <r>    0.9232    1.0000 </r>
       <r>    1.9644    1.0000 </r>
       <r>    2.5912    1.0000 </r>
       <r>    3.2933    1.0000 </r>
       <r>    3.2937    1.0000 </r>
       <r>    4.8863    1.0000 </r>
       <r>    5.0871    1.0000 </r>
       <r>    5.5008    1.0000 </r>
       <r>    5.5648    1.0000 </r>
       <r>    5.7569    1.0000 </r>
       <r>    5.7926    1.0000 </r>
       <r>    6.2453    1.0000 </r>
       <r>    6.3888    1.0000 </r>
       <r>    7.3432    1.0000 </r>
       <r>    8.5789    1.0000 </r>
       <r>    8.7009    1.0000 </r>
       <r>    8.7454    1.0000 </r>
       <r>    8.8096    1.0000 </r>
       <r>    9.1428    1.0000 </r>
       <r>    9.6324    0.0310 </r>
       <r>    9.9038    0.0000 </r>
       <r>    9.9814    0.0000 </r>
       <r>   10.0141    0.0000 </r>
       <r>   10.0205    0.0000 </r>
       <r>   10.1723    0.0000 </r>
       <r>   10.5550    0.0000 </r>
       <r>   11.0332    0.0000 </r>
       <r>   11.1237    0.0000 </r>
       <r>   11.8936    0.0000 </r>
       <r>   12.0278    0.0000 </r>
       <r>   12.0869    0.0000 </r>
       <r>   12.1968    0.0000 </r>
       <r>   13.4999    0.0000 </r>
      </set>
     </set>
    </set>
   </array>
  </eigenvalues>
  <separator name="orbital magnetization" >
   <v name="MAGDIPOLOUT">      0.00000000      0.00000000      0.00000000</v>
  </separator>
  <dos>
   <i name="efermi">      9.60600159 </i>
   <total>
    <array>
     <dimension dim="1">gridpoints</dimension>
     <dimension dim="2">spin</dimension>
     <field>energy</field>
     <field>total</field>
     <field>integrated</field>
     <set>
      <set comment="spin 1">
       <r>   -57.0967     0.0000     0.0000 </r>
       <r>   -56.8501     0.0000     0.0000 </r>
       <r>   -56.6036     0.0000     0.0000 </r>
       <r>   -56.3570     0.0000     0.0000 </r>
       <r>   -56.1104     0.0000     0.0000 </r>
       <r>   -55.8639     0.0000     0.0000 </r>
       <r>   -55.6173     0.0000     0.0000 </r>
       <r>   -55.3707     0.0000     0.0000 </r>
       <r>   -55.1242     0.0000     0.0000 </r>
       <r>   -54.8776     0.0000     0.0000 </r>
       <r>   -54.6310     0.0000     0.0000 </r>
       <r>   -54.3845     0.0000     0.0000 </r>
       <r>   -54.1379     0.0000     0.0000 </r>
       <r>   -53.8914     0.0000     0.0000 </r>
       <r>   -53.6448    16.2230     4.0000 </r>
       <r>   -53.3982     0.0000     4.0000 </r>
       <r>   -53.1517     0.0000     4.0000 </r>
       <r>   -52.9051    16.2230     8.0000 </r>
       <r>   -52.6585     0.0000     8.0000 </r>
       <r>   -52.4120     0.0000     8.0000 </r>
       <r>   -52.1654     0.0000     8.0000 </r>
       <r>   -51.9189     0.0000     8.0000 </r>
       <r>   -51.6723     0.0000     8.0000 </r>
       <r>   -51.4257     0.0000     8.0000 </r>
       <r>   -51.1792     0.0000     8.0000 </r>
       <r>   -50.9326     0.0000     8.0000 </r>
       <r>   -50.6860     0.0000     8.0000 </r>
       <r>   -50.4395     0.0000     8.0000 </r>
       <r>   -50.1929     0.0000     8.0000 </r>
       <r>   -49.9464     0.0000     8.0000 </r>
       <r>   -49.6998     0.0000     8.0000 </r>
       <r>   -49.4532     0.0000     8.0000 </r>
       <r>   -49.2067     0.0000     8.0000 </r>
       <r>   -48.9601     0.0000     8.0000 </r>
       <r>   -48.7135     0.0000     8.0000 </r>
       <r>   -48.4670     0.0000     8.0000 </r>
       <r>   -48.2204     0.0000     8.0000 </r>
       <r>   -47.9738     0.0000     8.0000 </r>
       <r>   -47.7273     0.0000     8.0000 </r>
       <r>   -47.4807     0.0000     8.0000 </r>
       <r>   -47.2342     0.0000     8.0000 </r>
       <r>   -46.9876     0.0000     8.0000 </r>
       <r>   -46.7410     0.0000     8.0000 </r>
       <r>   -46.4945     0.0000     8.0000 </r>
       <r>   -46.2479     0.0000     8.0000 </r>
       <r>   -46.0013     0.0000     8.0000 </r>
       <r>   -45.7548     0.0000     8.0000 </r>
       <r>   -45.5082     0.0000     8.0000 </r>
       <r>   -45.2617     0.0000     8.0000 </r>
       <r>   -45.0151     0.0000     8.0000 </r>
       <r>   -44.7685     0.0000     8.0000 </r>
       <r>   -44.5220     0.0000     8.0000 </r>
       <r>   -44.2754     0.0000     8.0000 </r>
       <r>   -44.0288     0.0000     8.0000 </r>
       <r>   -43.7823     0.0000     8.0000 </r>
       <r>   -43.5357     0.0000     8.0000 </r>
       <r>   -43.2892     0.0000     8.0000 </r>
       <r>   -43.0426     0.0000     8.0000 </r>
       <r>   -42.7960     0.0000     8.0000 </r>
       <r>   -42.5495     0.0000     8.0000 </r>
       <r>   -42.3029     0.0000     8.0000 </r>
       <r>   -42.0563     0.0000     8.0000 </r>
       <r>   -41.8098     0.0000     8.0000 </r>
       <r>   -41.5632     0.0000     8.0000 </r>
       <r>   -41.3166     0.0000     8.0000 </r>
       <r>   -41.0701     0.0000     8.0000 </r>
       <r>   -40.8235     0.0000     8.0000 </r>
       <r>   -40.5770     0.0000     8.0000 </r>
       <r>   -40.3304     0.0000     8.0000 </r>
       <r>   -40.0838     0.0000     8.0000 </r>
       <r>   -39.8373     0.0000     8.0000 </r>
       <r>   -39.5907     0.0000     8.0000 </r>
       <r>   -39.3441     0.0000     8.0000 </r>
       <r>   -39.0976     0.0000     8.0000 </r>
       <r>   -38.8510     0.0000     8.0000 </r>
       <r>   -38.6045     0.0000     8.0000 </r>
       <r>   -38.3579     0.0000     8.0000 </r>
       <r>   -38.1113     0.0000     8.0000 </r>
       <r>   -37.8648     0.0000     8.0000 </r>
       <r>   -37.6182     0.0000     8.0000 </r>
       <r>   -37.3716     0.0000     8.0000 </r>
       <r>   -37.1251     0.0000     8.0000 </r>
       <r>   -36.8785     0.0000     8.0000 </r>
       <r>   -36.6319     0.0000     8.0000 </r>
       <r>   -36.3854     0.0000     8.0000 </r>
       <r>   -36.1388     0.0000     8.0000 </r>
       <r>   -35.8923     0.0000     8.0000 </r>
       <r>   -35.6457     0.0000     8.0000 </r>
       <r>   -35.3991     0.0000     8.0000 </r>
       <r>   -35.1526     0.0000     8.0000 </r>
       <r>   -34.9060     0.0000     8.0000 </r>
       <r>   -34.6594     0.0000     8.0000 </r>
       <r>   -34.4129     0.0000     8.0000 </r>
       <r>   -34.1663     0.0000     8.0000 </r>
       <r>   -33.9198     0.0000     8.0000 </r>
       <r>   -33.6732     0.0000     8.0000 </r>
       <r>   -33.4266     0.0000     8.0000 </r>
       <r>   -33.1801     0.0000     8.0000 </r>
       <r>   -32.9335     0.0000     8.0000 </r>
       <r>   -32.6869     0.0000     8.0000 </r>
       <r>   -32.4404     0.0000     8.0000 </r>
       <r>   -32.1938     0.0000     8.0000 </r>
       <r>   -31.9473     0.0000     8.0000 </r>
       <r>   -31.7007     0.0000     8.0000 </r>
       <r>   -31.4541     0.0000     8.0000 </r>
       <r>   -31.2076     0.0000     8.0000 </r>
       <r>   -30.9610     0.0000     8.0000 </r>
       <r>   -30.7144     0.0000     8.0000 </r>
       <r>   -30.4679     0.0000     8.0000 </r>
       <r>   -30.2213     0.0000     8.0000 </r>
       <r>   -29.9747     0.0000     8.0000 </r>
       <r>   -29.7282     0.0000     8.0000 </r>
       <r>   -29.4816     0.0000     8.0000 </r>
       <r>   -29.2351     0.0000     8.0000 </r>
       <r>   -28.9885     0.0000     8.0000 </r>
       <r>   -28.7419     0.0000     8.0000 </r>
       <r>   -28.4954     0.0000     8.0000 </r>
       <r>   -28.2488     0.0000     8.0000 </r>
       <r>   -28.0022     0.0000     8.0000 </r>
       <r>   -27.7557     0.0000     8.0000 </r>
       <r>   -27.5091     0.0000     8.0000 </r>
       <r>   -27.2626     0.0172     8.0042 </r>
       <r>   -27.0160     1.0616    16.2618 </r>
       <r>   -26.7694    16.1206    23.9747 </r>
       <r>   -26.5229     0.0000    28.0000 </r>
       <r>   -26.2763    16.2230    32.0000 </r>
       <r>   -26.0297     0.0000    32.0000 </r>
       <r>   -25.7832     0.0000    32.0000 </r>
       <r>   -25.5366     0.0000    32.0000 </r>
       <r>   -25.2901     0.0000    32.0000 </r>
       <r>   -25.0435     0.0000    32.0000 </r>
       <r>   -24.7969     0.0000    32.0000 </r>
       <r>   -24.5504     0.0000    32.0000 </r>
       <r>   -24.3038     0.0000    32.0000 </r>
       <r>   -24.0572     0.0000    32.0000 </r>
       <r>   -23.8107     0.0000    32.0000 </r>
       <r>   -23.5641     0.0000    32.0000 </r>
       <r>   -23.3175     0.0000    32.0000 </r>
       <r>   -23.0710     0.0000    32.0000 </r>
       <r>   -22.8244     0.0000    32.0000 </r>
       <r>   -22.5779     0.0000    32.0000 </r>
       <r>   -22.3313     0.0000    32.0000 </r>
       <r>   -22.0847     0.0000    32.0000 </r>
       <r>   -21.8382     0.0000    32.0000 </r>
       <r>   -21.5916     0.0000    32.0000 </r>
       <r>   -21.3450     0.0000    32.0000 </r>
       <r>   -21.0985     0.0000    32.0000 </r>
       <r>   -20.8519     0.0000    32.0000 </r>
       <r>   -20.6054     0.0000    32.0000 </r>
       <r>   -20.3588     0.0000    32.0000 </r>
       <r>   -20.1122     0.0000    32.0000 </r>
       <r>   -19.8657     0.0000    32.0000 </r>
       <r>   -19.6191     0.0000    32.0000 </r>
       <r>   -19.3725     0.0000    32.0000 </r>
       <r>   -19.1260     0.0000    32.0000 </r>
       <r>   -18.8794     0.0000    32.0000 </r>
       <r>   -18.6328     0.0000    32.0000 </r>
       <r>   -18.3863     0.0000    32.0000 </r>
       <r>   -18.1397     0.0000    32.0000 </r>
       <r>   -17.8932     0.0000    32.0000 </r>
       <r>   -17.6466     0.0000    32.0000 </r>
       <r>   -17.4000     0.0000    32.0000 </r>
       <r>   -17.1535     0.0000    32.0000 </r>
       <r>   -16.9069     0.0000    32.0000 </r>
       <r>   -16.6603     0.0000    32.0000 </r>
       <r>   -16.4138     0.0000    32.0000 </r>
       <r>   -16.1672     0.0000    32.0000 </r>
       <r>   -15.9207     0.0000    32.0000 </r>
       <r>   -15.6741     0.0000    32.0000 </r>
       <r>   -15.4275     0.0000    32.0000 </r>
       <r>   -15.1810     0.0000    32.0000 </r>
       <r>   -14.9344     0.0000    32.0000 </r>
       <r>   -14.6878     0.0000    32.0000 </r>
       <r>   -14.4413     0.0000    32.0000 </r>
       <r>   -14.1947     0.0000    32.0000 </r>
       <r>   -13.9482     0.0000    32.0000 </r>
       <r>   -13.7016     0.0000    32.0000 </r>
       <r>   -13.4550     0.0000    32.0000 </r>
       <r>   -13.2085     0.0000    32.0000 </r>
       <r>   -12.9619     0.0000    32.0000 </r>
       <r>   -12.7153     0.0000    32.0000 </r>
       <r>   -12.4688     0.0000    32.0000 </r>
       <r>   -12.2222     0.0000    32.0000 </r>
       <r>   -11.9756     0.0000    32.0000 </r>
       <r>   -11.7291     0.0000    32.0000 </r>
       <r>   -11.4825     0.0000    32.0000 </r>
       <r>   -11.2360     0.0000    32.0000 </r>
       <r>   -10.9894     0.0000    32.0000 </r>
       <r>   -10.7428     0.0000    32.0000 </r>
       <r>   -10.4963     0.0000    32.0000 </r>
       <r>   -10.2497     0.0000    32.0000 </r>
       <r>   -10.0031     0.0000    32.0000 </r>
       <r>    -9.7566     0.0000    32.0000 </r>
       <r>    -9.5100     0.0000    32.0000 </r>
       <r>    -9.2635     0.0000    32.0000 </r>
       <r>    -9.0169     0.0000    32.0000 </r>
       <r>    -8.7703     0.0000    32.0000 </r>
       <r>    -8.5238     0.0000    32.0000 </r>
       <r>    -8.2772     0.0000    32.0000 </r>
       <r>    -8.0306     0.0000    32.0000 </r>
       <r>    -7.7841     0.0000    32.0000 </r>
       <r>    -7.5375     0.0000    32.0000 </r>
       <r>    -7.2910     0.0000    32.0000 </r>
       <r>    -7.0444     0.0000    32.0000 </r>
       <r>    -6.7978     0.0000    32.0000 </r>
       <r>    -6.5513     0.0000    32.0000 </r>
       <r>    -6.3047     0.0000    32.0000 </r>
       <r>    -6.0581     0.0000    32.0000 </r>
       <r>    -5.8116     0.0000    32.0000 </r>
       <r>    -5.5650     0.0000    32.0000 </r>
       <r>    -5.3184     0.0000    32.0000 </r>
       <r>    -5.0719     0.0000    32.0000 </r>
       <r>    -4.8253     0.0000    32.0000 </r>
       <r>    -4.5788     0.0000    32.0000 </r>
       <r>    -4.3322     0.0000    32.0000 </r>
       <r>    -4.0856     0.0000    32.0000 </r>
       <r>    -3.8391     0.0000    32.0000 </r>
       <r>    -3.5925     0.0205    32.0051 </r>
       <r>    -3.3459     0.2516    32.0875 </r>
       <r>    -3.0994     0.6153    32.3099 </r>
       <r>    -2.8528     0.7274    32.5008 </r>
       <r>    -2.6063     0.6274    32.7618 </r>
       <r>    -2.3597     0.9171    33.1088 </r>
       <r>    -2.1131     1.1365    33.5506 </r>
       <r>    -1.8666     1.1992    33.9691 </r>
       <r>    -1.6200     1.8165    34.5958 </r>
       <r>    -1.3734     1.6872    35.2272 </r>
       <r>    -1.1269     3.0669    36.2205 </r>
       <r>    -0.8803     3.3467    37.4833 </r>
       <r>    -0.6338     1.8831    38.3265 </r>
       <r>    -0.3872     1.8349    39.1820 </r>
       <r>    -0.1406     1.0161    39.7199 </r>
       <r>     0.1059     1.1529    40.1108 </r>
       <r>     0.3525     1.9491    40.6949 </r>
       <r>     0.5991     0.8402    40.9572 </r>
       <r>     0.8456     1.6663    41.4466 </r>
       <r>     1.0922     2.2357    42.2043 </r>
       <r>     1.3388     0.7626    42.5758 </r>
       <r>     1.5853     1.8569    43.2334 </r>
       <r>     1.8319     0.8055    43.6272 </r>
       <r>     2.0784     1.4104    44.1539 </r>
       <r>     2.3250     1.6578    44.7047 </r>
       <r>     2.5716     1.4526    45.2765 </r>
       <r>     2.8181     1.7091    45.9418 </r>
       <r>     3.0647     1.6348    46.5867 </r>
       <r>     3.3113     2.7027    47.6562 </r>
       <r>     3.5578     2.0339    48.5525 </r>
       <r>     3.8044     3.1118    49.5887 </r>
       <r>     4.0509     2.6245    50.6267 </r>
       <r>     4.2975     2.1637    51.4825 </r>
       <r>     4.5441     2.7975    52.5571 </r>
       <r>     4.7906     3.8606    53.8039 </r>
       <r>     5.0372     4.5289    55.3156 </r>
       <r>     5.2838    10.6004    58.8484 </r>
       <r>     5.5303     6.8703    61.6378 </r>
       <r>     5.7769     4.2983    63.4169 </r>
       <r>     6.0235     3.8538    64.8278 </r>
       <r>     6.2700     2.8962    66.0406 </r>
       <r>     6.5166     3.1392    67.2944 </r>
       <r>     6.7631     1.7531    67.9476 </r>
       <r>     7.0097     2.3357    68.7545 </r>
       <r>     7.2563     1.5969    69.3784 </r>
       <r>     7.5028     3.1410    70.3612 </r>
       <r>     7.7494     2.1354    71.2153 </r>
       <r>     7.9960     1.7969    72.0196 </r>
       <r>     8.2425     1.9662    72.8215 </r>
       <r>     8.4891     3.3209    74.0076 </r>
       <r>     8.7356     3.6617    75.5559 </r>
       <r>     8.9822     7.5338    78.1688 </r>
       <r>     9.2288     6.7326    80.7110 </r>
       <r>     9.4753     5.5126    82.6959 </r>
       <r>     9.7219     8.4477    85.4605 </r>
       <r>     9.9685     6.9723    88.2650 </r>
       <r>    10.2150     8.3893    91.1195 </r>
       <r>    10.4616     6.1158    93.6508 </r>
       <r>    10.7081     6.8200    96.3959 </r>
       <r>    10.9547     4.2867    97.8784 </r>
       <r>    11.2013     3.3756    99.1945 </r>
       <r>    11.4478     3.1869   100.4592 </r>
       <r>    11.6944     3.3770   101.8122 </r>
       <r>    11.9410     2.8949   102.8311 </r>
       <r>    12.1875     2.9489   103.9771 </r>
       <r>    12.4341     3.2817   105.1867 </r>
       <r>    12.6807     2.5228   106.2751 </r>
       <r>    12.9272     2.6048   107.4790 </r>
       <r>    13.1738     0.8801   107.8752 </r>
       <r>    13.4203     0.1448   107.9694 </r>
       <r>    13.6669     0.0414   108.0000 </r>
       <r>    13.9135     0.0000   108.0000 </r>
       <r>    14.1600     0.0000   108.0000 </r>
       <r>    14.4066     0.0000   108.0000 </r>
       <r>    14.6532     0.0000   108.0000 </r>
       <r>    14.8997     0.0000   108.0000 </r>
       <r>    15.1463     0.0000   108.0000 </r>
       <r>    15.3928     0.0000   108.0000 </r>
       <r>    15.6394     0.0000   108.0000 </r>
       <r>    15.8860     0.0000   108.0000 </r>
       <r>    16.1325     0.0000   108.0000 </r>
       <r>    16.3791     0.0000   108.0000 </r>
       <r>    16.6257     0.0000   108.0000 </r>
       <r>    16.8722     0.0000   108.0000 </r>
      </set>
     </set>
    </array>
   </total>
  </dos>
 </calculation>
 <structure name="finalpos" >
  <crystal>
   <varray name="basis" >
    <v>       5.35267620       0.00000000      -2.74913069 </v>
    <v>      -1.99558790       4.96676670      -2.74913069 </v>
    <v>       0.00000000       0.00000000       6.01738000 </v>
   </varray>
   <i name="volume">    159.97501927 </i>
   <varray name="rec_basis" >
    <v>       0.18682243       0.07506304       0.00000000 </v>
    <v>       0.00000000       0.20133823       0.00000000 </v>
    <v>       0.08535264       0.12627808       0.16618528 </v>
   </varray>
  </crystal>
  <varray name="positions" >
   <v>       0.00000000       0.00000000       0.50000000 </v>
   <v>       0.00000000       0.50000000       0.00000000 </v>
   <v>       0.50000000       0.50000000       0.50000000 </v>
   <v>       0.50000000       0.00000000       0.00000000 </v>
   <v>       0.00000000       0.50000000       0.50000000 </v>
   <v>       0.25000000       0.25000000       0.00000000 </v>
   <v>       0.75000000       0.75000000       0.00000000 </v>
   <v>       0.50000000       0.00000000       0.50000000 </v>
   <v>       0.24495000       0.74495000       0.98991000 </v>
   <v>       0.75505000       0.25505000       0.01009000 </v>
   <v>       0.74495000       0.75505000       0.50000000 </v>
   <v>       0.25505000       0.24495000       0.50000000 </v>
  </varray>
 </structure>
</modeling>
