 vasp.6.2.0 18Jan21 (build Jan 05 2022 15:41:44) complex                        
  
 executed on             LinuxIFC date 2025.05.07  21:01:02
 running on   24 total cores
 distrk:  each k-point on   12 cores,    2 groups
 distr:  one band on NCORE=   2 cores,    6 groups


--------------------------------------------------------------------------------------------------------


 INCAR:
   SYSTEM = routine with relax: pwdword
   ICHARG = 2
   NPAR = 6
   KPAR = 2
   NCORE = 2
   ADDGRID = T
   PREC = Acc
   ENCUT = 600
   METAGGA = R2SCAN
   LASPH = .TRUE.
   LMIXTAU = .FALSE.
   ALGO = A
   EDIFF = 1E-9
   NELM = 100
   NELMIN = 6
   IALGO = 38
   LREAL = F
   NSW = 0
   ISIF = -1
   ISMEAR = 0
   SIGMA = 0.02

 POTCAR:    PAW_PBE B 06Sep2000                   
 POTCAR:    PAW_PBE Mo_sv 02Feb2006               
 POTCAR:    PAW_PBE Si 05Jan2001                  
 -----------------------------------------------------------------------------
|                                                                             |
|           W    W    AA    RRRRR   N    N  II  N    N   GGGG   !!!           |
|           W    W   A  A   R    R  NN   N  II  NN   N  G    G  !!!           |
|           W    W  A    A  R    R  N N  N  II  N N  N  G       !!!           |
|           W WW W  AAAAAA  RRRRR   N  N N  II  N  N N  G  GGG   !            |
|           WW  WW  A    A  R   R   N   NN  II  N   NN  G    G                |
|           W    W  A    A  R    R  N    N  II  N    N   GGGG   !!!           |
|                                                                             |
|     For optimal performance we recommend to set                             |
|       NCORE = 2 up to number-of-cores-per-socket                            |
|     NCORE specifies how many cores store one orbital (NPAR=cpu/NCORE).      |
|     This setting can greatly improve the performance of VASP for DFT.       |
|     The default, NCORE=1 might be grossly inefficient on modern             |
|     multi-core architectures or massively parallel machines. Do your        |
|     own testing! More info at https://www.vasp.at/wiki/index.php/NCORE      |
|     Unfortunately you need to use the default for GW and RPA                |
|     calculations (for HF NCORE is supported but not extensively tested      |
|     yet).                                                                   |
|                                                                             |
 -----------------------------------------------------------------------------

 POTCAR:    PAW_PBE B 06Sep2000                   
   VRHFIN =B: s2p1                                                                                  
   LEXCH  = PE                                                                                      
   EATOM  =    71.1703 eV,    5.2309 Ry                                                             
                                                                                                    
   TITEL  = PAW_PBE B 06Sep2000                                                                     
   LULTRA =        F    use ultrasoft PP ?                                                          
   IUNSCR =        1    unscreen: 0-lin 1-nonlin 2-no                                               
   RPACOR =    1.200    partial core radius                                                         
   POMASS =   10.811; ZVAL   =    3.000    mass and valenz                                          
   RCORE  =    1.700    outmost cutoff radius                                                       
   RWIGS  =    1.710; RWIGS  =    0.905    wigner-seitz radius (au A)                               
   ENMAX  =  318.614; ENMIN  =  238.960 eV                                                          
   ICORE  =        2    local potential                                                             
   LCOR   =        T    correct aug charges                                                         
   LPAW   =        T    paw PP                                                                      
   EAUG   =  535.514                                                                                
   DEXC   =    0.000                                                                                
   RMAX   =    1.732    core radius for proj-oper                                                   
   RAUG   =    1.300    factor for augmentation sphere                                              
   RDEP   =    1.757    radius for radial grids                                                     
   RDEPT  =    1.436    core radius for aug-charge                                                  
                                                                                                    
   Atomic configuration                                                                             
    4 entries                                                                                       
     n  l   j            E        occ.                                                              
     1  0  0.50      -180.5896   2.0000                                                             
     2  0  0.50        -9.4431   2.0000                                                             
     2  1  0.50        -3.6068   1.0000                                                             
     3  2  1.50        -4.0817   0.0000                                                             
   Description                                                                                      
     l       E           TYP  RCUT    TYP  RCUT                                                     
     0     -9.4430752     23  1.500                                                                 
     0      0.8675899     23  1.500                                                                 
     1     -3.6067955     23  1.700                                                                 
     1      6.1086146     23  1.700                                                                 
     2     -4.0817478      7  1.700                                                                 
  local pseudopotential read in
  partial core-charges read in
  partial kinetic energy density read in
  atomic valenz-charges read in
  non local Contribution for L=           0  read in
    real space projection operators read in
  non local Contribution for L=           0  read in
    real space projection operators read in
  non local Contribution for L=           1  read in
    real space projection operators read in
  non local Contribution for L=           1  read in
    real space projection operators read in
    PAW grid and wavefunctions read in
 
   number of l-projection  operators is LMAX  =           4
   number of lm-projection operators is LMMAX =           8
 
 POTCAR:    PAW_PBE Mo_sv 02Feb2006               
   VRHFIN =Mo: 4p5s4d                                                                               
   LEXCH  = PE                                                                                      
   EATOM  =  1862.2866 eV,  136.8742 Ry                                                             
                                                                                                    
   TITEL  = PAW_PBE Mo_sv 02Feb2006                                                                 
   LULTRA =        F    use ultrasoft PP ?                                                          
   IUNSCR =        1    unscreen: 0-lin 1-nonlin 2-no                                               
   RPACOR =    2.200    partial core radius                                                         
   POMASS =   95.940; ZVAL   =   14.000    mass and valenz                                          
   RCORE  =    2.500    outmost cutoff radius                                                       
   RWIGS  =    2.750; RWIGS  =    1.455    wigner-seitz radius (au A)                               
   ENMAX  =  242.676; ENMIN  =  182.007 eV                                                          
   ICORE  =        3    local potential                                                             
   LCOR   =        T    correct aug charges                                                         
   LPAW   =        T    paw PP                                                                      
   EAUG   =  446.014                                                                                
   DEXC   =    0.000                                                                                
   RMAX   =    2.563    core radius for proj-oper                                                   
   RAUG   =    1.300    factor for augmentation sphere                                              
   RDEP   =    2.641    radius for radial grids                                                     
   RDEPT  =    2.031    core radius for aug-charge                                                  
                                                                                                    
   Atomic configuration                                                                             
   11 entries                                                                                       
     n  l   j            E        occ.                                                              
     1  0  0.50    -19819.0341   2.0000                                                             
     2  0  0.50     -2799.0127   2.0000                                                             
     2  1  1.50     -2502.0276   6.0000                                                             
     3  0  0.50      -476.4449   2.0000                                                             
     3  1  1.50      -379.1496   6.0000                                                             
     3  2  2.50      -220.9367  10.0000                                                             
     4  0  0.50       -64.3378   2.0000                                                             
     5  0  0.50        -4.0862   1.0000                                                             
     4  1  1.50       -38.4773   6.0000                                                             
     4  2  2.50        -3.7535   5.0000                                                             
     4  3  2.50        -1.3606   0.0000                                                             
   Description                                                                                      
     l       E           TYP  RCUT    TYP  RCUT                                                     
     0    -64.3377829     23  2.100                                                                 
     0     -4.0861640     23  2.400                                                                 
     1    -38.4772993     23  2.100                                                                 
     1     13.6058260     23  2.100                                                                 
     2     -3.7534941     23  2.400                                                                 
     2     -5.1140767     23  2.400                                                                 
     3     -4.0817478     23  2.500                                                                 
  local pseudopotential read in
  partial core-charges read in
  partial kinetic energy density read in
  atomic valenz-charges read in
  non local Contribution for L=           0  read in
    real space projection operators read in
  non local Contribution for L=           0  read in
    real space projection operators read in
  non local Contribution for L=           1  read in
    real space projection operators read in
  non local Contribution for L=           1  read in
    real space projection operators read in
  non local Contribution for L=           2  read in
    real space projection operators read in
  non local Contribution for L=           2  read in
    real space projection operators read in
    PAW grid and wavefunctions read in
 
   number of l-projection  operators is LMAX  =           6
   number of lm-projection operators is LMMAX =          18
 
 POTCAR:    PAW_PBE Si 05Jan2001                  
   VRHFIN =Si: s2p2                                                                                 
   LEXCH  = PE                                                                                      
   EATOM  =   103.0669 eV,    7.5752 Ry                                                             
                                                                                                    
   TITEL  = PAW_PBE Si 05Jan2001                                                                    
   LULTRA =        F    use ultrasoft PP ?                                                          
   IUNSCR =        1    unscreen: 0-lin 1-nonlin 2-no                                               
   RPACOR =    1.500    partial core radius                                                         
   POMASS =   28.085; ZVAL   =    4.000    mass and valenz                                          
   RCORE  =    1.900    outmost cutoff radius                                                       
   RWIGS  =    2.480; RWIGS  =    1.312    wigner-seitz radius (au A)                               
   ENMAX  =  245.345; ENMIN  =  184.009 eV                                                          
   ICORE  =        2    local potential                                                             
   LCOR   =        T    correct aug charges                                                         
   LPAW   =        T    paw PP                                                                      
   EAUG   =  322.069                                                                                
   DEXC   =    0.000                                                                                
   RMAX   =    1.950    core radius for proj-oper                                                   
   RAUG   =    1.300    factor for augmentation sphere                                              
   RDEP   =    1.993    radius for radial grids                                                     
   RDEPT  =    1.837    core radius for aug-charge                                                  
                                                                                                    
   Atomic configuration                                                                             
    6 entries                                                                                       
     n  l   j            E        occ.                                                              
     1  0  0.50     -1785.8828   2.0000                                                             
     2  0  0.50      -139.4969   2.0000                                                             
     2  1  1.50       -95.5546   6.0000                                                             
     3  0  0.50       -10.8127   2.0000                                                             
     3  1  0.50        -4.0811   2.0000                                                             
     3  2  1.50        -4.0817   0.0000                                                             
   Description                                                                                      
     l       E           TYP  RCUT    TYP  RCUT                                                     
     0    -10.8127223     23  1.900                                                                 
     0     -7.6451159     23  1.900                                                                 
     1     -4.0811372     23  1.900                                                                 
     1      2.4879257     23  1.900                                                                 
     2     -4.0817478      7  1.900                                                                 
  local pseudopotential read in
  partial core-charges read in
  partial kinetic energy density read in
  atomic valenz-charges read in
  non local Contribution for L=           0  read in
    real space projection operators read in
  non local Contribution for L=           0  read in
    real space projection operators read in
  non local Contribution for L=           1  read in
    real space projection operators read in
  non local Contribution for L=           1  read in
    real space projection operators read in
    PAW grid and wavefunctions read in
 
   number of l-projection  operators is LMAX  =           4
   number of lm-projection operators is LMMAX =           8
 
  PAW_PBE B 06Sep2000                   :
 energy of atom  1       EATOM=  -71.1703
 kinetic energy error for atom=    0.0007 (will be added to EATOM!!)
  PAW_PBE Mo_sv 02Feb2006               :
 energy of atom  2       EATOM=-1862.2866
 kinetic energy error for atom=    0.0041 (will be added to EATOM!!)
  PAW_PBE Si 05Jan2001                  :
 energy of atom  3       EATOM= -103.0669
 kinetic energy error for atom=    0.0003 (will be added to EATOM!!)
 
 
 POSCAR: EA235
  positions in direct lattice
  No initial velocities read in

 METAGGA = R2SCA    LMAXTAU =  6    LMIXTAU =  F

 exchange correlation table for  LEXCH =        8
   RHO(1)=    0.500       N(1)  =     2000
   RHO(2)=  100.500       N(2)  =     4000
 


--------------------------------------------------------------------------------------------------------


 ion  position               nearest neighbor table
   1  0.500  0.500  0.000-   3 2.16   5 2.16
   2  0.000  0.000  0.000-   3 2.16   5 2.16
   3  0.250  0.250  0.000-   1 2.16   2 2.16   4 3.27   6 3.27   4 3.27   6 3.27
   4  0.250  0.750  0.500-   7 2.16   8 2.16   3 3.27   5 3.27   3 3.27   5 3.27
   5  0.750  0.750  0.000-   1 2.16   2 2.16   4 3.27   6 3.27   6 3.27   4 3.27
   6  0.750  0.250  0.500-   7 2.16   8 2.16   3 3.27   5 3.27   5 3.27   3 3.27
   7  0.500  0.000  0.500-   4 2.16   6 2.16
   8  0.000  0.500  0.500-   4 2.16   6 2.16
 
  LATTYP: Found a body centered tetragonal cell.
 ALAT       =     6.5383433051
 C/A-ratio  =     1.3218085381
  
  Lattice vectors:
  
 A1 = (   5.5983323683,   0.0000000000,  -2.9506669218)
 A2 = (  -2.0378083649,   5.2142748656,  -2.9506669218)
 A3 = (   0.0000000000,   0.0000000000,   6.3283300000)


Analysis of symmetry for initial positions (statically):
=====================================================================
 Subroutine PRICEL returns following result:
 
  LATTYP: Found a simple tetragonal cell.
 ALAT       =     4.6232917837
 C/A-ratio  =     0.9346628344
  
  Lattice vectors:
  
 A1 = (  -3.8180703666,   2.6071374328,   0.0000000000)
 A2 = (   1.7802620017,   2.6071374328,   3.3776630782)
 A3 = (   1.7802620017,   2.6071374328,  -2.9506669218)
 
   2 primitive cells build up your supercell.
 

 Routine SETGRP: Setting up the symmetry group for a 
 body centered tetragonal supercell.


 Subroutine GETGRP returns: Found 16 space group operations
 (whereof 16 operations were pure point group operations)
 out of a pool of 16 trial point group operations.


The static configuration has the point symmetry D_4h.


Analysis of symmetry for dynamics (positions and initial velocities):
=====================================================================
 Subroutine PRICEL returns following result:
 
  LATTYP: Found a simple tetragonal cell.
 ALAT       =     4.6232917837
 C/A-ratio  =     0.9346628344
  
  Lattice vectors:
  
 A1 = (  -3.8180703666,   2.6071374328,   0.0000000000)
 A2 = (   1.7802620017,   2.6071374328,   3.3776630782)
 A3 = (   1.7802620017,   2.6071374328,  -2.9506669218)
 
   2 primitive cells build up your supercell.
 

 Routine SETGRP: Setting up the symmetry group for a 
 body centered tetragonal supercell.


 Subroutine GETGRP returns: Found 16 space group operations
 (whereof 16 operations were pure point group operations)
 out of a pool of 16 trial point group operations.


The dynamic configuration has the point symmetry D_4h.


 Subroutine INISYM returns: Found 16 space group operations
 (whereof 16 operations are pure point group operations),
 and found     2 'primitive' translations


----------------------------------------------------------------------------------------

                                     Primitive cell                                     

  volume of cell :      92.3659

  direct lattice vectors                    reciprocal lattice vectors
    -3.818070367  2.607137433  0.000000000    -0.178624621  0.121972330  0.000000000
     1.780262002  2.607137433  3.377663078     0.083286074  0.121969823  0.158019572
     1.780262002  2.607137433 -2.950666922     0.095338547  0.139620289 -0.158019572

  length of vectors
     4.623291784  4.623321994  4.321219003     0.216296104  0.216294691  0.231416181

  position of ions in fractional coordinates (direct lattice)
     1.000000000  1.000000000  0.000000000
     1.000000000  1.000000000  0.500000000
     0.500000000  0.500000000  0.500000000
     0.500000000  0.500000000  0.000000000

  ion indices of the primitive-cell ions
   primitive index   ion index
                 1           1
                 2           3
                 3           4
                 4           7

----------------------------------------------------------------------------------------

 
 
 KPOINTS: EA                                      

Automatic generation of k-mesh.
 Grid dimensions read from file:
 generate k-points for:    7    7    8

 Generating k-lattice:

  Cartesian coordinates                     Fractional coordinates (reciprocal lattice)
     0.025517803  0.009972699  0.000000000     0.142857143 -0.000000000  0.000000000
     0.000000000  0.027397317  0.000000000     0.000000000  0.142857143  0.000000000
     0.010410759  0.015246228  0.019752447     0.000000000  0.000000000  0.125000000

  Length of vectors
     0.027397317  0.027397317  0.027036836

  Shift w.r.t. Gamma in fractional coordinates (k-lattice)
     0.000000000  0.000000000  0.000000000

 -----------------------------------------------------------------------------
|                                                                             |
|           W    W    AA    RRRRR   N    N  II  N    N   GGGG   !!!           |
|           W    W   A  A   R    R  NN   N  II  NN   N  G    G  !!!           |
|           W    W  A    A  R    R  N N  N  II  N N  N  G       !!!           |
|           W WW W  AAAAAA  RRRRR   N  N N  II  N  N N  G  GGG   !            |
|           WW  WW  A    A  R   R   N   NN  II  N   NN  G    G                |
|           W    W  A    A  R    R  N    N  II  N    N   GGGG   !!!           |
|                                                                             |
|     Your reciprocal lattice and k-lattice belong to different lattice       |
|     classes:                                                                |
|                                                                             |
|        The reciprocal lattice is body-centered tetragonal,                  |
|        whereas your k-lattice is base-centered monoclinic.                  |
|                                                                             |
|     Results are often still useful ...                                      |
|                                                                             |
 -----------------------------------------------------------------------------

 WARNING: IBZKPT: internal override: KBLOWUP is changed to .FALSE.
      ... skipping the blow-up phase ...

 
 Subroutine IBZKPT returns following result:
 ===========================================
 
 Found    116 irreducible k-points:
 
 Following reciprocal coordinates:
            Coordinates               Weight
  0.000000  0.000000  0.000000      1.000000
  0.142857  0.000000  0.000000      4.000000
  0.285714  0.000000  0.000000      4.000000
  0.428571  0.000000  0.000000      4.000000
  0.142857  0.142857  0.000000      2.000000
  0.285714  0.142857  0.000000      4.000000
  0.428571  0.142857  0.000000      4.000000
 -0.428571  0.142857  0.000000      4.000000
 -0.285714  0.142857  0.000000      4.000000
 -0.142857  0.142857  0.000000      2.000000
  0.285714  0.285714  0.000000      2.000000
  0.428571  0.285714  0.000000      4.000000
 -0.428571  0.285714  0.000000      4.000000
 -0.285714  0.285714  0.000000      2.000000
  0.428571  0.428571  0.000000      2.000000
 -0.428571  0.428571  0.000000      2.000000
  0.000000  0.000000  0.125000      2.000000
  0.142857 -0.000000  0.125000      4.000000
  0.285714  0.000000  0.125000      4.000000
  0.428571  0.000000  0.125000      4.000000
 -0.428571  0.000000  0.125000      4.000000
 -0.285714  0.000000  0.125000      4.000000
 -0.142857 -0.000000  0.125000      4.000000
  0.142857  0.142857  0.125000      2.000000
  0.285714  0.142857  0.125000      4.000000
  0.428571  0.142857  0.125000      4.000000
 -0.428571  0.142857  0.125000      4.000000
 -0.285714  0.142857  0.125000      4.000000
 -0.142857  0.142857  0.125000      4.000000
  0.285714  0.285714  0.125000      2.000000
  0.428571  0.285714  0.125000      4.000000
 -0.428571  0.285714  0.125000      4.000000
 -0.285714  0.285714  0.125000      4.000000
 -0.142857  0.285714  0.125000      4.000000
  0.428571  0.428571  0.125000      2.000000
 -0.428571  0.428571  0.125000      4.000000
 -0.285714  0.428571  0.125000      4.000000
 -0.142857  0.428571  0.125000      4.000000
 -0.428571 -0.428571  0.125000      2.000000
 -0.285714 -0.428571  0.125000      4.000000
 -0.142857 -0.428571  0.125000      4.000000
 -0.285714 -0.285714  0.125000      2.000000
 -0.142857 -0.285714  0.125000      4.000000
 -0.142857 -0.142857  0.125000      2.000000
  0.000000  0.000000  0.250000      2.000000
  0.142857  0.000000  0.250000      4.000000
  0.285714 -0.000000  0.250000      4.000000
  0.428571 -0.000000  0.250000      4.000000
 -0.428571  0.000000  0.250000      4.000000
 -0.285714 -0.000000  0.250000      4.000000
 -0.142857  0.000000  0.250000      4.000000
  0.142857  0.142857  0.250000      2.000000
  0.285714  0.142857  0.250000      4.000000
  0.428571  0.142857  0.250000      4.000000
 -0.428571  0.142857  0.250000      4.000000
 -0.285714  0.142857  0.250000      4.000000
 -0.142857  0.142857  0.250000      4.000000
  0.285714  0.285714  0.250000      2.000000
  0.428571  0.285714  0.250000      4.000000
 -0.428571  0.285714  0.250000      4.000000
 -0.285714  0.285714  0.250000      4.000000
 -0.142857  0.285714  0.250000      4.000000
  0.428571  0.428571  0.250000      2.000000
 -0.428571  0.428571  0.250000      4.000000
 -0.285714  0.428571  0.250000      4.000000
 -0.142857  0.428571  0.250000      4.000000
 -0.428571 -0.428571  0.250000      2.000000
 -0.285714 -0.428571  0.250000      4.000000
 -0.142857 -0.428571  0.250000      4.000000
 -0.285714 -0.285714  0.250000      2.000000
 -0.142857 -0.285714  0.250000      4.000000
 -0.142857 -0.142857  0.250000      2.000000
  0.000000 -0.000000  0.375000      2.000000
  0.142857  0.000000  0.375000      4.000000
  0.285714  0.000000  0.375000      4.000000
  0.428571 -0.000000  0.375000      4.000000
 -0.428571 -0.000000  0.375000      4.000000
 -0.285714  0.000000  0.375000      4.000000
 -0.142857  0.000000  0.375000      4.000000
  0.142857  0.142857  0.375000      2.000000
  0.285714  0.142857  0.375000      4.000000
  0.428571  0.142857  0.375000      4.000000
 -0.428571  0.142857  0.375000      4.000000
 -0.285714  0.142857  0.375000      4.000000
 -0.142857  0.142857  0.375000      4.000000
  0.285714  0.285714  0.375000      2.000000
  0.428571  0.285714  0.375000      4.000000
 -0.428571  0.285714  0.375000      4.000000
 -0.285714  0.285714  0.375000      4.000000
 -0.142857  0.285714  0.375000      4.000000
  0.428571  0.428571  0.375000      2.000000
 -0.428571  0.428571  0.375000      4.000000
 -0.285714  0.428571  0.375000      4.000000
 -0.142857  0.428571  0.375000      4.000000
 -0.428571 -0.428571  0.375000      2.000000
 -0.285714 -0.428571  0.375000      4.000000
 -0.142857 -0.428571  0.375000      4.000000
 -0.285714 -0.285714  0.375000      2.000000
 -0.142857 -0.285714  0.375000      4.000000
 -0.142857 -0.142857  0.375000      2.000000
  0.000000  0.000000  0.500000      1.000000
  0.142857  0.000000  0.500000      4.000000
  0.285714  0.000000  0.500000      4.000000
  0.428571  0.000000  0.500000      4.000000
  0.142857  0.142857  0.500000      2.000000
  0.285714  0.142857  0.500000      4.000000
  0.428571  0.142857  0.500000      4.000000
 -0.428571  0.142857  0.500000      4.000000
 -0.285714  0.142857  0.500000      4.000000
 -0.142857  0.142857  0.500000      2.000000
  0.285714  0.285714  0.500000      2.000000
  0.428571  0.285714  0.500000      4.000000
 -0.428571  0.285714  0.500000      4.000000
 -0.285714  0.285714  0.500000      2.000000
  0.428571  0.428571  0.500000      2.000000
 -0.428571  0.428571  0.500000      2.000000
 
 Following cartesian coordinates:
            Coordinates               Weight
  0.000000  0.000000  0.000000      1.000000
  0.025518  0.009973  0.000000      4.000000
  0.051036  0.019945  0.000000      4.000000
  0.076553  0.029918  0.000000      4.000000
  0.025518  0.037370  0.000000      2.000000
  0.051036  0.047343  0.000000      4.000000
  0.076553  0.057315  0.000000      4.000000
 -0.076553 -0.002521  0.000000      4.000000
 -0.051036  0.007452  0.000000      4.000000
 -0.025518  0.017425  0.000000      2.000000
  0.051036  0.074740  0.000000      2.000000
  0.076553  0.084713  0.000000      4.000000
 -0.076553  0.024877  0.000000      4.000000
 -0.051036  0.034849  0.000000      2.000000
  0.076553  0.112110  0.000000      2.000000
 -0.076553  0.052274  0.000000      2.000000
  0.010411  0.015246  0.019752      2.000000
  0.035929  0.025219  0.019752      4.000000
  0.061446  0.035192  0.019752      4.000000
  0.086964  0.045164  0.019752      4.000000
 -0.066143 -0.014672  0.019752      4.000000
 -0.040625 -0.004699  0.019752      4.000000
 -0.015107  0.005274  0.019752      4.000000
  0.035929  0.052616  0.019752      2.000000
  0.061446  0.062589  0.019752      4.000000
  0.086964  0.072562  0.019752      4.000000
 -0.066143  0.012725  0.019752      4.000000
 -0.040625  0.022698  0.019752      4.000000
 -0.015107  0.032671  0.019752      4.000000
  0.061446  0.089986  0.019752      2.000000
  0.086964  0.099959  0.019752      4.000000
 -0.066143  0.040123  0.019752      4.000000
 -0.040625  0.050095  0.019752      4.000000
 -0.015107  0.060068  0.019752      4.000000
  0.086964  0.127356  0.019752      2.000000
 -0.066143  0.067520  0.019752      4.000000
 -0.040625  0.077493  0.019752      4.000000
 -0.015107  0.087465  0.019752      4.000000
 -0.066143 -0.096864  0.019752      2.000000
 -0.040625 -0.086891  0.019752      4.000000
 -0.015107 -0.076918  0.019752      4.000000
 -0.040625 -0.059494  0.019752      2.000000
 -0.015107 -0.049521  0.019752      4.000000
 -0.015107 -0.022124  0.019752      2.000000
  0.020822  0.030492  0.039505      2.000000
  0.046339  0.040465  0.039505      4.000000
  0.071857  0.050438  0.039505      4.000000
  0.097375  0.060411  0.039505      4.000000
 -0.055732  0.000574  0.039505      4.000000
 -0.030214  0.010547  0.039505      4.000000
 -0.004696  0.020520  0.039505      4.000000
  0.046339  0.067862  0.039505      2.000000
  0.071857  0.077835  0.039505      4.000000
  0.097375  0.087808  0.039505      4.000000
 -0.055732  0.027972  0.039505      4.000000
 -0.030214  0.037944  0.039505      4.000000
 -0.004696  0.047917  0.039505      4.000000
  0.071857  0.105232  0.039505      2.000000
  0.097375  0.115205  0.039505      4.000000
 -0.055732  0.055369  0.039505      4.000000
 -0.030214  0.065342  0.039505      4.000000
 -0.004696  0.075314  0.039505      4.000000
  0.097375  0.142603  0.039505      2.000000
 -0.055732  0.082766  0.039505      4.000000
 -0.030214  0.092739  0.039505      4.000000
 -0.004696  0.102712  0.039505      4.000000
 -0.055732 -0.081618  0.039505      2.000000
 -0.030214 -0.071645  0.039505      4.000000
 -0.004696 -0.061672  0.039505      4.000000
 -0.030214 -0.044248  0.039505      2.000000
 -0.004696 -0.034275  0.039505      4.000000
 -0.004696 -0.006878  0.039505      2.000000
  0.031232  0.045739  0.059257      2.000000
  0.056750  0.055711  0.059257      4.000000
  0.082268  0.065684  0.059257      4.000000
  0.107786  0.075657  0.059257      4.000000
 -0.045321  0.015821  0.059257      4.000000
 -0.019803  0.025793  0.059257      4.000000
  0.005714  0.035766  0.059257      4.000000
  0.056750  0.083109  0.059257      2.000000
  0.082268  0.093081  0.059257      4.000000
  0.107786  0.103054  0.059257      4.000000
 -0.045321  0.043218  0.059257      4.000000
 -0.019803  0.053191  0.059257      4.000000
  0.005714  0.063163  0.059257      4.000000
  0.082268  0.120479  0.059257      2.000000
  0.107786  0.130451  0.059257      4.000000
 -0.045321  0.070615  0.059257      4.000000
 -0.019803  0.080588  0.059257      4.000000
  0.005714  0.090561  0.059257      4.000000
  0.107786  0.157849  0.059257      2.000000
 -0.045321  0.098013  0.059257      4.000000
 -0.019803  0.107985  0.059257      4.000000
  0.005714  0.117958  0.059257      4.000000
 -0.045321 -0.066371  0.059257      2.000000
 -0.019803 -0.056399  0.059257      4.000000
  0.005714 -0.046426  0.059257      4.000000
 -0.019803 -0.029001  0.059257      2.000000
  0.005714 -0.019029  0.059257      4.000000
  0.005714  0.008369  0.059257      2.000000
  0.041643  0.060985  0.079010      1.000000
  0.067161  0.070958  0.079010      4.000000
  0.092679  0.080930  0.079010      4.000000
  0.118196  0.090903  0.079010      4.000000
  0.067161  0.098355  0.079010      2.000000
  0.092679  0.108328  0.079010      4.000000
  0.118196  0.118300  0.079010      4.000000
 -0.034910  0.058464  0.079010      4.000000
 -0.009393  0.068437  0.079010      4.000000
  0.016125  0.078410  0.079010      2.000000
  0.092679  0.135725  0.079010      2.000000
  0.118196  0.145698  0.079010      4.000000
 -0.034910  0.085861  0.079010      4.000000
 -0.009393  0.095834  0.079010      2.000000
  0.118196  0.173095  0.079010      2.000000
 -0.034910  0.113259  0.079010      2.000000
 


--------------------------------------------------------------------------------------------------------




 Dimension of arrays:
   k-points           NKPTS =    116   k-points in BZ     NKDIM =    116   number of bands    NBANDS=     42
   number of dos      NEDOS =    301   number of ions     NIONS =      8
   non local maximal  LDIM  =      6   non local SUM 2l+1 LMDIM =     18
   total plane-waves  NPLWV = 157464
   max r-space proj   IRMAX =      1   max aug-charges    IRDMAX= 298376
   dimension x,y,z NGX =    54 NGY =   54 NGZ =   54
   dimension x,y,z NGXF=   108 NGYF=  108 NGZF=  108
   support grid    NGXF=   216 NGYF=  216 NGZF=  216
   ions per type =               2   4   2
   NGX,Y,Z   is equivalent  to a cutoff of  14.19, 14.19, 14.19 a.u.
   NGXF,Y,Z  is equivalent  to a cutoff of  28.37, 28.37, 28.37 a.u.

 SYSTEM =  routine with relax: pwdword             
 POSCAR =  EA235                                   

 Startparameter for this run:
   NWRITE =      2    write-flag & timer
   PREC   = acc       normal or accurate (medium, high low for compatibility)
   ISTART =      0    job   : 0-new  1-cont  2-samecut
   ICHARG =      2    charge: 1-file 2-atom 10-const
   ISPIN  =      1    spin polarized calculation?
   LNONCOLLINEAR =      F non collinear calculations
   LSORBIT =      F    spin-orbit coupling
   INIWAV =      1    electr: 0-lowe 1-rand  2-diag
   LASPH  =      T    aspherical Exc in radial PAW
   METAGGA=      F    non-selfconsistent MetaGGA calc.

 Electronic Relaxation 1
   ENCUT  =  600.0 eV  44.10 Ry    6.64 a.u.  12.64 12.64 12.64*2*pi/ulx,y,z
   ENINI  =  600.0     initial cutoff
   ENAUG  =  535.5 eV  augmentation charge cutoff
   NELM   =    100;   NELMIN=  6; NELMDL= -5     # of ELM steps 
   EDIFF  = 0.1E-08   stopping-criterion for ELM
   LREAL  =      F    real-space projection
   NLSPLINE    = F    spline interpolate recip. space projectors
   LCOMPAT=      F    compatible to vasp.4.4
   GGA_COMPAT  = T    GGA compatible to vasp.4.4-vasp.4.6
   LMAXPAW     = -100 max onsite density
   LMAXMIX     =    2 max onsite mixed and CHGCAR
   VOSKOWN=      0    Vosko Wilk Nusair interpolation
   ROPT   =    0.00000   0.00000   0.00000
 Ionic relaxation
   EDIFFG = 0.1E-07   stopping-criterion for IOM
   NSW    =      0    number of steps for IOM
   NBLOCK =      1;   KBLOCK =      1    inner block; outer block 
   IBRION =     -1    ionic relax: 0-MD 1-quasi-New 2-CG
   NFREE  =      0    steps in history (QN), initial steepest desc. (CG)
   ISIF   =     -1    stress and relaxation
   IWAVPR =     10    prediction:  0-non 1-charg 2-wave 3-comb
   ISYM   =      2    0-nonsym 1-usesym 2-fastsym
   LCORR  =      T    Harris-Foulkes like correction to forces

   POTIM  = 0.5000    time-step for ionic-motion
   TEIN   =    0.0    initial temperature
   TEBEG  =    0.0;   TEEND  =   0.0 temperature during run
   SMASS  =  -3.00    Nose mass-parameter (am)
   estimated Nose-frequenzy (Omega)   =  0.10E-29 period in steps = 0.13E+47 mass=  -0.915E-27a.u.
   SCALEE = 1.0000    scale energy and forces
   NPACO  =    256;   APACO  = 16.0  distance and # of slots for P.C.
   PSTRESS=    0.0 pullay stress

  Mass of Ions in am
   POMASS =  10.81 95.94 28.09
  Ionic Valenz
   ZVAL   =   3.00 14.00  4.00
  Atomic Wigner-Seitz radii
   RWIGS  =  -1.00 -1.00 -1.00
  virtual crystal weights 
   VCA    =   1.00  1.00  1.00
   NELECT =      70.0000    total number of electrons
   NUPDOWN=      -1.0000    fix difference up-down

 DOS related values:
   EMIN   =  10.00;   EMAX   =-10.00  energy-range for DOS
   EFERMI =   0.00
   ISMEAR =     0;   SIGMA  =   0.02  broadening in eV -4-tet -1-fermi 0-gaus

 Electronic relaxation 2 (details)
   IALGO  =     58    algorithm
   LDIAG  =      T    sub-space diagonalisation (order eigenvalues)
   LSUBROT=      F    optimize rotation matrix (better conditioning)
   TURBO    =      0    0=normal 1=particle mesh
   IRESTART =      0    0=no restart 2=restart with 2 vectors
   NREBOOT  =      0    no. of reboots
   NMIN     =      0    reboot dimension
   EREF     =   0.00    reference energy to select bands
   IMIX   =      4    mixing-type and parameters
     AMIX     =   0.40;   BMIX     =  1.00
     AMIX_MAG =   1.60;   BMIX_MAG =  1.00
     AMIN     =   0.10
     WC   =   100.;   INIMIX=   1;  MIXPRE=   1;  MAXMIX= -45

 Intra band minimization:
   WEIMIN = 0.0000     energy-eigenvalue tresh-hold
   EBREAK =  0.60E-11  absolut break condition
   DEPER  =   0.30     relativ break condition  

   TIME   =   0.40     timestep for ELM

  volume/ion in A,a.u.               =      23.09       155.83
  Fermi-wavevector in a.u.,A,eV,Ry     =   1.184660  2.238682 19.094668  1.403419
  Thomas-Fermi vector in A             =   2.320869
 
 Write flags
   LWAVE        =      T    write WAVECAR
   LDOWNSAMPLE  =      F    k-point downsampling of WAVECAR
   LCHARG       =      T    write CHGCAR
   LVTOT        =      F    write LOCPOT, total local potential
   LVHAR        =      F    write LOCPOT, Hartree potential only
   LELF         =      F    write electronic localiz. function (ELF)
   LORBIT       =      0    0 simple, 1 ext, 2 COOP (PROOUT), +10 PAW based schemes


 Dipole corrections
   LMONO  =      F    monopole corrections only (constant potential shift)
   LDIPOL =      F    correct potential (dipole corrections)
   IDIPOL =      0    1-x, 2-y, 3-z, 4-all directions 
   EPSILON=  1.0000000 bulk dielectric constant

 Exchange correlation treatment:
   GGA     =    --    GGA type
   LEXCH   =     8    internal setting for exchange type
   VOSKOWN=      0    Vosko Wilk Nusair interpolation
   LHFCALC =     F    Hartree Fock is set to
   LHFONE  =     F    Hartree Fock one center treatment
   AEXX    =    0.0000 exact exchange contribution

 Linear response parameters
   LEPSILON=     F    determine dielectric tensor
   LRPA    =     F    only Hartree local field effects (RPA)
   LNABLA  =     F    use nabla operator in PAW spheres
   LVEL    =     F    velocity operator in full k-point grid
   LINTERFAST=   F  fast interpolation
   KINTER  =     0    interpolate to denser k-point grid
   CSHIFT  =0.1000    complex shift for real part using Kramers Kronig
   OMEGAMAX=  -1.0    maximum frequency
   DEG_THRESHOLD= 0.2000000E-02 threshold for treating states as degnerate
   RTIME   =   -0.100 relaxation time in fs
  (WPLASMAI=    0.000 imaginary part of plasma frequency in eV, 0.658/RTIME)
   DFIELD  = 0.0000000 0.0000000 0.0000000 field for delta impulse in time
 
 Orbital magnetization related:
   ORBITALMAG=     F  switch on orbital magnetization
   LCHIMAG   =     F  perturbation theory with respect to B field
   DQ        =  0.001000  dq finite difference perturbation B field
   LLRAUG    =     F  two centre corrections for induced B field



--------------------------------------------------------------------------------------------------------


 Static calculation
 charge density and potential will be updated during run
 non-spin polarized calculation
 Conjugate gradient for all bands (Freysoldt, et al. PRB 79, 241103 (2009))
 preconditioned conjugated gradient                                        
 perform sub-space diagonalisation
    before iterative eigenvector-optimisation
 modified Broyden-mixing scheme, WC =      100.0
 initial mixing is a Kerker type mixing with AMIX =  0.4000 and BMIX =      1.0000
 Hartree-type preconditioning will be used
 using additional bands            7
 reciprocal scheme for non local part
 use partial core corrections
 no Harris-corrections to forces 
 use gradient corrections 
 use of overlap-Matrix (Vanderbilt PP)
 Gauss-broadening in eV      SIGMA  =   0.02


--------------------------------------------------------------------------------------------------------


  energy-cutoff  :      600.00
  volume of cell :      184.73
      direct lattice vectors                 reciprocal lattice vectors
     5.598332368  0.000000000 -2.950666922     0.178624621  0.069808891  0.000000000
    -2.037808365  5.214274866 -2.950666922     0.000000000  0.191781221  0.000000000
     0.000000000  0.000000000  6.328330000     0.083286074  0.121969823  0.158019572

  length of vectors
     6.328330000  6.328330000  6.328330000     0.191781221  0.191781221  0.216294691


 
 k-points in units of 2pi/SCALE and weight: EA                                      
   0.00000000  0.00000000  0.00000000       0.003
   0.02551780  0.00997270  0.00000000       0.010
   0.05103561  0.01994540  0.00000000       0.010
   0.07655341  0.02991810  0.00000000       0.010
   0.02551780  0.03737002  0.00000000       0.005
   0.05103561  0.04734271  0.00000000       0.010
   0.07655341  0.05731541  0.00000000       0.010
  -0.07655341 -0.00252078  0.00000000       0.010
  -0.05103561  0.00745192  0.00000000       0.010
  -0.02551780  0.01742462  0.00000000       0.005
   0.05103561  0.07474003  0.00000000       0.005
   0.07655341  0.08471273  0.00000000       0.010
  -0.07655341  0.02487654  0.00000000       0.010
  -0.05103561  0.03484924  0.00000000       0.005
   0.07655341  0.11211005  0.00000000       0.005
  -0.07655341  0.05227386  0.00000000       0.005
   0.01041076  0.01524623  0.01975245       0.005
   0.03592856  0.02521893  0.01975245       0.010
   0.06144637  0.03519163  0.01975245       0.010
   0.08696417  0.04516432  0.01975245       0.010
  -0.06614265 -0.01467187  0.01975245       0.010
  -0.04062485 -0.00469917  0.01975245       0.010
  -0.01510704  0.00527353  0.01975245       0.010
   0.03592856  0.05261624  0.01975245       0.005
   0.06144637  0.06258894  0.01975245       0.010
   0.08696417  0.07256164  0.01975245       0.010
  -0.06614265  0.01272545  0.01975245       0.010
  -0.04062485  0.02269815  0.01975245       0.010
  -0.01510704  0.03267085  0.01975245       0.010
   0.06144637  0.08998626  0.01975245       0.005
   0.08696417  0.09995896  0.01975245       0.010
  -0.06614265  0.04012277  0.01975245       0.010
  -0.04062485  0.05009546  0.01975245       0.010
  -0.01510704  0.06006816  0.01975245       0.010
   0.08696417  0.12735628  0.01975245       0.005
  -0.06614265  0.06752008  0.01975245       0.010
  -0.04062485  0.07749278  0.01975245       0.010
  -0.01510704  0.08746548  0.01975245       0.010
  -0.06614265 -0.09686382  0.01975245       0.005
  -0.04062485 -0.08689112  0.01975245       0.010
  -0.01510704 -0.07691842  0.01975245       0.010
  -0.04062485 -0.05949380  0.01975245       0.005
  -0.01510704 -0.04952111  0.01975245       0.010
  -0.01510704 -0.02212379  0.01975245       0.005
   0.02082152  0.03049246  0.03950489       0.005
   0.04633932  0.04046515  0.03950489       0.010
   0.07185712  0.05043785  0.03950489       0.010
   0.09737493  0.06041055  0.03950489       0.010
  -0.05573189  0.00057436  0.03950489       0.010
  -0.03021409  0.01054706  0.03950489       0.010
  -0.00469628  0.02051976  0.03950489       0.010
   0.04633932  0.06786247  0.03950489       0.005
   0.07185712  0.07783517  0.03950489       0.010
   0.09737493  0.08780787  0.03950489       0.010
  -0.05573189  0.02797168  0.03950489       0.010
  -0.03021409  0.03794438  0.03950489       0.010
  -0.00469628  0.04791707  0.03950489       0.010
   0.07185712  0.10523249  0.03950489       0.005
   0.09737493  0.11520519  0.03950489       0.010
  -0.05573189  0.05536899  0.03950489       0.010
  -0.03021409  0.06534169  0.03950489       0.010
  -0.00469628  0.07531439  0.03950489       0.010
   0.09737493  0.14260250  0.03950489       0.005
  -0.05573189  0.08276631  0.03950489       0.010
  -0.03021409  0.09273901  0.03950489       0.010
  -0.00469628  0.10271171  0.03950489       0.010
  -0.05573189 -0.08161759  0.03950489       0.005
  -0.03021409 -0.07164489  0.03950489       0.010
  -0.00469628 -0.06167219  0.03950489       0.010
  -0.03021409 -0.04424758  0.03950489       0.005
  -0.00469628 -0.03427488  0.03950489       0.010
  -0.00469628 -0.00687756  0.03950489       0.005
   0.03123228  0.04573868  0.05925734       0.005
   0.05675008  0.05571138  0.05925734       0.010
   0.08226788  0.06568408  0.05925734       0.010
   0.10778569  0.07565678  0.05925734       0.010
  -0.04532113  0.01582059  0.05925734       0.010
  -0.01980333  0.02579329  0.05925734       0.010
   0.00571447  0.03576598  0.05925734       0.010
   0.05675008  0.08310870  0.05925734       0.005
   0.08226788  0.09308140  0.05925734       0.010
   0.10778569  0.10305410  0.05925734       0.010
  -0.04532113  0.04321790  0.05925734       0.010
  -0.01980333  0.05319060  0.05925734       0.010
   0.00571447  0.06316330  0.05925734       0.010
   0.08226788  0.12047872  0.05925734       0.005
   0.10778569  0.13045141  0.05925734       0.010
  -0.04532113  0.07061522  0.05925734       0.010
  -0.01980333  0.08058792  0.05925734       0.010
   0.00571447  0.09056062  0.05925734       0.010
   0.10778569  0.15784873  0.05925734       0.005
  -0.04532113  0.09801254  0.05925734       0.010
  -0.01980333  0.10798524  0.05925734       0.010
   0.00571447  0.11795794  0.05925734       0.010
  -0.04532113 -0.06637136  0.05925734       0.005
  -0.01980333 -0.05639867  0.05925734       0.010
   0.00571447 -0.04642597  0.05925734       0.010
  -0.01980333 -0.02900135  0.05925734       0.005
   0.00571447 -0.01902865  0.05925734       0.010
   0.00571447  0.00836867  0.05925734       0.005
   0.04164304  0.06098491  0.07900979       0.003
   0.06716084  0.07095761  0.07900979       0.010
   0.09267864  0.08093031  0.07900979       0.010
   0.11819645  0.09090301  0.07900979       0.010
   0.06716084  0.09835493  0.07900979       0.005
   0.09267864  0.10832763  0.07900979       0.010
   0.11819645  0.11830033  0.07900979       0.010
  -0.03491037  0.05846413  0.07900979       0.010
  -0.00939257  0.06843683  0.07900979       0.010
   0.01612523  0.07840953  0.07900979       0.005
   0.09267864  0.13572494  0.07900979       0.005
   0.11819645  0.14569764  0.07900979       0.010
  -0.03491037  0.08586145  0.07900979       0.010
  -0.00939257  0.09583415  0.07900979       0.005
   0.11819645  0.17309496  0.07900979       0.005
  -0.03491037  0.11325877  0.07900979       0.005
 
 k-points in reciprocal lattice and weights: EA                                      
   0.00000000  0.00000000  0.00000000       0.003
   0.14285714  0.00000000  0.00000000       0.010
   0.28571429  0.00000000  0.00000000       0.010
   0.42857143  0.00000000  0.00000000       0.010
   0.14285714  0.14285714  0.00000000       0.005
   0.28571429  0.14285714  0.00000000       0.010
   0.42857143  0.14285714  0.00000000       0.010
  -0.42857143  0.14285714  0.00000000       0.010
  -0.28571429  0.14285714  0.00000000       0.010
  -0.14285714  0.14285714  0.00000000       0.005
   0.28571429  0.28571429  0.00000000       0.005
   0.42857143  0.28571429  0.00000000       0.010
  -0.42857143  0.28571429  0.00000000       0.010
  -0.28571429  0.28571429  0.00000000       0.005
   0.42857143  0.42857143  0.00000000       0.005
  -0.42857143  0.42857143  0.00000000       0.005
   0.00000000  0.00000000  0.12500000       0.005
   0.14285714 -0.00000000  0.12500000       0.010
   0.28571429  0.00000000  0.12500000       0.010
   0.42857143  0.00000000  0.12500000       0.010
  -0.42857143  0.00000000  0.12500000       0.010
  -0.28571429  0.00000000  0.12500000       0.010
  -0.14285714 -0.00000000  0.12500000       0.010
   0.14285714  0.14285714  0.12500000       0.005
   0.28571429  0.14285714  0.12500000       0.010
   0.42857143  0.14285714  0.12500000       0.010
  -0.42857143  0.14285714  0.12500000       0.010
  -0.28571429  0.14285714  0.12500000       0.010
  -0.14285714  0.14285714  0.12500000       0.010
   0.28571429  0.28571429  0.12500000       0.005
   0.42857143  0.28571429  0.12500000       0.010
  -0.42857143  0.28571429  0.12500000       0.010
  -0.28571429  0.28571429  0.12500000       0.010
  -0.14285714  0.28571429  0.12500000       0.010
   0.42857143  0.42857143  0.12500000       0.005
  -0.42857143  0.42857143  0.12500000       0.010
  -0.28571429  0.42857143  0.12500000       0.010
  -0.14285714  0.42857143  0.12500000       0.010
  -0.42857143 -0.42857143  0.12500000       0.005
  -0.28571429 -0.42857143  0.12500000       0.010
  -0.14285714 -0.42857143  0.12500000       0.010
  -0.28571429 -0.28571429  0.12500000       0.005
  -0.14285714 -0.28571429  0.12500000       0.010
  -0.14285714 -0.14285714  0.12500000       0.005
   0.00000000  0.00000000  0.25000000       0.005
   0.14285714  0.00000000  0.25000000       0.010
   0.28571429 -0.00000000  0.25000000       0.010
   0.42857143 -0.00000000  0.25000000       0.010
  -0.42857143  0.00000000  0.25000000       0.010
  -0.28571429 -0.00000000  0.25000000       0.010
  -0.14285714  0.00000000  0.25000000       0.010
   0.14285714  0.14285714  0.25000000       0.005
   0.28571429  0.14285714  0.25000000       0.010
   0.42857143  0.14285714  0.25000000       0.010
  -0.42857143  0.14285714  0.25000000       0.010
  -0.28571429  0.14285714  0.25000000       0.010
  -0.14285714  0.14285714  0.25000000       0.010
   0.28571429  0.28571429  0.25000000       0.005
   0.42857143  0.28571429  0.25000000       0.010
  -0.42857143  0.28571429  0.25000000       0.010
  -0.28571429  0.28571429  0.25000000       0.010
  -0.14285714  0.28571429  0.25000000       0.010
   0.42857143  0.42857143  0.25000000       0.005
  -0.42857143  0.42857143  0.25000000       0.010
  -0.28571429  0.42857143  0.25000000       0.010
  -0.14285714  0.42857143  0.25000000       0.010
  -0.42857143 -0.42857143  0.25000000       0.005
  -0.28571429 -0.42857143  0.25000000       0.010
  -0.14285714 -0.42857143  0.25000000       0.010
  -0.28571429 -0.28571429  0.25000000       0.005
  -0.14285714 -0.28571429  0.25000000       0.010
  -0.14285714 -0.14285714  0.25000000       0.005
   0.00000000 -0.00000000  0.37500000       0.005
   0.14285714  0.00000000  0.37500000       0.010
   0.28571429  0.00000000  0.37500000       0.010
   0.42857143 -0.00000000  0.37500000       0.010
  -0.42857143 -0.00000000  0.37500000       0.010
  -0.28571429  0.00000000  0.37500000       0.010
  -0.14285714  0.00000000  0.37500000       0.010
   0.14285714  0.14285714  0.37500000       0.005
   0.28571429  0.14285714  0.37500000       0.010
   0.42857143  0.14285714  0.37500000       0.010
  -0.42857143  0.14285714  0.37500000       0.010
  -0.28571429  0.14285714  0.37500000       0.010
  -0.14285714  0.14285714  0.37500000       0.010
   0.28571429  0.28571429  0.37500000       0.005
   0.42857143  0.28571429  0.37500000       0.010
  -0.42857143  0.28571429  0.37500000       0.010
  -0.28571429  0.28571429  0.37500000       0.010
  -0.14285714  0.28571429  0.37500000       0.010
   0.42857143  0.42857143  0.37500000       0.005
  -0.42857143  0.42857143  0.37500000       0.010
  -0.28571429  0.42857143  0.37500000       0.010
  -0.14285714  0.42857143  0.37500000       0.010
  -0.42857143 -0.42857143  0.37500000       0.005
  -0.28571429 -0.42857143  0.37500000       0.010
  -0.14285714 -0.42857143  0.37500000       0.010
  -0.28571429 -0.28571429  0.37500000       0.005
  -0.14285714 -0.28571429  0.37500000       0.010
  -0.14285714 -0.14285714  0.37500000       0.005
   0.00000000  0.00000000  0.50000000       0.003
   0.14285714  0.00000000  0.50000000       0.010
   0.28571429  0.00000000  0.50000000       0.010
   0.42857143  0.00000000  0.50000000       0.010
   0.14285714  0.14285714  0.50000000       0.005
   0.28571429  0.14285714  0.50000000       0.010
   0.42857143  0.14285714  0.50000000       0.010
  -0.42857143  0.14285714  0.50000000       0.010
  -0.28571429  0.14285714  0.50000000       0.010
  -0.14285714  0.14285714  0.50000000       0.005
   0.28571429  0.28571429  0.50000000       0.005
   0.42857143  0.28571429  0.50000000       0.010
  -0.42857143  0.28571429  0.50000000       0.010
  -0.28571429  0.28571429  0.50000000       0.005
   0.42857143  0.42857143  0.50000000       0.005
  -0.42857143  0.42857143  0.50000000       0.005
 
 position of ions in fractional coordinates (direct lattice) 
   0.50000000  0.50000000  0.00000000
   0.00000000  0.00000000  0.00000000
   0.25000000  0.25000000  0.00000000
   0.25000000  0.75000000  0.50000000
   0.75000000  0.75000000  0.00000000
   0.75000000  0.25000000  0.50000000
   0.50000000  0.00000000  0.50000000
   0.00000000  0.50000000  0.50000000
 
 position of ions in cartesian coordinates  (Angst):
   1.78026200  2.60713743 -2.95066692
   0.00000000  0.00000000  0.00000000
   0.89013100  1.30356872 -1.47533346
  -0.12877318  3.91070615  0.21349808
   2.67039300  3.91070615 -4.42600038
   3.68929718  1.30356872  0.21349808
   2.79916618  0.00000000  1.68883154
  -1.01890418  2.60713743  1.68883154
 


--------------------------------------------------------------------------------------------------------


 k-point   1 :   0.0000 0.0000 0.0000  plane waves:    6189
 k-point   2 :   0.1429 0.0000 0.0000  plane waves:    6191
 k-point   3 :   0.2857 0.0000 0.0000  plane waves:    6162
 k-point   4 :   0.4286 0.0000 0.0000  plane waves:    6162
 k-point   5 :   0.1429 0.1429 0.0000  plane waves:    6159
 k-point   6 :   0.2857 0.1429 0.0000  plane waves:    6167
 k-point   7 :   0.4286 0.1429 0.0000  plane waves:    6167
 k-point   8 :  -0.4286 0.1429 0.0000  plane waves:    6164
 k-point   9 :  -0.2857 0.1429 0.0000  plane waves:    6164
 k-point  10 :  -0.1429 0.1429 0.0000  plane waves:    6175
 k-point  11 :   0.2857 0.2857 0.0000  plane waves:    6181
 k-point  12 :   0.4286 0.2857 0.0000  plane waves:    6173
 k-point  13 :  -0.4286 0.2857 0.0000  plane waves:    6170
 k-point  14 :  -0.2857 0.2857 0.0000  plane waves:    6176
 k-point  15 :   0.4286 0.4286 0.0000  plane waves:    6178
 k-point  16 :  -0.4286 0.4286 0.0000  plane waves:    6178
 k-point  17 :   0.0000 0.0000 0.1250  plane waves:    6175
 k-point  18 :   0.1429-0.0000 0.1250  plane waves:    6169
 k-point  19 :   0.2857 0.0000 0.1250  plane waves:    6161
 k-point  20 :   0.4286 0.0000 0.1250  plane waves:    6160
 k-point  21 :  -0.4286 0.0000 0.1250  plane waves:    6168
 k-point  22 :  -0.2857 0.0000 0.1250  plane waves:    6162
 k-point  23 :  -0.1429-0.0000 0.1250  plane waves:    6186
 k-point  24 :   0.1429 0.1429 0.1250  plane waves:    6156
 k-point  25 :   0.2857 0.1429 0.1250  plane waves:    6178
 k-point  26 :   0.4286 0.1429 0.1250  plane waves:    6174
 k-point  27 :  -0.4286 0.1429 0.1250  plane waves:    6160
 k-point  28 :  -0.2857 0.1429 0.1250  plane waves:    6161
 k-point  29 :  -0.1429 0.1429 0.1250  plane waves:    6174
 k-point  30 :   0.2857 0.2857 0.1250  plane waves:    6176
 k-point  31 :   0.4286 0.2857 0.1250  plane waves:    6169
 k-point  32 :  -0.4286 0.2857 0.1250  plane waves:    6174
 k-point  33 :  -0.2857 0.2857 0.1250  plane waves:    6177
 k-point  34 :  -0.1429 0.2857 0.1250  plane waves:    6166
 k-point  35 :   0.4286 0.4286 0.1250  plane waves:    6187
 k-point  36 :  -0.4286 0.4286 0.1250  plane waves:    6164
 k-point  37 :  -0.2857 0.4286 0.1250  plane waves:    6165
 k-point  38 :  -0.1429 0.4286 0.1250  plane waves:    6154
 k-point  39 :  -0.4286-0.4286 0.1250  plane waves:    6177
 k-point  40 :  -0.2857-0.4286 0.1250  plane waves:    6164
 k-point  41 :  -0.1429-0.4286 0.1250  plane waves:    6157
 k-point  42 :  -0.2857-0.2857 0.1250  plane waves:    6174
 k-point  43 :  -0.1429-0.2857 0.1250  plane waves:    6153
 k-point  44 :  -0.1429-0.1429 0.1250  plane waves:    6190
 k-point  45 :   0.0000 0.0000 0.2500  plane waves:    6166
 k-point  46 :   0.1429 0.0000 0.2500  plane waves:    6169
 k-point  47 :   0.2857-0.0000 0.2500  plane waves:    6166
 k-point  48 :   0.4286-0.0000 0.2500  plane waves:    6176
 k-point  49 :  -0.4286 0.0000 0.2500  plane waves:    6156
 k-point  50 :  -0.2857-0.0000 0.2500  plane waves:    6167
 k-point  51 :  -0.1429 0.0000 0.2500  plane waves:    6171
 k-point  52 :   0.1429 0.1429 0.2500  plane waves:    6167
 k-point  53 :   0.2857 0.1429 0.2500  plane waves:    6174
 k-point  54 :   0.4286 0.1429 0.2500  plane waves:    6177
 k-point  55 :  -0.4286 0.1429 0.2500  plane waves:    6165
 k-point  56 :  -0.2857 0.1429 0.2500  plane waves:    6170
 k-point  57 :  -0.1429 0.1429 0.2500  plane waves:    6175
 k-point  58 :   0.2857 0.2857 0.2500  plane waves:    6188
 k-point  59 :   0.4286 0.2857 0.2500  plane waves:    6171
 k-point  60 :  -0.4286 0.2857 0.2500  plane waves:    6165
 k-point  61 :  -0.2857 0.2857 0.2500  plane waves:    6154
 k-point  62 :  -0.1429 0.2857 0.2500  plane waves:    6160
 k-point  63 :   0.4286 0.4286 0.2500  plane waves:    6171
 k-point  64 :  -0.4286 0.4286 0.2500  plane waves:    6158
 k-point  65 :  -0.2857 0.4286 0.2500  plane waves:    6149
 k-point  66 :  -0.1429 0.4286 0.2500  plane waves:    6155
 k-point  67 :  -0.4286-0.4286 0.2500  plane waves:    6152
 k-point  68 :  -0.2857-0.4286 0.2500  plane waves:    6161
 k-point  69 :  -0.1429-0.4286 0.2500  plane waves:    6162
 k-point  70 :  -0.2857-0.2857 0.2500  plane waves:    6142
 k-point  71 :  -0.1429-0.2857 0.2500  plane waves:    6155
 k-point  72 :  -0.1429-0.1429 0.2500  plane waves:    6157
 k-point  73 :   0.0000-0.0000 0.3750  plane waves:    6174
 k-point  74 :   0.1429 0.0000 0.3750  plane waves:    6176
 k-point  75 :   0.2857 0.0000 0.3750  plane waves:    6171
 k-point  76 :   0.4286-0.0000 0.3750  plane waves:    6167
 k-point  77 :  -0.4286-0.0000 0.3750  plane waves:    6161
 k-point  78 :  -0.2857 0.0000 0.3750  plane waves:    6158
 k-point  79 :  -0.1429 0.0000 0.3750  plane waves:    6168
 k-point  80 :   0.1429 0.1429 0.3750  plane waves:    6177
 k-point  81 :   0.2857 0.1429 0.3750  plane waves:    6178
 k-point  82 :   0.4286 0.1429 0.3750  plane waves:    6171
 k-point  83 :  -0.4286 0.1429 0.3750  plane waves:    6155
 k-point  84 :  -0.2857 0.1429 0.3750  plane waves:    6162
 k-point  85 :  -0.1429 0.1429 0.3750  plane waves:    6162
 k-point  86 :   0.2857 0.2857 0.3750  plane waves:    6174
 k-point  87 :   0.4286 0.2857 0.3750  plane waves:    6161
 k-point  88 :  -0.4286 0.2857 0.3750  plane waves:    6151
 k-point  89 :  -0.2857 0.2857 0.3750  plane waves:    6168
 k-point  90 :  -0.1429 0.2857 0.3750  plane waves:    6168
 k-point  91 :   0.4286 0.4286 0.3750  plane waves:    6156
 k-point  92 :  -0.4286 0.4286 0.3750  plane waves:    6154
 k-point  93 :  -0.2857 0.4286 0.3750  plane waves:    6151
 k-point  94 :  -0.1429 0.4286 0.3750  plane waves:    6169
 k-point  95 :  -0.4286-0.4286 0.3750  plane waves:    6139
 k-point  96 :  -0.2857-0.4286 0.3750  plane waves:    6145
 k-point  97 :  -0.1429-0.4286 0.3750  plane waves:    6154
 k-point  98 :  -0.2857-0.2857 0.3750  plane waves:    6143
 k-point  99 :  -0.1429-0.2857 0.3750  plane waves:    6151
 k-point 100 :  -0.1429-0.1429 0.3750  plane waves:    6160
 k-point 101 :   0.0000 0.0000 0.5000  plane waves:    6162
 k-point 102 :   0.1429 0.0000 0.5000  plane waves:    6172
 k-point 103 :   0.2857 0.0000 0.5000  plane waves:    6167
 k-point 104 :   0.4286 0.0000 0.5000  plane waves:    6157
 k-point 105 :   0.1429 0.1429 0.5000  plane waves:    6177
 k-point 106 :   0.2857 0.1429 0.5000  plane waves:    6162
 k-point 107 :   0.4286 0.1429 0.5000  plane waves:    6158
 k-point 108 :  -0.4286 0.1429 0.5000  plane waves:    6160
 k-point 109 :  -0.2857 0.1429 0.5000  plane waves:    6166
 k-point 110 :  -0.1429 0.1429 0.5000  plane waves:    6158
 k-point 111 :   0.2857 0.2857 0.5000  plane waves:    6166
 k-point 112 :   0.4286 0.2857 0.5000  plane waves:    6162
 k-point 113 :  -0.4286 0.2857 0.5000  plane waves:    6150
 k-point 114 :  -0.2857 0.2857 0.5000  plane waves:    6170
 k-point 115 :   0.4286 0.4286 0.5000  plane waves:    6141
 k-point 116 :  -0.4286 0.4286 0.5000  plane waves:    6146

 maximum and minimum number of plane-waves per node :      3118     3032

 maximum number of plane-waves:      6191
 maximum index in each direction: 
   IXMAX=   13   IYMAX=   13   IZMAX=   12
   IXMIN=  -13   IYMIN=  -13   IZMIN=  -13


 parallel 3D FFT for wavefunctions:
    minimum data exchange during FFTs selected (reduces bandwidth)
 parallel 3D FFT for charge:
    minimum data exchange during FFTs selected (reduces bandwidth)


 total amount of memory used by VASP MPI-rank0   341639. kBytes
=======================================================================

   base      :      30000. kBytes
   nonl-proj :     156748. kBytes
   fftplans  :      17763. kBytes
   grid      :      13358. kBytes
   one-center:         62. kBytes
   wavefun   :     123708. kBytes
 
     INWAV:  cpu time    0.0001: real time    0.0001
 Broyden mixing: mesh for mixing (old mesh)
   NGX = 25   NGY = 25   NGZ = 25
  (NGX  =108   NGY  =108   NGZ  =108)
  gives a total of  15625 points

 initial charge density was supplied:
 charge density of overlapping atoms calculated
 number of electron      70.0000000 magnetization 
 keeping initial charge density in first step


--------------------------------------------------------------------------------------------------------


 Maximum index for augmentation-charges        24156 (set IRDMAX)


--------------------------------------------------------------------------------------------------------


 First call to EWALD:  gamma=   0.311
 Maximum number of real-space cells 3x 3x 3
 Maximum number of reciprocal cells 3x 3x 3

    FEWALD:  cpu time    0.0068: real time    0.0069


--------------------------------------- Iteration      1(   1)  ---------------------------------------


    POTLOK:  cpu time    0.1898: real time    0.1917
    SETDIJ:  cpu time    0.5414: real time    0.5458
    TRIAL :  cpu time   19.9472: real time   20.1615
    CORREC:  cpu time    0.0015: real time    0.0015
    --------------------------------------------
      LOOP:  cpu time   20.7552: real time   20.9910

 eigenvalue-minimisations  : 11112
 total energy-change (2. order) : 0.6013147E+03  (-0.4508298E+04)
 number of electron      70.0000000 magnetization 
 augmentation part       70.0000000 magnetization 

 Free energy of the ion-electron system (eV)
  ---------------------------------------------------
  alpha Z        PSCENC =       223.27475057
  Ewald energy   TEWEN  =     -5089.33813571
  -Hartree energ DENC   =     -2280.42607002
  -exchange      EXHF   =         0.00000000
  -V(xc)+E(xc)   XCENC  =       303.88075116
  PAW double counting   =      6194.65714934    -6160.44322926
  entropy T*S    EENTRO =        -0.00044035
  eigenvalues    EBANDS =      -387.89247347
  atomic energy  EATOM  =      7797.60240368
  ---------------------------------------------------
  free energy    TOTEN  =       601.31470595 eV

  energy without entropy =      601.31514629  energy(sigma->0) =      601.31492612


--------------------------------------------------------------------------------------------------------




--------------------------------------- Iteration      1(   2)  ---------------------------------------


    TRIAL :  cpu time   20.2128: real time   20.4407
    CORREC:  cpu time    0.0014: real time    0.0014
    --------------------------------------------
      LOOP:  cpu time   20.2171: real time   20.4454

 eigenvalue-minimisations  : 11316
 total energy-change (2. order) :-0.7157416E+03  (-0.7004123E+03)
 number of electron      70.0000000 magnetization 
 augmentation part       70.0000000 magnetization 

 Free energy of the ion-electron system (eV)
  ---------------------------------------------------
  alpha Z        PSCENC =       223.27475057
  Ewald energy   TEWEN  =     -5089.33813571
  -Hartree energ DENC   =     -2280.42607002
  -exchange      EXHF   =         0.00000000
  -V(xc)+E(xc)   XCENC  =       303.88075116
  PAW double counting   =      6194.65714934    -6160.44322926
  entropy T*S    EENTRO =        -0.00147864
  eigenvalues    EBANDS =     -1103.63308243
  atomic energy  EATOM  =      7797.60240368
  ---------------------------------------------------
  free energy    TOTEN  =      -114.42694131 eV

  energy without entropy =     -114.42546267  energy(sigma->0) =     -114.42620199


--------------------------------------------------------------------------------------------------------




--------------------------------------- Iteration      1(   3)  ---------------------------------------


    TRIAL :  cpu time   22.6939: real time   22.9410
    CORREC:  cpu time    0.0015: real time    0.0016
    --------------------------------------------
      LOOP:  cpu time   22.6960: real time   22.9453

 eigenvalue-minimisations  : 13686
 total energy-change (2. order) :-0.3060249E+02  (-0.2854251E+02)
 number of electron      70.0000000 magnetization 
 augmentation part       70.0000000 magnetization 

 Free energy of the ion-electron system (eV)
  ---------------------------------------------------
  alpha Z        PSCENC =       223.27475057
  Ewald energy   TEWEN  =     -5089.33813571
  -Hartree energ DENC   =     -2280.42607002
  -exchange      EXHF   =         0.00000000
  -V(xc)+E(xc)   XCENC  =       303.88075116
  PAW double counting   =      6194.65714934    -6160.44322926
  entropy T*S    EENTRO =        -0.00216743
  eigenvalues    EBANDS =     -1134.23488846
  atomic energy  EATOM  =      7797.60240368
  ---------------------------------------------------
  free energy    TOTEN  =      -145.02943613 eV

  energy without entropy =     -145.02726870  energy(sigma->0) =     -145.02835242


--------------------------------------------------------------------------------------------------------




--------------------------------------- Iteration      1(   4)  ---------------------------------------


    TRIAL :  cpu time   21.9132: real time   22.1456
    CORREC:  cpu time    0.0013: real time    0.0013
    --------------------------------------------
      LOOP:  cpu time   21.9155: real time   22.1499

 eigenvalue-minimisations  : 12828
 total energy-change (2. order) :-0.1156947E+01  (-0.1103999E+01)
 number of electron      70.0000000 magnetization 
 augmentation part       70.0000000 magnetization 

 Free energy of the ion-electron system (eV)
  ---------------------------------------------------
  alpha Z        PSCENC =       223.27475057
  Ewald energy   TEWEN  =     -5089.33813571
  -Hartree energ DENC   =     -2280.42607002
  -exchange      EXHF   =         0.00000000
  -V(xc)+E(xc)   XCENC  =       303.88075116
  PAW double counting   =      6194.65714934    -6160.44322926
  entropy T*S    EENTRO =        -0.00280154
  eigenvalues    EBANDS =     -1135.39120157
  atomic energy  EATOM  =      7797.60240368
  ---------------------------------------------------
  free energy    TOTEN  =      -146.18638336 eV

  energy without entropy =     -146.18358182  energy(sigma->0) =     -146.18498259


--------------------------------------------------------------------------------------------------------




--------------------------------------- Iteration      1(   5)  ---------------------------------------


    TRIAL :  cpu time   22.3879: real time   22.6374
    CORREC:  cpu time    0.0015: real time    0.0015
    CHARGE:  cpu time    1.6352: real time    1.6501
    --------------------------------------------
      LOOP:  cpu time   24.0256: real time   24.2917

 eigenvalue-minimisations  : 13332
 total energy-change (2. order) :-0.3678314E-01  (-0.3618005E-01)
 number of electron      70.0000000 magnetization 
 augmentation part        7.8055613 magnetization 

 Free energy of the ion-electron system (eV)
  ---------------------------------------------------
  alpha Z        PSCENC =       223.27475057
  Ewald energy   TEWEN  =     -5089.33813571
  -Hartree energ DENC   =     -2280.42607002
  -exchange      EXHF   =         0.00000000
  -V(xc)+E(xc)   XCENC  =       303.88075116
  PAW double counting   =      6194.65714934    -6160.44322926
  entropy T*S    EENTRO =        -0.00275755
  eigenvalues    EBANDS =     -1135.42802871
  atomic energy  EATOM  =      7797.60240368
  ---------------------------------------------------
  free energy    TOTEN  =      -146.22316650 eV

  energy without entropy =     -146.22040895  energy(sigma->0) =     -146.22178773


--------------------------------------------------------------------------------------------------------




--------------------------------------- Iteration      1(   6)  ---------------------------------------


    POTLOK:  cpu time    0.1666: real time    0.1677
    SETDIJ:  cpu time    0.5756: real time    0.5799
    TRIAL :  cpu time   15.3045: real time   15.5062
    CORREC:  cpu time    6.6860: real time    6.7434
    CHARGE:  cpu time    1.6532: real time    1.6682
    --------------------------------------------
      LOOP:  cpu time   24.4093: real time   24.6893

 eigenvalue-minimisations  :     0
 total energy-change (2. order) : 0.5364172E+02  (-0.1709130E+02)
 number of electron      70.0000000 magnetization 
 augmentation part        9.1876907 magnetization 

 Free energy of the ion-electron system (eV)
  ---------------------------------------------------
  alpha Z        PSCENC =       223.27475057
  Ewald energy   TEWEN  =     -5089.33813571
  -Hartree energ DENC   =     -1933.56263282
  -exchange      EXHF   =         0.00000000
  -V(xc)+E(xc)   XCENC  =       299.44001369
  PAW double counting   =      7408.59151340    -7402.00124748
  entropy T*S    EENTRO =        -0.00240158
  eigenvalues    EBANDS =     -1396.58535632
  atomic energy  EATOM  =      7797.60240368
  ---------------------------------------------------
  free energy    TOTEN  =       -92.58144854 eV

  energy without entropy =      -92.57904697  energy(sigma->0) =      -92.58024775


--------------------------------------------------------------------------------------------------------




--------------------------------------- Iteration      1(   7)  ---------------------------------------


    POTLOK:  cpu time    0.1467: real time    0.1479
    SETDIJ:  cpu time    0.6885: real time    0.6936
    TRIAL :  cpu time   16.9373: real time   17.0946
    CORREC:  cpu time    7.0056: real time    7.0637
    CHARGE:  cpu time    1.7447: real time    1.7592
    --------------------------------------------
      LOOP:  cpu time   26.5234: real time   26.7606

 eigenvalue-minimisations  :     0
 total energy-change (2. order) :-0.1831732E+02  (-0.3133721E+01)
 number of electron      70.0000000 magnetization 
 augmentation part        9.3031464 magnetization 

 Free energy of the ion-electron system (eV)
  ---------------------------------------------------
  alpha Z        PSCENC =       223.27475057
  Ewald energy   TEWEN  =     -5089.33813571
  -Hartree energ DENC   =     -2129.88379178
  -exchange      EXHF   =         0.00000000
  -V(xc)+E(xc)   XCENC  =       307.40323095
  PAW double counting   =      7336.25530293    -7319.83789657
  entropy T*S    EENTRO =        -0.00262352
  eigenvalues    EBANDS =     -1236.37223031
  atomic energy  EATOM  =      7797.60240368
  ---------------------------------------------------
  free energy    TOTEN  =      -110.89876782 eV

  energy without entropy =     -110.89614429  energy(sigma->0) =     -110.89745606


--------------------------------------------------------------------------------------------------------




--------------------------------------- Iteration      1(   8)  ---------------------------------------


    POTLOK:  cpu time    0.1463: real time    0.1473
    SETDIJ:  cpu time    0.5768: real time    0.5814
    TRIAL :  cpu time   17.6302: real time   17.7887
    CORREC:  cpu time    7.0738: real time    7.1292
    CHARGE:  cpu time    1.8344: real time    1.8503
    --------------------------------------------
      LOOP:  cpu time   27.2628: real time   27.4984

 eigenvalue-minimisations  :     0
 total energy-change (2. order) :-0.3071306E+01  (-0.7952166E+00)
 number of electron      70.0000000 magnetization 
 augmentation part        9.2338630 magnetization 

 Free energy of the ion-electron system (eV)
  ---------------------------------------------------
  alpha Z        PSCENC =       223.27475057
  Ewald energy   TEWEN  =     -5089.33813571
  -Hartree energ DENC   =     -2191.54929443
  -exchange      EXHF   =         0.00000000
  -V(xc)+E(xc)   XCENC  =       309.55674631
  PAW double counting   =      7329.63029723    -7309.50875661
  entropy T*S    EENTRO =        -0.00299414
  eigenvalues    EBANDS =     -1183.63546093
  atomic energy  EATOM  =      7797.60240368
  ---------------------------------------------------
  free energy    TOTEN  =      -113.97007342 eV

  energy without entropy =     -113.96707928  energy(sigma->0) =     -113.96857635


--------------------------------------------------------------------------------------------------------




--------------------------------------- Iteration      1(   9)  ---------------------------------------


    POTLOK:  cpu time    0.1446: real time    0.1457
    SETDIJ:  cpu time    0.5865: real time    0.5910
    TRIAL :  cpu time   18.4903: real time   18.6549
    CORREC:  cpu time    6.2076: real time    6.2586
    CHARGE:  cpu time    2.2681: real time    2.2848
    --------------------------------------------
      LOOP:  cpu time   27.6987: real time   27.9370

 eigenvalue-minimisations  :     0
 total energy-change (2. order) :-0.8041371E+00  (-0.4121934E+00)
 number of electron      70.0000000 magnetization 
 augmentation part        9.1926310 magnetization 

 Free energy of the ion-electron system (eV)
  ---------------------------------------------------
  alpha Z        PSCENC =       223.27475057
  Ewald energy   TEWEN  =     -5089.33813571
  -Hartree energ DENC   =     -2192.99352414
  -exchange      EXHF   =         0.00000000
  -V(xc)+E(xc)   XCENC  =       309.43855995
  PAW double counting   =      7311.11169301    -7289.78266039
  entropy T*S    EENTRO =        -0.00335861
  eigenvalues    EBANDS =     -1184.08430336
  atomic energy  EATOM  =      7797.60240368
  ---------------------------------------------------
  free energy    TOTEN  =      -114.77421052 eV

  energy without entropy =     -114.77085191  energy(sigma->0) =     -114.77253122


--------------------------------------------------------------------------------------------------------




--------------------------------------- Iteration      1(  10)  ---------------------------------------


    POTLOK:  cpu time    0.1464: real time    0.1474
    SETDIJ:  cpu time    0.5877: real time    0.5918
    TRIAL :  cpu time   16.6928: real time   16.8459
    CORREC:  cpu time    7.2117: real time    7.2692
    CHARGE:  cpu time    2.0130: real time    2.0294
    --------------------------------------------
      LOOP:  cpu time   26.9223: real time   27.1561

 eigenvalue-minimisations  :     0
 total energy-change (2. order) :-0.4118943E+00  (-0.1728198E+00)
 number of electron      70.0000000 magnetization 
 augmentation part        9.2125751 magnetization 

 Free energy of the ion-electron system (eV)
  ---------------------------------------------------
  alpha Z        PSCENC =       223.27475057
  Ewald energy   TEWEN  =     -5089.33813571
  -Hartree energ DENC   =     -2186.62722046
  -exchange      EXHF   =         0.00000000
  -V(xc)+E(xc)   XCENC  =       309.17020213
  PAW double counting   =      7318.47896865    -7296.11239134
  entropy T*S    EENTRO =        -0.00307834
  eigenvalues    EBANDS =     -1191.63132377
  atomic energy  EATOM  =      7797.60240368
  ---------------------------------------------------
  free energy    TOTEN  =      -115.18610486 eV

  energy without entropy =     -115.18302652  energy(sigma->0) =     -115.18456569


--------------------------------------------------------------------------------------------------------




--------------------------------------- Iteration      1(  11)  ---------------------------------------


    POTLOK:  cpu time    0.1472: real time    0.1483
    SETDIJ:  cpu time    0.5849: real time    0.5894
    TRIAL :  cpu time   16.5584: real time   16.7078
    CORREC:  cpu time    6.6802: real time    6.7346
    CHARGE:  cpu time    2.0109: real time    2.0273
    --------------------------------------------
      LOOP:  cpu time   25.9832: real time   26.2094

 eigenvalue-minimisations  :     0
 total energy-change (2. order) :-0.1727868E+00  (-0.7523713E-01)
 number of electron      70.0000000 magnetization 
 augmentation part        9.2413256 magnetization 

 Free energy of the ion-electron system (eV)
  ---------------------------------------------------
  alpha Z        PSCENC =       223.27475057
  Ewald energy   TEWEN  =     -5089.33813571
  -Hartree energ DENC   =     -2191.22727837
  -exchange      EXHF   =         0.00000000
  -V(xc)+E(xc)   XCENC  =       309.42833968
  PAW double counting   =      7339.75921871    -7316.55838786
  entropy T*S    EENTRO =        -0.00275376
  eigenvalues    EBANDS =     -1188.29672399
  atomic energy  EATOM  =      7797.60240368
  ---------------------------------------------------
  free energy    TOTEN  =      -115.35889163 eV

  energy without entropy =     -115.35613786  energy(sigma->0) =     -115.35751475


[...]
      1     -58.8354      2.00000
      2     -58.8353      2.00000
      3     -58.3103      2.00000
      4     -58.3100      2.00000
      5     -32.1745      2.00000
      6     -32.1721      2.00000
      7     -32.1677      2.00000
      8     -32.1652      2.00000
      9     -32.1638      2.00000
     10     -32.1636      2.00000
     11     -31.8638      2.00000
     12     -31.8567      2.00000
     13     -31.7239      2.00000
     14     -31.7226      2.00000
     15     -31.7167      2.00000
     16     -31.7153      2.00000
     17      -3.9648      2.00000
     18      -3.1896      2.00000
     19      -2.1030      2.00000
     20      -2.0612      2.00000
     21       1.1256      2.00000
     22       1.3095      2.00000
     23       1.6890      2.00000
     24       1.8636      2.00000
     25       2.2503      2.00000
     26       2.2672      2.00000
     27       2.5259      2.00000
     28       2.5412      2.00000
     29       2.7709      2.00000
     30       2.8474      2.00000
     31       3.0949      2.00000
     32       3.2333      2.00000
     33       3.7225      2.00000
     34       3.7363      2.00000
     35       3.8236      2.00000
     36       3.9281      0.01368
     37       4.0121      0.00000
     38       4.1275      0.00000
     39       4.3563      0.00000
     40       4.6385      0.00000
     41       5.1375      0.00000
     42       5.2381      0.00000

 k-point   107 :       0.4286    0.1429    0.5000
  band No.  band energies     occupation 
      1     -58.8355      2.00000
      2     -58.8353      2.00000
      3     -58.3103      2.00000
      4     -58.3099      2.00000
      5     -32.1802      2.00000
      6     -32.1767      2.00000
      7     -32.1684      2.00000
      8     -32.1648      2.00000
      9     -32.1642      2.00000
     10     -32.1634      2.00000
     11     -31.8635      2.00000
     12     -31.8569      2.00000
     13     -31.7239      2.00000
     14     -31.7224      2.00000
     15     -31.7111      2.00000
     16     -31.7097      2.00000
     17      -3.6609      2.00000
     18      -3.6208      2.00000
     19      -2.2912      2.00000
     20      -1.5840      2.00000
     21       1.1747      2.00000
     22       1.2708      2.00000
     23       1.5380      2.00000
     24       1.5747      2.00000
     25       1.9137      2.00000
     26       1.9734      2.00000
     27       2.3677      2.00000
     28       2.7644      2.00000
     29       2.7954      2.00000
     30       3.0393      2.00000
     31       3.3320      2.00000
     32       3.4674      2.00000
     33       3.4908      2.00000
     34       3.5890      2.00000
     35       3.6104      2.00000
     36       3.8450      1.99936
     37       3.9789      0.00000
     38       4.3009      0.00000
     39       4.3976      0.00000
     40       4.7967      0.00000
     41       4.9779      0.00000
     42       5.4563      0.00000

 k-point   108 :      -0.4286    0.1429    0.5000
  band No.  band energies     occupation 
      1     -58.8355      2.00000
      2     -58.8353      2.00000
      3     -58.3107      2.00000
      4     -58.3095      2.00000
      5     -32.1804      2.00000
      6     -32.1765      2.00000
      7     -32.1686      2.00000
      8     -32.1646      2.00000
      9     -32.1645      2.00000
     10     -32.1632      2.00000
     11     -31.8697      2.00000
     12     -31.8507      2.00000
     13     -31.7239      2.00000
     14     -31.7224      2.00000
     15     -31.7111      2.00000
     16     -31.7098      2.00000
     17      -3.9253      2.00000
     18      -3.2238      2.00000
     19      -2.5540      2.00000
     20      -1.1191      2.00000
     21       0.8628      2.00000
     22       1.0689      2.00000
     23       1.4860      2.00000
     24       1.5669      2.00000
     25       1.7844      2.00000
     26       1.9218      2.00000
     27       2.4045      2.00000
     28       2.6771      2.00000
     29       2.8213      2.00000
     30       2.9740      2.00000
     31       3.0758      2.00000
     32       3.1940      2.00000
     33       3.3572      2.00000
     34       3.4090      2.00000
     35       3.8044      2.00000
     36       3.9356      0.00269
     37       4.3626      0.00000
     38       4.5409      0.00000
     39       4.6924      0.00000
     40       4.8742      0.00000
     41       5.1160      0.00000
     42       5.1415      0.00000

 k-point   109 :      -0.2857    0.1429    0.5000
  band No.  band energies     occupation 
      1     -58.8355      2.00000
      2     -58.8352      2.00000
      3     -58.3109      2.00000
      4     -58.3093      2.00000
      5     -32.1750      2.00000
      6     -32.1715      2.00000
      7     -32.1683      2.00000
      8     -32.1647      2.00000
      9     -32.1645      2.00000
     10     -32.1631      2.00000
     11     -31.8741      2.00000
     12     -31.8464      2.00000
     13     -31.7238      2.00000
     14     -31.7227      2.00000
     15     -31.7165      2.00000
     16     -31.7155      2.00000
     17      -4.0911      2.00000
     18      -2.8073      2.00000
     19      -2.7333      2.00000
     20      -0.8552      2.00000
     21       0.2777      2.00000
     22       0.9267      2.00000
     23       1.4042      2.00000
     24       1.9589      2.00000
     25       2.0436      2.00000
     26       2.1151      2.00000
     27       2.2714      2.00000
     28       2.6450      2.00000
     29       2.8719      2.00000
     30       2.9272      2.00000
     31       3.0286      2.00000
     32       3.1787      2.00000
     33       3.1848      2.00000
     34       3.2405      2.00000
     35       3.4725      2.00000
     36       4.1164      0.00000
     37       4.4146      0.00000
     38       4.5276      0.00000
     39       4.8374      0.00000
     40       4.9532      0.00000
     41       5.4765      0.00000
     42       5.8754      0.00000

 k-point   110 :      -0.1429    0.1429    0.5000
  band No.  band energies     occupation 
      1     -58.8355      2.00000
      2     -58.8352      2.00000
      3     -58.3110      2.00000
      4     -58.3093      2.00000
      5     -32.1686      2.00000
      6     -32.1669      2.00000
      7     -32.1662      2.00000
      8     -32.1643      2.00000
      9     -32.1643      2.00000
     10     -32.1630      2.00000
     11     -31.8758      2.00000
     12     -31.8449      2.00000
     13     -31.7244      2.00000
     14     -31.7240      2.00000
     15     -31.7224      2.00000
     16     -31.7221      2.00000
     17      -4.1553      2.00000
     18      -2.9449      2.00000
     19      -2.3863      2.00000
     20      -0.9526      2.00000
     21       0.0896      2.00000
     22       0.6994      2.00000
     23       1.6638      2.00000
     24       2.1744      2.00000
     25       2.2014      2.00000
     26       2.2718      2.00000
     27       2.4431      2.00000
     28       2.8246      2.00000
     29       2.9272      2.00000
     30       3.0177      2.00000
     31       3.1233      2.00000
     32       3.1400      2.00000
     33       3.1534      2.00000
     34       3.2178      2.00000
     35       3.3047      2.00000
     36       4.0745      0.00000
     37       4.3441      0.00000
     38       4.5839      0.00000
     39       4.6412      0.00000
     40       4.7308      0.00000
     41       5.4745      0.00000
     42       5.8400      0.00000

 k-point   111 :       0.2857    0.2857    0.5000
  band No.  band energies     occupation 
      1     -58.8356      2.00000
      2     -58.8353      2.00000
      3     -58.3103      2.00000
      4     -58.3098      2.00000
      5     -32.1762      2.00000
      6     -32.1753      2.00000
      7     -32.1712      2.00000
      8     -32.1704      2.00000
      9     -32.1644      2.00000
     10     -32.1633      2.00000
     11     -31.8634      2.00000
     12     -31.8569      2.00000
     13     -31.7175      2.00000
     14     -31.7167      2.00000
     15     -31.7154      2.00000
     16     -31.7144      2.00000
     17      -3.7422      2.00000
     18      -3.5019      2.00000
     19      -2.3807      2.00000
     20      -1.5168      2.00000
     21       1.2637      2.00000
     22       1.2733      2.00000
     23       1.5124      2.00000
     24       1.6039      2.00000
     25       1.7287      2.00000
     26       1.8448      2.00000
     27       2.5614      2.00000
     28       2.6525      2.00000
     29       2.6674      2.00000
     30       2.9114      2.00000
     31       3.4009      2.00000
     32       3.4271      2.00000
     33       3.4997      2.00000
     34       3.6534      2.00000
     35       3.8335      1.99998
     36       3.8586      1.98561
     37       3.9026      0.50931
     38       4.3072      0.00000
     39       4.4124      0.00000
     40       4.9859      0.00000
     41       5.0967      0.00000
     42       5.3376      0.00000

 k-point   112 :       0.4286    0.2857    0.5000
  band No.  band energies     occupation 
      1     -58.8356      2.00000
      2     -58.8352      2.00000
      3     -58.3107      2.00000
      4     -58.3094      2.00000
      5     -32.1818      2.00000
      6     -32.1766      2.00000
      7     -32.1753      2.00000
      8     -32.1700      2.00000
      9     -32.1648      2.00000
     10     -32.1631      2.00000
     11     -31.8694      2.00000
     12     -31.8507      2.00000
     13     -31.7173      2.00000
     14     -31.7147      2.00000
     15     -31.7116      2.00000
     16     -31.7091      2.00000
     17      -3.7929      2.00000
     18      -3.3949      2.00000
     19      -2.5735      2.00000
     20      -0.8774      2.00000
     21       0.7745      2.00000
     22       1.2230      2.00000
     23       1.3587      2.00000
     24       1.4522      2.00000
     25       1.5028      2.00000
     26       1.6904      2.00000
     27       2.4521      2.00000
     28       2.5509      2.00000
     29       2.5946      2.00000
     30       2.7073      2.00000
     31       2.8429      2.00000
     32       3.4344      2.00000
     33       3.4732      2.00000
     34       3.5002      2.00000
     35       3.7563      2.00000
     36       4.1617      0.00000
     37       4.4180      0.00000
     38       4.6456      0.00000
     39       4.7516      0.00000
     40       4.9437      0.00000
     41       4.9663      0.00000
     42       5.6894      0.00000

 k-point   113 :      -0.4286    0.2857    0.5000
  band No.  band energies     occupation 
      1     -58.8357      2.00000
      2     -58.8352      2.00000
      3     -58.3109      2.00000
      4     -58.3092      2.00000
      5     -32.1819      2.00000
      6     -32.1767      2.00000
      7     -32.1752      2.00000
      8     -32.1699      2.00000
      9     -32.1650      2.00000
     10     -32.1630      2.00000
     11     -31.8737      2.00000
     12     -31.8464      2.00000
     13     -31.7172      2.00000
     14     -31.7147      2.00000
     15     -31.7116      2.00000
     16     -31.7092      2.00000
     17      -3.9868      2.00000
     18      -2.9909      2.00000
     19      -2.7328      2.00000
     20      -0.3356      2.00000
     21       0.1232      2.00000
     22       1.0558      2.00000
     23       1.1987      2.00000
     24       1.6819      2.00000
     25       1.7099      2.00000
     26       1.7956      2.00000
     27       1.9025      2.00000
     28       2.4685      2.00000
     29       2.6157      2.00000
     30       2.7133      2.00000
     31       2.8702      2.00000
     32       3.0306      2.00000
     33       3.0907      2.00000
     34       3.3607      2.00000
     35       3.6449      2.00000
     36       4.4688      0.00000
     37       4.6340      0.00000
     38       4.7297      0.00000
     39       4.9449      0.00000
     40       5.3497      0.00000
     41       5.7217      0.00000
     42       5.7614      0.00000

 k-point   114 :      -0.2857    0.2857    0.5000
  band No.  band energies     occupation 
      1     -58.8356      2.00000
      2     -58.8352      2.00000
      3     -58.3110      2.00000
      4     -58.3092      2.00000
      5     -32.1765      2.00000
      6     -32.1758      2.00000
      7     -32.1709      2.00000
      8     -32.1699      2.00000
      9     -32.1648      2.00000
     10     -32.1629      2.00000
     11     -31.8754      2.00000
     12     -31.8449      2.00000
     13     -31.7175      2.00000
     14     -31.7165      2.00000
     15     -31.7155      2.00000
     16     -31.7146      2.00000
     17      -4.0731      2.00000
     18      -2.8424      2.00000
     19      -2.7163      2.00000
     20      -0.2613      2.00000
     21      -0.1058      2.00000
     22       0.7980      2.00000
     23       1.3375      2.00000
     24       1.7694      2.00000
     25       1.8682      2.00000
     26       1.9875      2.00000
     27       2.0273      2.00000
     28       2.6265      2.00000
     29       2.7243      2.00000
     30       2.7847      2.00000
     31       2.8724      2.00000
     32       2.9345      2.00000
     33       2.9865      2.00000
     34       3.2823      2.00000
     35       3.4094      2.00000
     36       4.5031      0.00000
     37       4.5999      0.00000
     38       4.6886      0.00000
     39       4.8018      0.00000
     40       5.6156      0.00000
     41       5.8097      0.00000
     42       6.1902      0.00000

 k-point   115 :       0.4286    0.4286    0.5000
  band No.  band energies     occupation 
      1     -58.8357      2.00000
      2     -58.8352      2.00000
      3     -58.3109      2.00000
      4     -58.3092      2.00000
      5     -32.1827      2.00000
      6     -32.1826      2.00000
      7     -32.1745      2.00000
      8     -32.1744      2.00000
      9     -32.1652      2.00000
     10     -32.1629      2.00000
     11     -31.8735      2.00000
     12     -31.8463      2.00000
     13     -31.7119      2.00000
     14     -31.7119      2.00000
     15     -31.7089      2.00000
     16     -31.7087      2.00000
     17      -3.9372      2.00000
     18      -3.0814      2.00000
     19      -2.6994      2.00000
     20      -0.1448      2.00000
     21       0.0842      2.00000
     22       1.1370      2.00000
     23       1.2037      2.00000
     24       1.5652      2.00000
     25       1.6144      2.00000
     26       1.6171      2.00000
     27       1.6489      2.00000
     28       2.4581      2.00000
     29       2.5072      2.00000
     30       2.5686      2.00000
     31       2.7499      2.00000
     32       3.0051      2.00000
     33       3.0095      2.00000
     34       3.6078      2.00000
     35       3.6239      2.00000
     36       4.7301      0.00000
     37       4.7382      0.00000
     38       4.7787      0.00000
     39       4.9065      0.00000
     40       5.3321      0.00000
     41       5.5975      0.00000
     42       5.9391      0.00000

 k-point   116 :      -0.4286    0.4286    0.5000
  band No.  band energies     occupation 
      1     -58.8357      2.00000
      2     -58.8352      2.00000
      3     -58.3110      2.00000
      4     -58.3091      2.00000
      5     -32.1827      2.00000
      6     -32.1827      2.00000
      7     -32.1745      2.00000
      8     -32.1743      2.00000
      9     -32.1653      2.00000
     10     -32.1629      2.00000
     11     -31.8750      2.00000
     12     -31.8448      2.00000
     13     -31.7120      2.00000
     14     -31.7118      2.00000
     15     -31.7088      2.00000
     16     -31.7088      2.00000
     17      -4.0035      2.00000
     18      -2.8959      2.00000
     19      -2.7535      2.00000
     20      -0.2472      2.00000
     21       0.4127      2.00000
     22       0.8558      2.00000
     23       1.1588      2.00000
     24       1.2787      2.00000
     25       1.5872      2.00000
     26       1.7923      2.00000
     27       1.7960      2.00000
     28       2.4577      2.00000
     29       2.5129      2.00000
     30       2.5739      2.00000
     31       2.7618      2.00000
     32       2.7771      2.00000
     33       2.7835      2.00000
     34       3.5702      2.00000
     35       3.5855      2.00000
     36       4.7696      0.00000
     37       4.8043      0.00000
     38       4.8150      0.00000
     39       4.9009      0.00000
     40       5.6934      0.00000
     41       5.9422      0.00000
     42       6.2523      0.00000


--------------------------------------------------------------------------------------------------------


 soft charge-density along one line, spin component           1
         0         1         2         3         4         5         6         7         8         9
 total charge-density along one line
 
 pseudopotential strength for first ion, spin component:           1
  6.276   9.536   0.000  -0.000   0.000   0.000  -0.000   0.000
  9.536  14.484   0.000  -0.000   0.000   0.000  -0.000   0.000
  0.000   0.000  -2.135   0.006  -0.004  -3.606   0.013  -0.008
 -0.000  -0.000   0.006  -2.136   0.004   0.013  -3.609   0.009
  0.000   0.000  -0.004   0.004  -2.132  -0.008   0.009  -3.600
  0.000   0.000  -3.606   0.013  -0.008  -5.884   0.024  -0.015
 -0.000  -0.000   0.013  -3.609   0.009   0.024  -5.890   0.017
  0.000   0.000  -0.008   0.009  -3.600  -0.015   0.017  -5.872
 total augmentation occupancy for first ion, spin component:           1
  2.813  -0.431   0.000  -0.000   0.000   0.000   0.000   0.000
 -0.431   0.084  -0.000   0.000   0.000  -0.000   0.000   0.000
 -0.000   0.000   1.423  -0.426   0.257  -0.308   0.104  -0.062
 -0.000   0.000  -0.426   1.529  -0.291   0.104  -0.334   0.071
  0.000   0.000   0.257  -0.291   1.222  -0.062   0.071  -0.260
  0.000  -0.000  -0.308   0.104  -0.062   0.070  -0.028   0.017
 -0.000   0.000   0.104  -0.334   0.071  -0.028   0.077  -0.019
  0.000  -0.000  -0.062   0.071  -0.260   0.017  -0.019   0.057


------------------------ aborting loop because EDIFF is reached ----------------------------------------




--------------------------------------------------------------------------------------------------------



  FREE ENERGIE OF THE ION-ELECTRON SYSTEM (eV)
  ---------------------------------------------------
  free  energy   TOTEN  =      -115.56442907 eV

  energy  without entropy=     -115.56074518  energy(sigma->0) =     -115.56258712
 


--------------------------------------------------------------------------------------------------------


    POTLOK:  cpu time    1.0594: real time    1.0669


--------------------------------------------------------------------------------------------------------


 writing wavefunctions
     LOOP+:  cpu time 1304.0096: real time 1315.9125
    4ORBIT:  cpu time    0.0000: real time    0.0000

 total amount of memory used by VASP MPI-rank0   341639. kBytes
=======================================================================

   base      :      30000. kBytes
   nonl-proj :     156748. kBytes
   fftplans  :      17763. kBytes
   grid      :      13358. kBytes
   one-center:         62. kBytes
   wavefun   :     123708. kBytes
 
  
  
 General timing and accounting informations for this job:
 ========================================================
  
                  Total CPU time used (sec):     1310.236
                            User time (sec):     1299.669
                          System time (sec):       10.567
                         Elapsed time (sec):     1328.788
  
                   Maximum memory used (kb):      574672.
                   Average memory used (kb):          N/A
  
                          Minor page faults:      1688419
                          Major page faults:           37
                 Voluntary context switches:         9253
