<?xml version="1.0" encoding="ISO-8859-1"?>
<modeling>
 <generator>
  <i name="program" type="string">vasp </i>
  <i name="version" type="string">6.2.0  </i>
  <i name="subversion" type="string">18Jan21 (build Jan 05 2022 15:41:44) complex                          parallel </i>
  <i name="platform" type="string">LinuxIFC </i>
  <i name="date" type="string">2025 05 07 </i>
  <i name="time" type="string">21:01:02 </i>
 </generator>
 <incar>
  <i type="string" name="SYSTEM">routine with relax: pwdword</i>
  <i type="string" name="PREC">Acc</i>
  <i type="int" name="IALGO">    38</i>
  <i type="string" name="ALGO">A</i>
  <i type="logical" name="ADDGRID"> T  </i>
  <i type="int" name="ICHARG">     2</i>
  <i type="int" name="NELM">   100</i>
  <i type="int" name="NELMIN">     6</i>
  <i name="EDIFF">      0.00000000</i>
  <i type="int" name="NSW">     0</i>
  <i type="int" name="ISIF">    -1</i>
  <i name="ENCUT">    600.00000000</i>
  <i type="logical" name="LREAL"> F  </i>
  <i type="int" name="ISMEAR">     0</i>
  <i name="SIGMA">      0.02000000</i>
  <i type="logical" name="LASPH"> T  </i>
  <i type="string" name="METAGGA">R2SCAN</i>
  <i type="logical" name="LMIXTAU"> F  </i>
 </incar>
 <primitive_cell>
  <structure name="primitive_cell" >
   <crystal>
    <varray name="basis" >
     <v>      -3.81807037       2.60713743       0.00000000 </v>
     <v>       1.78026200       2.60713743       3.37766308 </v>
     <v>       1.78026200       2.60713743      -2.95066692 </v>
    </varray>
    <i name="volume">     92.36591180 </i>
    <varray name="rec_basis" >
     <v>      -0.17862462       0.12197233       0.00000000 </v>
     <v>       0.08328607       0.12196982       0.15801957 </v>
     <v>       0.09533855       0.13962029      -0.15801957 </v>
    </varray>
   </crystal>
   <varray name="positions" >
    <v>       1.00000000       1.00000000       0.00000000 </v>
    <v>       1.00000000       1.00000000       0.50000000 </v>
    <v>       0.50000000       0.50000000       0.50000000 </v>
    <v>       0.50000000       0.50000000       0.00000000 </v>
   </varray>
  </structure>
  <varray name="primitive_index" >
   <v type="int" >        1 </v>
   <v type="int" >        3 </v>
   <v type="int" >        4 </v>
   <v type="int" >        7 </v>
  </varray>
 </primitive_cell>
 <kpoints>
  <generation param="Gamma">
   <v type="int" name="divisions">       7        7        8 </v>
   <v name="usershift">      0.00000000       0.00000000       0.00000000 </v>
   <v name="genvec1">      0.14285714      -0.00000000       0.00000000 </v>
   <v name="genvec2">      0.00000000       0.14285714       0.00000000 </v>
   <v name="genvec3">      0.00000000       0.00000000       0.12500000 </v>
   <v name="shift">      0.00000000       0.00000000       0.00000000 </v>
  </generation>
  <varray name="kpointlist" >
   <v>       0.00000000       0.00000000       0.00000000 </v>
   <v>       0.14285714       0.00000000       0.00000000 </v>
   <v>       0.28571429       0.00000000       0.00000000 </v>
   <v>       0.42857143       0.00000000       0.00000000 </v>
   <v>       0.14285714       0.14285714       0.00000000 </v>
   <v>       0.28571429       0.14285714       0.00000000 </v>
   <v>       0.42857143       0.14285714       0.00000000 </v>
   <v>      -0.42857143       0.14285714       0.00000000 </v>
   <v>      -0.28571429       0.14285714       0.00000000 </v>
   <v>      -0.14285714       0.14285714       0.00000000 </v>
   <v>       0.28571429       0.28571429       0.00000000 </v>
   <v>       0.42857143       0.28571429       0.00000000 </v>
   <v>      -0.42857143       0.28571429       0.00000000 </v>
   <v>      -0.28571429       0.28571429       0.00000000 </v>
   <v>       0.42857143       0.42857143       0.00000000 </v>
   <v>      -0.42857143       0.42857143       0.00000000 </v>
   <v>       0.00000000       0.00000000       0.12500000 </v>
   <v>       0.14285714      -0.00000000       0.12500000 </v>
   <v>       0.28571429       0.00000000       0.12500000 </v>
   <v>       0.42857143       0.00000000       0.12500000 </v>
   <v>      -0.42857143       0.00000000       0.12500000 </v>
   <v>      -0.28571429       0.00000000       0.12500000 </v>
   <v>      -0.14285714      -0.00000000       0.12500000 </v>
   <v>       0.14285714       0.14285714       0.12500000 </v>
   <v>       0.28571429       0.14285714       0.12500000 </v>
   <v>       0.42857143       0.14285714       0.12500000 </v>
   <v>      -0.42857143       0.14285714       0.12500000 </v>
   <v>      -0.28571429       0.14285714       0.12500000 </v>
   <v>      -0.14285714       0.14285714       0.12500000 </v>
   <v>       0.28571429       0.28571429       0.12500000 </v>
   <v>       0.42857143       0.28571429       0.12500000 </v>
   <v>      -0.42857143       0.28571429       0.12500000 </v>
   <v>      -0.28571429       0.28571429       0.12500000 </v>
   <v>      -0.14285714       0.28571429       0.12500000 </v>
   <v>       0.42857143       0.42857143       0.12500000 </v>
   <v>      -0.42857143       0.42857143       0.12500000 </v>
   <v>      -0.28571429       0.42857143       0.12500000 </v>
   <v>      -0.14285714       0.42857143       0.12500000 </v>
   <v>      -0.42857143      -0.42857143       0.12500000 </v>
   <v>      -0.28571429      -0.42857143       0.12500000 </v>
   <v>      -0.14285714      -0.42857143       0.12500000 </v>
   <v>      -0.28571429      -0.28571429       0.12500000 </v>
   <v>      -0.14285714      -0.28571429       0.12500000 </v>
   <v>      -0.14285714      -0.14285714       0.12500000 </v>
   <v>       0.00000000       0.00000000       0.25000000 </v>
   <v>       0.14285714       0.00000000       0.25000000 </v>
   <v>       0.28571429      -0.00000000       0.25000000 </v>
   <v>       0.42857143      -0.00000000       0.25000000 </v>
   <v>      -0.42857143       0.00000000       0.25000000 </v>
   <v>      -0.28571429      -0.00000000       0.25000000 </v>
   <v>      -0.14285714       0.00000000       0.25000000 </v>
   <v>       0.14285714       0.14285714       0.25000000 </v>
   <v>       0.28571429       0.14285714       0.25000000 </v>
   <v>       0.42857143       0.14285714       0.25000000 </v>
   <v>      -0.42857143       0.14285714       0.25000000 </v>
   <v>      -0.28571429       0.14285714       0.25000000 </v>
   <v>      -0.14285714       0.14285714       0.25000000 </v>
   <v>       0.28571429       0.28571429       0.25000000 </v>
   <v>       0.42857143       0.28571429       0.25000000 </v>
   <v>      -0.42857143       0.28571429       0.25000000 </v>
   <v>      -0.28571429       0.28571429       0.25000000 </v>
   <v>      -0.14285714       0.28571429       0.25000000 </v>
   <v>       0.42857143       0.42857143       0.25000000 </v>
   <v>      -0.42857143       0.42857143       0.25000000 </v>
   <v>      -0.28571429       0.42857143       0.25000000 </v>
   <v>      -0.14285714       0.42857143       0.25000000 </v>
   <v>      -0.42857143      -0.42857143       0.25000000 </v>
   <v>      -0.28571429      -0.42857143       0.25000000 </v>
   <v>      -0.14285714      -0.42857143       0.25000000 </v>
   <v>      -0.28571429      -0.28571429       0.25000000 </v>
   <v>      -0.14285714      -0.28571429       0.25000000 </v>
   <v>      -0.14285714      -0.14285714       0.25000000 </v>
   <v>       0.00000000      -0.00000000       0.37500000 </v>
   <v>       0.14285714       0.00000000       0.37500000 </v>
   <v>       0.28571429       0.00000000       0.37500000 </v>
   <v>       0.42857143      -0.00000000       0.37500000 </v>
   <v>      -0.42857143      -0.00000000       0.37500000 </v>
   <v>      -0.28571429       0.00000000       0.37500000 </v>
   <v>      -0.14285714       0.00000000       0.37500000 </v>
   <v>       0.14285714       0.14285714       0.37500000 </v>
   <v>       0.28571429       0.14285714       0.37500000 </v>
   <v>       0.42857143       0.14285714       0.37500000 </v>
   <v>      -0.42857143       0.14285714       0.37500000 </v>
   <v>      -0.28571429       0.14285714       0.37500000 </v>
   <v>      -0.14285714       0.14285714       0.37500000 </v>
   <v>       0.28571429       0.28571429       0.37500000 </v>
   <v>       0.42857143       0.28571429       0.37500000 </v>
   <v>      -0.42857143       0.28571429       0.37500000 </v>
   <v>      -0.28571429       0.28571429       0.37500000 </v>
   <v>      -0.14285714       0.28571429       0.37500000 </v>
   <v>       0.42857143       0.42857143       0.37500000 </v>
   <v>      -0.42857143       0.42857143       0.37500000 </v>
   <v>      -0.28571429       0.42857143       0.37500000 </v>
   <v>      -0.14285714       0.42857143       0.37500000 </v>
   <v>      -0.42857143      -0.42857143       0.37500000 </v>
   <v>      -0.28571429      -0.42857143       0.37500000 </v>
   <v>      -0.14285714      -0.42857143       0.37500000 </v>
   <v>      -0.28571429      -0.28571429       0.37500000 </v>
   <v>      -0.14285714      -0.28571429       0.37500000 </v>
   <v>      -0.14285714      -0.14285714       0.37500000 </v>
   <v>       0.00000000       0.00000000       0.50000000 </v>
   <v>       0.14285714       0.00000000       0.50000000 </v>
   <v>       0.28571429       0.00000000       0.50000000 </v>
   <v>       0.42857143       0.00000000       0.50000000 </v>
   <v>       0.14285714       0.14285714       0.50000000 </v>
   <v>       0.28571429       0.14285714       0.50000000 </v>
   <v>       0.42857143       0.14285714       0.50000000 </v>
   <v>      -0.42857143       0.14285714       0.50000000 </v>
   <v>      -0.28571429       0.14285714       0.50000000 </v>
   <v>      -0.14285714       0.14285714       0.50000000 </v>
   <v>       0.28571429       0.28571429       0.50000000 </v>
   <v>       0.42857143       0.28571429       0.50000000 </v>
   <v>      -0.42857143       0.28571429       0.50000000 </v>
   <v>      -0.28571429       0.28571429       0.50000000 </v>
   <v>       0.42857143       0.42857143       0.50000000 </v>
   <v>      -0.42857143       0.42857143       0.50000000 </v>
  </varray>
  <varray name="weights" >
   <v>       0.00255102 </v>
   <v>       0.01020408 </v>
   <v>       0.01020408 </v>
   <v>       0.01020408 </v>
   <v>       0.00510204 </v>
   <v>       0.01020408 </v>
   <v>       0.01020408 </v>
   <v>       0.01020408 </v>
   <v>       0.01020408 </v>
   <v>       0.00510204 </v>
   <v>       0.00510204 </v>
   <v>       0.01020408 </v>
   <v>       0.01020408 </v>
   <v>       0.00510204 </v>
   <v>       0.00510204 </v>
   <v>       0.00510204 </v>
   <v>       0.00510204 </v>
   <v>       0.01020408 </v>
   <v>       0.01020408 </v>
   <v>       0.01020408 </v>
   <v>       0.01020408 </v>
   <v>       0.01020408 </v>
   <v>       0.01020408 </v>
   <v>       0.00510204 </v>
   <v>       0.01020408 </v>
   <v>       0.01020408 </v>
   <v>       0.01020408 </v>
   <v>       0.01020408 </v>
   <v>       0.01020408 </v>
   <v>       0.00510204 </v>
   <v>       0.01020408 </v>
   <v>       0.01020408 </v>
   <v>       0.01020408 </v>
   <v>       0.01020408 </v>
   <v>       0.00510204 </v>
   <v>       0.01020408 </v>
   <v>       0.01020408 </v>
   <v>       0.01020408 </v>
   <v>       0.00510204 </v>
   <v>       0.01020408 </v>
   <v>       0.01020408 </v>
   <v>       0.00510204 </v>
   <v>       0.01020408 </v>
   <v>       0.00510204 </v>
   <v>       0.00510204 </v>
   <v>       0.01020408 </v>
   <v>       0.01020408 </v>
   <v>       0.01020408 </v>
   <v>       0.01020408 </v>
   <v>       0.01020408 </v>
   <v>       0.01020408 </v>
   <v>       0.00510204 </v>
   <v>       0.01020408 </v>
   <v>       0.01020408 </v>
   <v>       0.01020408 </v>
   <v>       0.01020408 </v>
   <v>       0.01020408 </v>
   <v>       0.00510204 </v>
   <v>       0.01020408 </v>
   <v>       0.01020408 </v>
   <v>       0.01020408 </v>
   <v>       0.01020408 </v>
   <v>       0.00510204 </v>
   <v>       0.01020408 </v>
   <v>       0.01020408 </v>
   <v>       0.01020408 </v>
   <v>       0.00510204 </v>
   <v>       0.01020408 </v>
   <v>       0.01020408 </v>
   <v>       0.00510204 </v>
   <v>       0.01020408 </v>
   <v>       0.00510204 </v>
   <v>       0.00510204 </v>
   <v>       0.01020408 </v>
   <v>       0.01020408 </v>
   <v>       0.01020408 </v>
   <v>       0.01020408 </v>
   <v>       0.01020408 </v>
   <v>       0.01020408 </v>
   <v>       0.00510204 </v>
   <v>       0.01020408 </v>
   <v>       0.01020408 </v>
   <v>       0.01020408 </v>
   <v>       0.01020408 </v>
   <v>       0.01020408 </v>
   <v>       0.00510204 </v>
   <v>       0.01020408 </v>
   <v>       0.01020408 </v>
   <v>       0.01020408 </v>
   <v>       0.01020408 </v>
   <v>       0.00510204 </v>
   <v>       0.01020408 </v>
   <v>       0.01020408 </v>
   <v>       0.01020408 </v>
   <v>       0.00510204 </v>
   <v>       0.01020408 </v>
   <v>       0.01020408 </v>
   <v>       0.00510204 </v>
   <v>       0.01020408 </v>
   <v>       0.00510204 </v>
   <v>       0.00255102 </v>
   <v>       0.01020408 </v>
   <v>       0.01020408 </v>
   <v>       0.01020408 </v>
   <v>       0.00510204 </v>
   <v>       0.01020408 </v>
   <v>       0.01020408 </v>
   <v>       0.01020408 </v>
   <v>       0.01020408 </v>
   <v>       0.00510204 </v>
   <v>       0.00510204 </v>
   <v>       0.01020408 </v>
   <v>       0.01020408 </v>
   <v>       0.00510204 </v>
   <v>       0.00510204 </v>
   <v>       0.00510204 </v>
  </varray>
 </kpoints>
 <parameters>
  <separator name="general" >
   <i type="string" name="SYSTEM">routine with relax: pwdword</i>
   <i type="logical" name="LCOMPAT"> F  </i>
  </separator>
  <separator name="electronic" >
   <i type="string" name="PREC">acc</i>
   <i name="ENMAX">    600.00000000</i>
   <i name="ENAUG">    535.51400000</i>
   <i name="EDIFF">      0.00000000</i>
   <i type="int" name="IALGO">    58</i>
   <i type="int" name="IWAVPR">    10</i>
   <i type="int" name="NBANDS">    42</i>
   <i type="int" name="NBANDSLOW">    -1</i>
   <i type="int" name="NBANDSHIGH">    -1</i>
   <i name="NELECT">     70.00000000</i>
   <i type="int" name="TURBO">     0</i>
   <i type="int" name="IRESTART">     0</i>
   <i type="int" name="NREBOOT">     0</i>
   <i type="int" name="NMIN">     0</i>
   <i name="EREF">      0.00000000</i>
   <separator name="electronic smearing" >
    <i type="int" name="ISMEAR">     0</i>
    <i name="SIGMA">      0.02000000</i>
    <i name="KSPACING">      0.50000000</i>
    <i type="logical" name="KGAMMA"> T  </i>
    <i type="logical" name="KBLOWUP"> F  </i>
   </separator>
   <separator name="electronic projectors" >
    <i type="logical" name="LREAL"> F  </i>
    <v name="ROPT">      0.00000000      0.00000000      0.00000000</v>
    <i type="int" name="LMAXPAW">  -100</i>
    <i type="int" name="LMAXMIX">     2</i>
    <i type="logical" name="NLSPLINE"> F  </i>
   </separator>
   <separator name="electronic startup" >
    <i type="int" name="ISTART">     0</i>
    <i type="int" name="ICHARG">     2</i>
    <i type="int" name="INIWAV">     1</i>
   </separator>
   <separator name="electronic spin" >
    <i type="int" name="ISPIN">     1</i>
    <i type="logical" name="LNONCOLLINEAR"> F  </i>
    <v name="MAGMOM">      1.00000000      1.00000000      1.00000000      1.00000000      1.00000000      1.00000000      1.00000000      1.00000000</v>
    <i name="NUPDOWN">     -1.00000000</i>
    <i type="logical" name="LSORBIT"> F  </i>
    <v name="SAXIS">      0.00000000      0.00000000      1.00000000</v>
    <i type="logical" name="LSPIRAL"> F  </i>
    <v name="QSPIRAL">      0.00000000      0.00000000      0.00000000</v>
    <i type="logical" name="LZEROZ"> F  </i>
   </separator>
   <separator name="electronic exchange-correlation" >
    <i type="logical" name="LASPH"> T  </i>
    <i type="logical" name="LMETAGGA"> F  </i>
   </separator>
   <separator name="electronic convergence" >
    <i type="int" name="NELM">   100</i>
    <i type="int" name="NELMDL">    -5</i>
    <i type="int" name="NELMIN">     6</i>
    <i name="ENINI">    600.00000000</i>
    <separator name="electronic convergence detail" >
     <i type="logical" name="LDIAG"> T  </i>
     <i type="logical" name="LSUBROT"> F  </i>
     <i name="WEIMIN">      0.00000000</i>
     <i name="EBREAK">      0.00000000</i>
     <i name="DEPER">      0.30000000</i>
     <i type="int" name="NRMM">     4</i>
     <i name="TIME">      0.40000000</i>
    </separator>
   </separator>
   <separator name="electronic mixer" >
    <i name="AMIX">      0.40000000</i>
    <i name="BMIX">      1.00000000</i>
    <i name="AMIN">      0.10000000</i>
    <i name="AMIX_MAG">      1.60000000</i>
    <i name="BMIX_MAG">      1.00000000</i>
    <separator name="electronic mixer details" >
     <i type="int" name="IMIX">     4</i>
     <i type="logical" name="MIXFIRST"> F  </i>
     <i type="int" name="MAXMIX">   -45</i>
     <i name="WC">    100.00000000</i>
     <i type="int" name="INIMIX">     1</i>
     <i type="int" name="MIXPRE">     1</i>
     <i type="int" name="MREMOVE">     5</i>
    </separator>
   </separator>
   <separator name="electronic dipolcorrection" >
    <i type="logical" name="LDIPOL"> F  </i>
    <i type="logical" name="LMONO"> F  </i>
    <i type="int" name="IDIPOL">     0</i>
    <i name="EPSILON">      1.00000000</i>
    <v name="DIPOL">   -100.00000000   -100.00000000   -100.00000000</v>
    <i name="EFIELD">      0.00000000</i>
   </separator>
  </separator>
  <separator name="grids" >
   <i type="int" name="NGX">    54</i>
   <i type="int" name="NGY">    54</i>
   <i type="int" name="NGZ">    54</i>
   <i type="int" name="NGXF">   108</i>
   <i type="int" name="NGYF">   108</i>
   <i type="int" name="NGZF">   108</i>
   <i type="logical" name="ADDGRID"> T  </i>
  </separator>
  <separator name="ionic" >
   <i type="int" name="NSW">     0</i>
   <i type="int" name="IBRION">    -1</i>
   <i type="int" name="MDALGO">     0</i>
   <i type="int" name="ISIF">    -1</i>
   <i name="PSTRESS">      0.00000000</i>
   <i name="EDIFFG">      0.00000001</i>
   <i type="int" name="NFREE">     0</i>
   <i name="POTIM">      0.50000000</i>
   <i name="SMASS">     -3.00000000</i>
   <i name="SCALEE">      1.00000000</i>
  </separator>
  <separator name="ionic md" >
   <i name="TEBEG">      0.00010000</i>
   <i name="TEEND">      0.00010000</i>
   <i type="int" name="NBLOCK">     1</i>
   <i type="int" name="KBLOCK">     1</i>
   <i type="int" name="NPACO">   256</i>
   <i name="APACO">     16.00000000</i>
  </separator>
  <separator name="symmetry" >
   <i type="int" name="ISYM">     2</i>
   <i name="SYMPREC">      0.00001000</i>
  </separator>
  <separator name="dos" >
   <i type="int" name="LORBIT">     0</i>
   <v name="RWIGS">     -1.00000000     -1.00000000     -1.00000000</v>
   <i type="int" name="NEDOS">   301</i>
   <i name="EMIN">     10.00000000</i>
   <i name="EMAX">    -10.00000000</i>
   <i name="EFERMI">      0.00000000</i>
  </separator>
  <separator name="writing" >
   <i type="int" name="NWRITE">     2</i>
   <i type="logical" name="LWAVE"> T  </i>
   <i type="logical" name="LDOWNSAMPLE"> F  </i>
   <i type="logical" name="LCHARG"> T  </i>
   <i type="logical" name="LPARD"> F  </i>
   <i type="logical" name="LVTOT"> F  </i>
   <i type="logical" name="LVHAR"> F  </i>
   <i type="logical" name="LELF"> F  </i>
   <i type="logical" name="LOPTICS"> F  </i>
   <v name="STM">      0.00000000      0.00000000      0.00000000      0.00000000      0.00000000      0.00000000      0.00000000</v>
  </separator>
  <separator name="performance" >
   <i type="int" name="NPAR">     6</i>
   <i type="int" name="NSIM">     4</i>
   <i type="int" name="NBLK">    -1</i>
   <i type="logical" name="LPLANE"> T  </i>
   <i type="logical" name="LSCALAPACK"> T  </i>
   <i type="logical" name="LSCAAWARE"> F  </i>
   <i type="logical" name="LSCALU"> F  </i>
   <i type="logical" name="LASYNC"> F  </i>
   <i type="logical" name="LORBITALREAL"> F  </i>
  </separator>
  <separator name="miscellaneous" >
   <i type="int" name="IDIOT">     3</i>
   <i type="int" name="PHON_NSTRUCT">    -1</i>
   <i type="logical" name="LMUSIC"> F  </i>
   <v name="POMASS">     10.81100000     95.94000000     28.08500000</v>
   <v name="DARWINR">      0.00000000      0.00000000      0.00000000</v>
   <v name="DARWINV">      1.00000000      1.00000000      1.00000000</v>
   <i type="logical" name="LCORR"> T  </i>
  </separator>
  <i type="logical" name="GGA_COMPAT"> T  </i>
  <i type="logical" name="LBERRY"> F  </i>
  <i type="int" name="ICORELEVEL">     0</i>
  <i type="logical" name="LDAU"> F  </i>
  <i type="int" name="I_CONSTRAINED_M">     0</i>
  <separator name="electronic exchange-correlation" >
   <i type="string" name="GGA">--</i>
   <i type="int" name="VOSKOWN">     0</i>
   <i type="logical" name="LHFCALC"> F  </i>
   <i type="string" name="PRECFOCK"></i>
   <i type="logical" name="LSYMGRAD"> F  </i>
   <i type="logical" name="LHFONE"> F  </i>
   <i type="logical" name="LRHFCALC"> F  </i>
   <i type="logical" name="LTHOMAS"> F  </i>
   <i type="logical" name="LMODELHF"> F  </i>
   <i type="logical" name="LFOCKACE"> F  </i>
   <i name="ENCUT4O">     -1.00000000</i>
   <i type="int" name="EXXOEP">     0</i>
   <i type="int" name="FOURORBIT">     0</i>
   <i name="AEXX">      0.00000000</i>
   <i name="HFALPHA">      0.00000000</i>
   <i name="MCALPHA">      0.00000000</i>
   <i name="ALDAX">      1.00000000</i>
   <i name="AGGAX">      1.00000000</i>
   <i name="ALDAC">      1.00000000</i>
   <i name="AGGAC">      1.00000000</i>
   <i type="int" name="NKREDX">     1</i>
   <i type="int" name="NKREDY">     1</i>
   <i type="int" name="NKREDZ">     1</i>
   <i type="logical" name="SHIFTRED"> F  </i>
   <i type="logical" name="ODDONLY"> F  </i>
   <i type="logical" name="EVENONLY"> F  </i>
   <i type="int" name="LMAXFOCK">     0</i>
   <i type="int" name="NMAXFOCKAE">     0</i>
   <i type="logical" name="LFOCKAEDFT"> F  </i>
   <i name="HFSCREEN">      0.00000000</i>
   <i name="HFSCREENC">      0.00000000</i>
   <i type="int" name="NBANDSGWLOW">     0</i>
  </separator>
  <separator name="vdW DFT" >
   <i type="logical" name="LUSE_VDW"> F  </i>
   <i name="Zab_VDW">     -0.84910000</i>
   <i name="PARAM1">      0.12340000</i>
   <i name="PARAM2">      1.00000000</i>
   <i name="PARAM3">      0.00000000</i>
  </separator>
  <separator name="model GW" >
   <i type="int" name="MODEL_GW">     0</i>
   <i name="MODEL_EPS0">     13.85488677</i>
   <i name="MODEL_ALPHA">      1.00000000</i>
  </separator>
  <separator name="linear response parameters" >
   <i type="logical" name="LEPSILON"> F  </i>
   <i type="logical" name="LRPA"> F  </i>
   <i type="logical" name="LNABLA"> F  </i>
   <i type="logical" name="LVEL"> F  </i>
   <i type="int" name="KINTER">     0</i>
   <i name="CSHIFT">      0.10000000</i>
   <i name="OMEGAMAX">     -1.00000000</i>
   <i name="DEG_THRESHOLD">      0.00200000</i>
   <i name="RTIME">     -0.10000000</i>
   <i name="WPLASMAI">      0.00000000</i>
   <v name="DFIELD">      0.00000000      0.00000000      0.00000000</v>
   <v name="WPLASMA">      0.00000000      0.00000000      0.00000000      0.00000000      0.00000000      0.00000000      0.00000000      0.00000000      0.00000000</v>
  </separator>
  <separator name="orbital magnetization" >
   <i type="logical" name="NUCIND"> F  </i>
   <v name="MAGPOS">      0.00000000      0.00000000      0.00000000</v>
   <i type="logical" name="LNICSALL"> T  </i>
   <i type="logical" name="ORBITALMAG"> F  </i>
   <i type="logical" name="LMAGBLOCH"> F  </i>
   <i type="logical" name="LCHIMAG"> F  </i>
   <i type="logical" name="LGAUGE"> T  </i>
   <i type="int" name="MAGATOM">     0</i>
   <v name="MAGDIPOL">      0.00000000      0.00000000      0.00000000</v>
   <v name="AVECCONST">      0.00000000      0.00000000      0.00000000</v>
  </separator>
  <separator name="response functions" >
   <i type="logical" name="LFINITE_TEMPERATURE"> F  </i>
   <i type="logical" name="LADDER"> F  </i>
   <i type="logical" name="LRPAFORCE"> F  </i>
   <i type="logical" name="LFXC"> F  </i>
   <i type="logical" name="LHARTREE"> T  </i>
   <i type="int" name="IBSE">     0</i>
   <v type="int" name="KPOINT">    -1     0     0     0</v>
   <i type="logical" name="LTCTC"> F  </i>
   <i type="logical" name="LTCTE"> F  </i>
   <i type="logical" name="LTETE"> F  </i>
   <i type="logical" name="LTRIPLET"> F  </i>
   <i type="logical" name="LFXCEPS"> F  </i>
   <i type="logical" name="LFXHEG"> F  </i>
   <i type="int" name="NATURALO">     2</i>
   <i type="logical" name="LHOLEGF"> F  </i>
   <i type="logical" name="L2ORDER"> F  </i>
   <i type="logical" name="LDMP1"> F  </i>
   <i type="logical" name="LMP2LT"> F  </i>
   <i type="logical" name="LSMP2LT"> F  </i>
   <i type="logical" name="LGWLF"> F  </i>
   <i name="ENCUTGW">     -2.00000000</i>
   <i name="ENCUTGWSOFT">     -2.00000000</i>
   <i name="ENCUTLF">     -1.00000000</i>
   <i type="logical" name="LESF_SPLINES"> F  </i>
   <i type="int" name="LMAXMP2">    -1</i>
   <i name="SCISSOR">      0.00000000</i>
   <i type="int" name="NOMEGA">     0</i>
   <i type="int" name="NOMEGAR">     0</i>
   <i type="int" name="NBANDSGW">    -1</i>
   <i type="int" name="NBANDSO">    -1</i>
   <i type="int" name="NBANDSV">    -1</i>
   <i type="int" name="NELM">   100</i>
   <i type="int" name="NELMHF">     1</i>
   <i type="int" name="DIM">     3</i>
   <i type="int" name="IESPILON">     4</i>
   <i type="int" name="ANTIRES">     0</i>
   <i name="OMEGAMAX">    -30.00000000</i>
   <i name="OMEGAMIN">    -30.00000000</i>
   <i name="OMEGATL">   -200.00000000</i>
   <i type="int" name="OMEGAGRID">     0</i>
   <i name="CSHIFT">     -0.10000000</i>
   <i type="logical" name="LSELFENERGY"> F  </i>
   <i type="logical" name="LSPECTRAL"> F  </i>
   <i type="logical" name="LSPECTRALGW"> F  </i>
   <i type="logical" name="LSINGLES"> F  </i>
   <i type="logical" name="LFERMIGW"> F  </i>
   <i type="logical" name="ODDONLYGW"> F  </i>
   <i type="logical" name="EVENONLYGW"> F  </i>
   <i type="int" name="NKREDLFX">     1</i>
   <i type="int" name="NKREDLFY">     1</i>
   <i type="int" name="NKREDLFZ">     1</i>
   <i type="int" name="MAXMEM">  2800</i>
   <i type="int" name="TELESCOPE">     0</i>
   <i type="int" name="NTAUPAR">    -1</i>
   <i type="int" name="NOMEGAPAR">    -1</i>
   <i name="DAMP_NEWTON">      0.80000001</i>
   <i name="LAMBDA">      1.00000000</i>
  </separator>
  <separator name="External order field" >
   <i name="OFIELD_KAPPA">      0.00000000</i>
   <v name="OFIELD_K">      0.00000000      0.00000000      0.00000000</v>
   <i name="OFIELD_Q6_NEAR">      0.00000000</i>
   <i name="OFIELD_Q6_FAR">      0.00000000</i>
   <i name="OFIELD_A">      0.00000000</i>
  </separator>
 </parameters>
 <atominfo>
  <atoms>       8 </atoms>
  <types>       3 </types>
  <array name="atoms" >
   <dimension dim="1">ion</dimension>
   <field type="string">element</field>
   <field type="int">atomtype</field>
   <set>
    <rc><c>B </c><c>   1</c></rc>
    <rc><c>B </c><c>   1</c></rc>
    <rc><c>Mo</c><c>   2</c></rc>
    <rc><c>Mo</c><c>   2</c></rc>
    <rc><c>Mo</c><c>   2</c></rc>
    <rc><c>Mo</c><c>   2</c></rc>
    <rc><c>Si</c><c>   3</c></rc>
    <rc><c>Si</c><c>   3</c></rc>
   </set>
  </array>
  <array name="atomtypes" >
   <dimension dim="1">type</dimension>
   <field type="int">atomspertype</field>
   <field type="string">element</field>
   <field>mass</field>
   <field>valence</field>
   <field type="string">pseudopotential</field>
   <set>
    <rc><c>   2</c><c>B </c><c>     10.81100000</c><c>      3.00000000</c><c>  PAW_PBE B 06Sep2000                   </c></rc>
    <rc><c>   4</c><c>Mo</c><c>     95.94000000</c><c>     14.00000000</c><c>  PAW_PBE Mo_sv 02Feb2006               </c></rc>
    <rc><c>   2</c><c>Si</c><c>     28.08500000</c><c>      4.00000000</c><c>  PAW_PBE Si 05Jan2001                  </c></rc>
   </set>
  </array>
 </atominfo>
 <structure name="initialpos" >
  <crystal>
   <varray name="basis" >
    <v>       5.59833237       0.00000000      -2.95066692 </v>
    <v>      -2.03780836       5.21427487      -2.95066692 </v>
    <v>       0.00000000       0.00000000       6.32833000 </v>
   </varray>
   <i name="volume">    184.73182360 </i>
   <varray name="rec_basis" >
    <v>       0.17862462       0.06980889       0.00000000 </v>
    <v>       0.00000000       0.19178122       0.00000000 </v>
    <v>       0.08328607       0.12196982       0.15801957 </v>
   </varray>
  </crystal>
  <varray name="positions" >
   <v>       0.50000000       0.50000000       0.00000000 </v>
   <v>       0.00000000       0.00000000       0.00000000 </v>
   <v>       0.25000000       0.25000000       0.00000000 </v>
   <v>       0.25000000       0.75000000       0.50000000 </v>
   <v>       0.75000000       0.75000000       0.00000000 </v>
   <v>       0.75000000       0.25000000       0.50000000 </v>
   <v>       0.50000000       0.00000000       0.50000000 </v>
   <v>       0.00000000       0.50000000       0.50000000 </v>
  </varray>
 </structure>
 <calculation>
  <scstep>
   <time name="total">   20.76   20.99</time>
   <energy>
    <i name="alphaZ">    223.27475057 </i>
    <i name="ewald">  -5089.33813571 </i>
    <i name="hartreedc">  -2280.42607002 </i>
    <i name="XCdc">    303.88075116 </i>
    <i name="pawpsdc">   6194.65714934 </i>
    <i name="pawaedc">  -6160.44322926 </i>
    <i name="eentropy">     -0.00044035 </i>
    <i name="bandstr">   -387.89247347 </i>
    <i name="atom">   7797.60240368 </i>
    <i name="e_fr_energy">    601.31470595 </i>
    <i name="e_wo_entrp">    601.31514629 </i>
    <i name="e_0_energy">    601.31492612 </i>
   </energy>
  </scstep>
  <scstep>
   <time name="total">   20.22   20.45</time>
   <energy>
    <i name="e_fr_energy">   -114.42694131 </i>
    <i name="e_wo_entrp">   -114.42546267 </i>
    <i name="e_0_energy">   -114.42620199 </i>
   </energy>
  </scstep>
  <scstep>
   <time name="total">   22.70   22.95</time>
   <energy>
    <i name="e_fr_energy">   -145.02943613 </i>
    <i name="e_wo_entrp">   -145.02726870 </i>
    <i name="e_0_energy">   -145.02835242 </i>
   </energy>
  </scstep>
  <scstep>
   <time name="total">   21.92   22.15</time>
   <energy>
    <i name="e_fr_energy">   -146.18638336 </i>
    <i name="e_wo_entrp">   -146.18358182 </i>
    <i name="e_0_energy">   -146.18498259 </i>
   </energy>
  </scstep>
  <scstep>
   <time name="total">   24.03   24.29</time>
   <energy>
    <i name="e_fr_energy">   -146.22316650 </i>
    <i name="e_wo_entrp">   -146.22040895 </i>
    <i name="e_0_energy">   -146.22178773 </i>
   </energy>
  </scstep>
  <scstep>
   <time name="total">   24.41   24.69</time>
   <energy>
    <i name="e_fr_energy">    -92.58144854 </i>
    <i name="e_wo_entrp">    -92.57904697 </i>
    <i name="e_0_energy">    -92.58024775 </i>
   </energy>
  </scstep>
  <scstep>
   <time name="total">   26.52   26.76</time>
   <energy>
    <i name="e_fr_energy">   -110.89876782 </i>
    <i name="e_wo_entrp">   -110.89614429 </i>
    <i name="e_0_energy">   -110.89745606 </i>
   </energy>
  </scstep>
  <scstep>
   <time name="total">   27.26   27.50</time>
   <energy>
    <i name="e_fr_energy">   -113.97007342 </i>
    <i name="e_wo_entrp">   -113.96707928 </i>
    <i name="e_0_energy">   -113.96857635 </i>
   </energy>
  </scstep>
  <scstep>
   <time name="total">   27.70   27.94</time>
   <energy>
    <i name="e_fr_energy">   -114.77421052 </i>
    <i name="e_wo_entrp">   -114.77085191 </i>
    <i name="e_0_energy">   -114.77253122 </i>
   </energy>
  </scstep>
  <scstep>
   <time name="total">   26.92   27.16</time>
   <energy>
    <i name="e_fr_energy">   -115.18610486 </i>
    <i name="e_wo_entrp">   -115.18302652 </i>
    <i name="e_0_energy">   -115.18456569 </i>
   </energy>
  </scstep>
  <scstep>
   <time name="total">   25.98   26.21</time>
   <energy>
    <i name="e_fr_energy">   -115.35889163 </i>
    <i name="e_wo_entrp">   -115.35613786 </i>
    <i name="e_0_energy">   -115.35751475 </i>
   </energy>
  </scstep>
  <scstep>
   <time name="total">   28.01   28.25</time>
   <energy>
    <i name="e_fr_energy">   -115.43413405 </i>
    <i name="e_wo_entrp">   -115.43148699 </i>
    <i name="e_0_energy">   -115.43281052 </i>
   </energy>
  </scstep>
  <scstep>
   <time name="total">   25.70   25.92</time>
   <energy>
    <i name="e_fr_energy">   -115.48290495 </i>
    <i name="e_wo_entrp">   -115.47987062 </i>
    <i name="e_0_energy">   -115.48138779 </i>
   </energy>
  </scstep>
  <scstep>
   <time name="total">   27.31   27.56</time>
   <energy>
    <i name="e_fr_energy">   -115.51646353 </i>
    <i name="e_wo_entrp">   -115.51302749 </i>
    <i name="e_0_energy">   -115.51474551 </i>
   </energy>
  </scstep>
  <scstep>
   <time name="total">   28.05   28.29</time>
   <energy>
    <i name="e_fr_energy">   -115.53900399 </i>
    <i name="e_wo_entrp">   -115.53541480 </i>
    <i name="e_0_energy">   -115.53720939 </i>
   </energy>
  </scstep>
  <scstep>
   <time name="total">   26.67   26.91</time>
   <energy>
    <i name="e_fr_energy">   -115.55141982 </i>
    <i name="e_wo_entrp">   -115.54782128 </i>
    <i name="e_0_energy">   -115.54962055 </i>
   </energy>
  </scstep>
  <scstep>
   <time name="total">   28.21   28.45</time>
   <energy>
    <i name="e_fr_energy">   -115.55703906 </i>
    <i name="e_wo_entrp">   -115.55343011 </i>
    <i name="e_0_energy">   -115.55523459 </i>
   </energy>
  </scstep>
  <scstep>
   <time name="total">   29.26   29.51</time>
   <energy>
    <i name="e_fr_energy">   -115.55944762 </i>
    <i name="e_wo_entrp">   -115.55585675 </i>
    <i name="e_0_energy">   -115.55765218 </i>
   </energy>
  </scstep>
  <scstep>
   <time name="total">   26.97   27.20</time>
   <energy>
    <i name="e_fr_energy">   -115.56105366 </i>
    <i name="e_wo_entrp">   -115.55744736 </i>
    <i name="e_0_energy">   -115.55925051 </i>
   </energy>
  </scstep>
  <scstep>
   <time name="total">   26.62   26.85</time>
   <energy>
    <i name="e_fr_energy">   -115.56238051 </i>
    <i name="e_wo_entrp">   -115.55875814 </i>
    <i name="e_0_energy">   -115.56056933 </i>
   </energy>
  </scstep>
  <scstep>
   <time name="total">   27.89   28.13</time>
   <energy>
    <i name="e_fr_energy">   -115.56328047 </i>
    <i name="e_wo_entrp">   -115.55962751 </i>
    <i name="e_0_energy">   -115.56145399 </i>
   </energy>
  </scstep>
  <scstep>
   <time name="total">   27.00   27.24</time>
   <energy>
    <i name="e_fr_energy">   -115.56370868 </i>
    <i name="e_wo_entrp">   -115.56004586 </i>
    <i name="e_0_energy">   -115.56187727 </i>
   </energy>
  </scstep>
  <scstep>
   <time name="total">   26.82   27.05</time>
   <energy>
    <i name="e_fr_energy">   -115.56396952 </i>
    <i name="e_wo_entrp">   -115.56029014 </i>
    <i name="e_0_energy">   -115.56212983 </i>
   </energy>
  </scstep>
  <scstep>
   <time name="total">   27.74   27.99</time>
   <energy>
    <i name="e_fr_energy">   -115.56417215 </i>
    <i name="e_wo_entrp">   -115.56048801 </i>
    <i name="e_0_energy">   -115.56233008 </i>
   </energy>
  </scstep>
  <scstep>
   <time name="total">   28.76   29.08</time>
   <energy>
    <i name="e_fr_energy">   -115.56427894 </i>
    <i name="e_wo_entrp">   -115.56058893 </i>
    <i name="e_0_energy">   -115.56243394 </i>
   </energy>
  </scstep>
  <scstep>
   <time name="total">   27.24   27.48</time>
   <energy>
    <i name="e_fr_energy">   -115.56432590 </i>
    <i name="e_wo_entrp">   -115.56063647 </i>
    <i name="e_0_energy">   -115.56248118 </i>
   </energy>
  </scstep>
  <scstep>
   <time name="total">   26.87   27.11</time>
   <energy>
    <i name="e_fr_energy">   -115.56436991 </i>
    <i name="e_wo_entrp">   -115.56068073 </i>
    <i name="e_0_energy">   -115.56252532 </i>
   </energy>
  </scstep>
  <scstep>
   <time name="total">   28.47   28.72</time>
   <energy>
    <i name="e_fr_energy">   -115.56439822 </i>
    <i name="e_wo_entrp">   -115.56071140 </i>
    <i name="e_0_energy">   -115.56255481 </i>
   </energy>
  </scstep>
  <scstep>
   <time name="total">   27.11   27.35</time>
   <energy>
    <i name="e_fr_energy">   -115.56441213 </i>
    <i name="e_wo_entrp">   -115.56072535 </i>
    <i name="e_0_energy">   -115.56256874 </i>
   </energy>
  </scstep>
  <scstep>
   <time name="total">   27.88   28.13</time>
   <energy>
    <i name="e_fr_energy">   -115.56441742 </i>
    <i name="e_wo_entrp">   -115.56073285 </i>
    <i name="e_0_energy">   -115.56257514 </i>
   </energy>
  </scstep>
  <scstep>
   <time name="total">   28.81   29.06</time>
   <energy>
    <i name="e_fr_energy">   -115.56442215 </i>
    <i name="e_wo_entrp">   -115.56073856 </i>
    <i name="e_0_energy">   -115.56258036 </i>
   </energy>
  </scstep>
  <scstep>
   <time name="total">   27.54   27.78</time>
   <energy>
    <i name="e_fr_energy">   -115.56442515 </i>
    <i name="e_wo_entrp">   -115.56074240 </i>
    <i name="e_0_energy">   -115.56258377 </i>
   </energy>
  </scstep>
  <scstep>
   <time name="total">   27.19   27.43</time>
   <energy>
    <i name="e_fr_energy">   -115.56442666 </i>
    <i name="e_wo_entrp">   -115.56074366 </i>
    <i name="e_0_energy">   -115.56258516 </i>
   </energy>
  </scstep>
  <scstep>
   <time name="total">   27.30   27.54</time>
   <energy>
    <i name="e_fr_energy">   -115.56442742 </i>
    <i name="e_wo_entrp">   -115.56074443 </i>
    <i name="e_0_energy">   -115.56258593 </i>
   </energy>
  </scstep>
  <scstep>
   <time name="total">   28.49   28.74</time>
   <energy>
    <i name="e_fr_energy">   -115.56442809 </i>
    <i name="e_wo_entrp">   -115.56074510 </i>
    <i name="e_0_energy">   -115.56258659 </i>
   </energy>
  </scstep>
  <scstep>
   <time name="total">   27.84   28.08</time>
   <energy>
    <i name="e_fr_energy">   -115.56442841 </i>
    <i name="e_wo_entrp">   -115.56074498 </i>
    <i name="e_0_energy">   -115.56258670 </i>
   </energy>
  </scstep>
  <scstep>
   <time name="total">   28.36   28.61</time>
   <energy>
    <i name="e_fr_energy">   -115.56442862 </i>
    <i name="e_wo_entrp">   -115.56074519 </i>
    <i name="e_0_energy">   -115.56258691 </i>
   </energy>
  </scstep>
  <scstep>
   <time name="total">   28.55   28.80</time>
   <energy>
    <i name="e_fr_energy">   -115.56442881 </i>
    <i name="e_wo_entrp">   -115.56074472 </i>
    <i name="e_0_energy">   -115.56258676 </i>
   </energy>
  </scstep>
  <scstep>
   <time name="total">   27.87   28.11</time>
   <energy>
    <i name="e_fr_energy">   -115.56442880 </i>
    <i name="e_wo_entrp">   -115.56074504 </i>
    <i name="e_0_energy">   -115.56258692 </i>
   </energy>
  </scstep>
  <scstep>
   <time name="total">   28.95   29.21</time>
   <energy>
    <i name="e_fr_energy">   -115.56442900 </i>
    <i name="e_wo_entrp">   -115.56074527 </i>
    <i name="e_0_energy">   -115.56258714 </i>
   </energy>
  </scstep>
  <scstep>
   <time name="total">   27.46   27.71</time>
   <energy>
    <i name="e_fr_energy">   -115.56442901 </i>
    <i name="e_wo_entrp">   -115.56074523 </i>
    <i name="e_0_energy">   -115.56258712 </i>
   </energy>
  </scstep>
  <scstep>
   <time name="total">   26.94   27.17</time>
   <energy>
    <i name="e_fr_energy">   -115.56442902 </i>
    <i name="e_wo_entrp">   -115.56074525 </i>
    <i name="e_0_energy">   -115.56258713 </i>
   </energy>
  </scstep>
  <scstep>
   <time name="total">   28.08   28.33</time>
   <energy>
    <i name="e_fr_energy">   -115.56442903 </i>
    <i name="e_wo_entrp">   -115.56074523 </i>
    <i name="e_0_energy">   -115.56258713 </i>
   </energy>
  </scstep>
  <scstep>
   <time name="total">   29.18   29.43</time>
   <energy>
    <i name="e_fr_energy">   -115.56442904 </i>
    <i name="e_wo_entrp">   -115.56074525 </i>
    <i name="e_0_energy">   -115.56258715 </i>
   </energy>
  </scstep>
  <scstep>
   <time name="total">   28.76   29.01</time>
   <energy>
    <i name="e_fr_energy">   -115.56442904 </i>
    <i name="e_wo_entrp">   -115.56074520 </i>
    <i name="e_0_energy">   -115.56258712 </i>
   </energy>
  </scstep>
  <scstep>
   <time name="total">   27.45   27.69</time>
   <energy>
    <i name="e_fr_energy">   -115.56442904 </i>
    <i name="e_wo_entrp">   -115.56074513 </i>
    <i name="e_0_energy">   -115.56258709 </i>
   </energy>
  </scstep>
  <scstep>
   <time name="total">   27.48   27.72</time>
   <energy>
    <i name="e_fr_energy">   -115.56442907 </i>
    <i name="e_wo_entrp">   -115.56074517 </i>
    <i name="e_0_energy">   -115.56258712 </i>
   </energy>
  </scstep>
  <scstep>
   <time name="total">   33.34   33.64</time>
   <energy>
    <i name="alphaZ">    223.27475057 </i>
    <i name="ewald">  -5089.33813571 </i>
    <i name="hartreedc">  -2196.64543551 </i>
    <i name="XCdc">    309.66844318 </i>
    <i name="pawpsdc">   7378.94649508 </i>
    <i name="pawaedc">  -7355.57329178 </i>
    <i name="eentropy">     -0.00368389 </i>
    <i name="bandstr">  -1183.49597469 </i>
    <i name="atom">   7797.60240368 </i>
    <i name="e_fr_energy">   -115.56442907 </i>
    <i name="e_wo_entrp">   -115.56074518 </i>
    <i name="e_0_energy">   -115.56258712 </i>
   </energy>
  </scstep>
  <structure>
   <crystal>
    <varray name="basis" >
     <v>       5.59833237       0.00000000      -2.95066692 </v>
     <v>      -2.03780836       5.21427487      -2.95066692 </v>
     <v>       0.00000000       0.00000000       6.32833000 </v>
    </varray>
    <i name="volume">    184.73182360 </i>
    <varray name="rec_basis" >
     <v>       0.17862462       0.06980889       0.00000000 </v>
     <v>       0.00000000       0.19178122       0.00000000 </v>
     <v>       0.08328607       0.12196982       0.15801957 </v>
    </varray>
   </crystal>
   <varray name="positions" >
    <v>       0.50000000       0.50000000       0.00000000 </v>
    <v>       0.00000000       0.00000000       0.00000000 </v>
    <v>       0.25000000       0.25000000       0.00000000 </v>
    <v>       0.25000000       0.75000000       0.50000000 </v>
    <v>       0.75000000       0.75000000       0.00000000 </v>
    <v>       0.75000000       0.25000000       0.50000000 </v>
    <v>       0.50000000       0.00000000       0.50000000 </v>
    <v>       0.00000000       0.50000000       0.50000000 </v>
   </varray>
  </structure>
  <varray name="forces" >
   <v>       0.00000000       0.00000000       0.00000000 </v>
   <v>       0.00000000       0.00000000       0.00000000 </v>
   <v>       0.00000000       0.00000000       0.00000000 </v>
   <v>       0.00000000       0.00000000       0.00000000 </v>
   <v>       0.00000000       0.00000000       0.00000000 </v>
   <v>       0.00000000       0.00000000       0.00000000 </v>
   <v>       0.00000000       0.00000000       0.00000000 </v>
   <v>       0.00000000       0.00000000       0.00000000 </v>
  </varray>
  <varray name="stress" >
   <v>       0.00000000       0.00000000       0.00000000 </v>
   <v>       0.00000000       0.00000000       0.00000000 </v>
   <v>       0.00000000       0.00000000       0.00000000 </v>
  </varray>
  <energy>
   <i name="e_fr_energy">   -115.56442907 </i>
   <i name="e_wo_entrp">   -115.56074518 </i>
   <i name="e_0_energy">   -115.56258712 </i>
  </energy>
  <time name="totalsc"> 1304.01 1315.91</time>
  <eigenvalues>
   <array>
    <dimension dim="1">band</dimension>
    <dimension dim="2">kpoint</dimension>
    <dimension dim="3">spin</dimension>
    <field>eigene</field>
    <field>occ</field>
    <set>
     <set comment="spin 1">
      <set comment="kpoint 1">
       <r>  -58.8356    1.0000 </r>
       <r>  -58.8353    1.0000 </r>
       <r>  -58.3107    1.0000 </r>
       <r>  -58.3093    1.0000 </r>
       <r>  -32.1826    1.0000 </r>
       <r>  -32.1826    1.0000 </r>
       <r>  -32.1760    1.0000 </r>
       <r>  -32.1760    1.0000 </r>
       <r>  -32.1641    1.0000 </r>
       <r>  -32.1639    1.0000 </r>
       <r>  -31.8757    1.0000 </r>
       <r>  -31.8442    1.0000 </r>
       <r>  -31.7115    1.0000 </r>
       <r>  -31.7114    1.0000 </r>
       <r>  -31.7076    1.0000 </r>
       <r>  -31.7076    1.0000 </r>
       <r>   -4.8355    1.0000 </r>
       <r>   -2.1257    1.0000 </r>
       <r>   -1.6149    1.0000 </r>
       <r>   -0.6880    1.0000 </r>
       <r>    0.2411    1.0000 </r>
       <r>    0.3299    1.0000 </r>
       <r>    0.3299    1.0000 </r>
       <r>    0.6751    1.0000 </r>
       <r>    1.4357    1.0000 </r>
       <r>    2.3829    1.0000 </r>
       <r>    2.5003    1.0000 </r>
       <r>    2.5654    1.0000 </r>
       <r>    2.6712    1.0000 </r>
       <r>    3.1405    1.0000 </r>
       <r>    3.1405    1.0000 </r>
       <r>    3.3967    1.0000 </r>
       <r>    3.3968    1.0000 </r>
       <r>    3.9047    0.2088 </r>
       <r>    3.9047    0.2088 </r>
       <r>    4.5398    0.0000 </r>
       <r>    4.7052    0.0000 </r>
       <r>    4.7053    0.0000 </r>
       <r>    4.8209    0.0000 </r>
       <r>    4.9954    0.0000 </r>
       <r>    5.6897    0.0000 </r>
       <r>    5.6917    0.0000 </r>
      </set>
      <set comment="kpoint 2">
       <r>  -58.8356    1.0000 </r>
       <r>  -58.8353    1.0000 </r>
       <r>  -58.3107    1.0000 </r>
       <r>  -58.3094    1.0000 </r>
       <r>  -32.1823    1.0000 </r>
       <r>  -32.1794    1.0000 </r>
       <r>  -32.1763    1.0000 </r>
       <r>  -32.1734    1.0000 </r>
       <r>  -32.1641    1.0000 </r>
       <r>  -32.1638    1.0000 </r>
       <r>  -31.8742    1.0000 </r>
       <r>  -31.8458    1.0000 </r>
       <r>  -31.7144    1.0000 </r>
       <r>  -31.7113    1.0000 </r>
       <r>  -31.7108    1.0000 </r>
       <r>  -31.7078    1.0000 </r>
       <r>   -4.7317    1.0000 </r>
       <r>   -2.1297    1.0000 </r>
       <r>   -1.9656    1.0000 </r>
       <r>   -1.0287    1.0000 </r>
       <r>    0.4037    1.0000 </r>
       <r>    0.4702    1.0000 </r>
       <r>    0.7054    1.0000 </r>
       <r>    1.0652    1.0000 </r>
       <r>    1.4970    1.0000 </r>
       <r>    2.4125    1.0000 </r>
       <r>    2.4293    1.0000 </r>
       <r>    2.5613    1.0000 </r>
       <r>    2.7567    1.0000 </r>
       <r>    2.7792    1.0000 </r>
       <r>    2.7963    1.0000 </r>
       <r>    3.8373    1.0000 </r>
       <r>    3.8760    0.8895 </r>
       <r>    3.8846    0.7298 </r>
       <r>    3.9222    0.0201 </r>
       <r>    4.1278    0.0000 </r>
       <r>    4.5632    0.0000 </r>
       <r>    4.6444    0.0000 </r>
       <r>    4.7478    0.0000 </r>
       <r>    4.9668    0.0000 </r>
       <r>    5.1524    0.0000 </r>
       <r>    5.9359    0.0000 </r>
      </set>
      <set comment="kpoint 3">
       <r>  -58.8355    1.0000 </r>
       <r>  -58.8353    1.0000 </r>
       <r>  -58.3105    1.0000 </r>
       <r>  -58.3096    1.0000 </r>
       <r>  -32.1813    1.0000 </r>
       <r>  -32.1772    1.0000 </r>
       <r>  -32.1720    1.0000 </r>
       <r>  -32.1676    1.0000 </r>
       <r>  -32.1639    1.0000 </r>
       <r>  -32.1638    1.0000 </r>
       <r>  -31.8700    1.0000 </r>
       <r>  -31.8503    1.0000 </r>
       <r>  -31.7210    1.0000 </r>
       <r>  -31.7184    1.0000 </r>
       <r>  -31.7108    1.0000 </r>
       <r>  -31.7084    1.0000 </r>
       <r>   -4.4280    1.0000 </r>
       <r>   -2.6365    1.0000 </r>
       <r>   -2.1207    1.0000 </r>
       <r>   -1.5091    1.0000 </r>
       <r>    0.6204    1.0000 </r>
       <r>    0.8472    1.0000 </r>
       <r>    1.5138    1.0000 </r>
       <r>    1.6599    1.0000 </r>
       <r>    1.8717    1.0000 </r>
       <r>    1.9394    1.0000 </r>
       <r>    2.4564    1.0000 </r>
       <r>    2.4851    1.0000 </r>
       <r>    2.6053    1.0000 </r>
       <r>    2.8603    1.0000 </r>
       <r>    3.1106    1.0000 </r>
       <r>    3.2826    1.0000 </r>
       <r>    3.7021    1.0000 </r>
       <r>    3.9592    0.0000 </r>
       <r>    4.0556    0.0000 </r>
       <r>    4.3055    0.0000 </r>
       <r>    4.3179    0.0000 </r>
       <r>    4.3211    0.0000 </r>
       <r>    4.5490    0.0000 </r>
       <r>    4.6480    0.0000 </r>
       <r>    5.0951    0.0000 </r>
       <r>    5.4601    0.0000 </r>
      </set>
      <set comment="kpoint 4">
       <r>  -58.8354    1.0000 </r>
       <r>  -58.8354    1.0000 </r>
       <r>  -58.3103    1.0000 </r>
       <r>  -58.3099    1.0000 </r>
       <r>  -32.1799    1.0000 </r>
       <r>  -32.1785    1.0000 </r>
       <r>  -32.1651    1.0000 </r>
       <r>  -32.1638    1.0000 </r>
       <r>  -32.1638    1.0000 </r>
       <r>  -32.1636    1.0000 </r>
       <r>  -31.8637    1.0000 </r>
       <r>  -31.8567    1.0000 </r>
       <r>  -31.7260    1.0000 </r>
       <r>  -31.7251    1.0000 </r>
       <r>  -31.7101    1.0000 </r>
       <r>  -31.7092    1.0000 </r>
       <r>   -3.9481    1.0000 </r>
       <r>   -3.3313    1.0000 </r>
       <r>   -2.0478    1.0000 </r>
       <r>   -1.8556    1.0000 </r>
       <r>    0.9661    1.0000 </r>
       <r>    1.3863    1.0000 </r>
       <r>    1.4177    1.0000 </r>
       <r>    1.7964    1.0000 </r>
       <r>    2.2196    1.0000 </r>
       <r>    2.2778    1.0000 </r>
       <r>    2.2822    1.0000 </r>
       <r>    2.5336    1.0000 </r>
       <r>    2.7601    1.0000 </r>
       <r>    3.0000    1.0000 </r>
       <r>    3.1366    1.0000 </r>
       <r>    3.5088    1.0000 </r>
       <r>    3.5341    1.0000 </r>
       <r>    3.7150    1.0000 </r>
       <r>    3.7401    1.0000 </r>
       <r>    3.8352    1.0000 </r>
       <r>    4.0863    0.0000 </r>
       <r>    4.2257    0.0000 </r>
       <r>    4.2306    0.0000 </r>
       <r>    4.5463    0.0000 </r>
       <r>    5.1268    0.0000 </r>
       <r>    5.5092    0.0000 </r>
      </set>
      <set comment="kpoint 5">
       <r>  -58.8356    1.0000 </r>
       <r>  -58.8353    1.0000 </r>
       <r>  -58.3105    1.0000 </r>
       <r>  -58.3096    1.0000 </r>
       <r>  -32.1794    1.0000 </r>
       <r>  -32.1790    1.0000 </r>
       <r>  -32.1738    1.0000 </r>
       <r>  -32.1734    1.0000 </r>
       <r>  -32.1641    1.0000 </r>
       <r>  -32.1637    1.0000 </r>
       <r>  -31.8700    1.0000 </r>
       <r>  -31.8502    1.0000 </r>
       <r>  -31.7144    1.0000 </r>
       <r>  -31.7140    1.0000 </r>
       <r>  -31.7113    1.0000 </r>
       <r>  -31.7108    1.0000 </r>
       <r>   -4.5118    1.0000 </r>
       <r>   -2.5159    1.0000 </r>
       <r>   -2.0205    1.0000 </r>
       <r>   -1.5420    1.0000 </r>
       <r>    0.6347    1.0000 </r>
       <r>    0.6640    1.0000 </r>
       <r>    1.4629    1.0000 </r>
       <r>    1.5709    1.0000 </r>
       <r>    1.7835    1.0000 </r>
       <r>    2.1414    1.0000 </r>
       <r>    2.3114    1.0000 </r>
       <r>    2.4933    1.0000 </r>
       <r>    2.6453    1.0000 </r>
       <r>    2.7410    1.0000 </r>
       <r>    2.7621    1.0000 </r>
       <r>    3.3621    1.0000 </r>
       <r>    3.9174    0.0437 </r>
       <r>    3.9365    0.0011 </r>
       <r>    4.2217    0.0000 </r>
       <r>    4.4018    0.0000 </r>
       <r>    4.4490    0.0000 </r>
       <r>    4.5303    0.0000 </r>
       <r>    4.6466    0.0000 </r>
       <r>    4.6799    0.0000 </r>
       <r>    5.3344    0.0000 </r>
       <r>    5.4586    0.0000 </r>
      </set>
      <set comment="kpoint 6">
       <r>  -58.8355    1.0000 </r>
       <r>  -58.8353    1.0000 </r>
       <r>  -58.3102    1.0000 </r>
       <r>  -58.3100    1.0000 </r>
       <r>  -32.1784    1.0000 </r>
       <r>  -32.1743    1.0000 </r>
       <r>  -32.1719    1.0000 </r>
       <r>  -32.1677    1.0000 </r>
       <r>  -32.1641    1.0000 </r>
       <r>  -32.1636    1.0000 </r>
       <r>  -31.8638    1.0000 </r>
       <r>  -31.8565    1.0000 </r>
       <r>  -31.7209    1.0000 </r>
       <r>  -31.7187    1.0000 </r>
       <r>  -31.7137    1.0000 </r>
       <r>  -31.7116    1.0000 </r>
       <r>   -4.1004    1.0000 </r>
       <r>   -3.1202    1.0000 </r>
       <r>   -2.0074    1.0000 </r>
       <r>   -1.9126    1.0000 </r>
       <r>    0.9344    1.0000 </r>
       <r>    1.1310    1.0000 </r>
       <r>    1.6823    1.0000 </r>
       <r>    1.7521    1.0000 </r>
       <r>    2.1305    1.0000 </r>
       <r>    2.2790    1.0000 </r>
       <r>    2.4593    1.0000 </r>
       <r>    2.4875    1.0000 </r>
       <r>    2.6922    1.0000 </r>
       <r>    2.7318    1.0000 </r>
       <r>    2.9237    1.0000 </r>
       <r>    3.1291    1.0000 </r>
       <r>    3.8619    0.9866 </r>
       <r>    3.8924    0.5228 </r>
       <r>    3.9262    0.0099 </r>
       <r>    4.1010    0.0000 </r>
       <r>    4.1211    0.0000 </r>
       <r>    4.1406    0.0000 </r>
       <r>    4.3870    0.0000 </r>
       <r>    4.9102    0.0000 </r>
       <r>    5.2187    0.0000 </r>
       <r>    5.2490    0.0000 </r>
      </set>
      <set comment="kpoint 7">
       <r>  -58.8354    1.0000 </r>
       <r>  -58.8353    1.0000 </r>
       <r>  -58.3103    1.0000 </r>
       <r>  -58.3099    1.0000 </r>
       <r>  -32.1772    1.0000 </r>
       <r>  -32.1755    1.0000 </r>
       <r>  -32.1652    1.0000 </r>
       <r>  -32.1640    1.0000 </r>
       <r>  -32.1635    1.0000 </r>
       <r>  -32.1634    1.0000 </r>
       <r>  -31.8636    1.0000 </r>
       <r>  -31.8569    1.0000 </r>
       <r>  -31.7259    1.0000 </r>
       <r>  -31.7252    1.0000 </r>
       <r>  -31.7130    1.0000 </r>
       <r>  -31.7124    1.0000 </r>
       <r>   -3.7029    1.0000 </r>
       <r>   -3.5275    1.0000 </r>
       <r>   -2.2907    1.0000 </r>
       <r>   -1.7583    1.0000 </r>
       <r>    1.2502    1.0000 </r>
       <r>    1.3369    1.0000 </r>
       <r>    1.5501    1.0000 </r>
       <r>    1.7034    1.0000 </r>
       <r>    2.0527    1.0000 </r>
       <r>    2.1579    1.0000 </r>
       <r>    2.3889    1.0000 </r>
       <r>    2.7412    1.0000 </r>
       <r>    2.8673    1.0000 </r>
       <r>    3.2018    1.0000 </r>
       <r>    3.2779    1.0000 </r>
       <r>    3.3383    1.0000 </r>
       <r>    3.4406    1.0000 </r>
       <r>    3.5680    1.0000 </r>
       <r>    3.6042    1.0000 </r>
       <r>    3.9013    0.2831 </r>
       <r>    3.9587    0.0000 </r>
       <r>    4.2401    0.0000 </r>
       <r>    4.4157    0.0000 </r>
       <r>    4.4191    0.0000 </r>
       <r>    5.0238    0.0000 </r>
       <r>    5.5589    0.0000 </r>
      </set>
      <set comment="kpoint 8">
       <r>  -58.8354    1.0000 </r>
       <r>  -58.8354    1.0000 </r>
       <r>  -58.3106    1.0000 </r>
       <r>  -58.3096    1.0000 </r>
       <r>  -32.1768    1.0000 </r>
       <r>  -32.1759    1.0000 </r>
       <r>  -32.1648    1.0000 </r>
       <r>  -32.1639    1.0000 </r>
       <r>  -32.1638    1.0000 </r>
       <r>  -32.1636    1.0000 </r>
       <r>  -31.8700    1.0000 </r>
       <r>  -31.8505    1.0000 </r>
       <r>  -31.7261    1.0000 </r>
       <r>  -31.7251    1.0000 </r>
       <r>  -31.7132    1.0000 </r>
       <r>  -31.7122    1.0000 </r>
       <r>   -4.2028    1.0000 </r>
       <r>   -2.8458    1.0000 </r>
       <r>   -2.3925    1.0000 </r>
       <r>   -1.5117    1.0000 </r>
       <r>    0.8681    1.0000 </r>
       <r>    0.9688    1.0000 </r>
       <r>    1.6215    1.0000 </r>
       <r>    1.8113    1.0000 </r>
       <r>    1.8841    1.0000 </r>
       <r>    2.2130    1.0000 </r>
       <r>    2.3771    1.0000 </r>
       <r>    2.5612    1.0000 </r>
       <r>    2.8593    1.0000 </r>
       <r>    3.0952    1.0000 </r>
       <r>    3.2862    1.0000 </r>
       <r>    3.3106    1.0000 </r>
       <r>    3.4545    1.0000 </r>
       <r>    3.6552    1.0000 </r>
       <r>    3.8190    1.0000 </r>
       <r>    3.8743    0.9095 </r>
       <r>    4.0586    0.0000 </r>
       <r>    4.2506    0.0000 </r>
       <r>    4.5022    0.0000 </r>
       <r>    4.7004    0.0000 </r>
       <r>    5.2320    0.0000 </r>
       <r>    5.3722    0.0000 </r>
      </set>
      <set comment="kpoint 9">
       <r>  -58.8355    1.0000 </r>
       <r>  -58.8354    1.0000 </r>
       <r>  -58.3108    1.0000 </r>
       <r>  -58.3094    1.0000 </r>
       <r>  -32.1781    1.0000 </r>
       <r>  -32.1747    1.0000 </r>
       <r>  -32.1715    1.0000 </r>
       <r>  -32.1680    1.0000 </r>
       <r>  -32.1639    1.0000 </r>
       <r>  -32.1637    1.0000 </r>
       <r>  -31.8743    1.0000 </r>
       <r>  -31.8461    1.0000 </r>
       <r>  -31.7210    1.0000 </r>
       <r>  -31.7185    1.0000 </r>
       <r>  -31.7138    1.0000 </r>
       <r>  -31.7115    1.0000 </r>
       <r>   -4.5642    1.0000 </r>
       <r>   -2.3595    1.0000 </r>
       <r>   -2.1562    1.0000 </r>
       <r>   -1.1769    1.0000 </r>
       <r>    0.4599    1.0000 </r>
       <r>    0.6711    1.0000 </r>
       <r>    0.9801    1.0000 </r>
       <r>    1.3603    1.0000 </r>
       <r>    1.6987    1.0000 </r>
       <r>    2.2830    1.0000 </r>
       <r>    2.5690    1.0000 </r>
       <r>    2.5820    1.0000 </r>
       <r>    2.9081    1.0000 </r>
       <r>    3.0072    1.0000 </r>
       <r>    3.0480    1.0000 </r>
       <r>    3.5381    1.0000 </r>
       <r>    3.7142    1.0000 </r>
       <r>    3.7743    1.0000 </r>
       <r>    3.9119    0.0931 </r>
       <r>    4.0980    0.0000 </r>
       <r>    4.1156    0.0000 </r>
       <r>    4.3083    0.0000 </r>
       <r>    4.5257    0.0000 </r>
       <r>    5.0737    0.0000 </r>
       <r>    5.1619    0.0000 </r>
       <r>    6.2278    0.0000 </r>
      </set>
      <set comment="kpoint 10">
       <r>  -58.8355    1.0000 </r>
       <r>  -58.8354    1.0000 </r>
       <r>  -58.3108    1.0000 </r>
       <r>  -58.3093    1.0000 </r>
       <r>  -32.1792    1.0000 </r>
       <r>  -32.1789    1.0000 </r>
       <r>  -32.1740    1.0000 </r>
       <r>  -32.1735    1.0000 </r>
       <r>  -32.1639    1.0000 </r>
       <r>  -32.1639    1.0000 </r>
       <r>  -31.8758    1.0000 </r>
       <r>  -31.8443    1.0000 </r>
       <r>  -31.7146    1.0000 </r>
       <r>  -31.7140    1.0000 </r>
       <r>  -31.7112    1.0000 </r>
       <r>  -31.7108    1.0000 </r>
       <r>   -4.7476    1.0000 </r>
       <r>   -2.2529    1.0000 </r>
       <r>   -1.7394    1.0000 </r>
       <r>   -0.8915    1.0000 </r>
       <r>    0.2328    1.0000 </r>
       <r>    0.5911    1.0000 </r>
       <r>    0.6677    1.0000 </r>
       <r>    0.6698    1.0000 </r>
       <r>    1.5472    1.0000 </r>
       <r>    2.4530    1.0000 </r>
       <r>    2.4666    1.0000 </r>
       <r>    2.6499    1.0000 </r>
       <r>    2.7458    1.0000 </r>
       <r>    3.1311    1.0000 </r>
       <r>    3.1938    1.0000 </r>
       <r>    3.4387    1.0000 </r>
       <r>    3.5738    1.0000 </r>
       <r>    3.7761    1.0000 </r>
       <r>    3.7905    1.0000 </r>
       <r>    4.2064    0.0000 </r>
       <r>    4.5318    0.0000 </r>
       <r>    4.6338    0.0000 </r>
       <r>    4.6472    0.0000 </r>
       <r>    5.0893    0.0000 </r>
       <r>    5.5850    0.0000 </r>
       <r>    5.6277    0.0000 </r>
      </set>
      <set comment="kpoint 11">
       <r>  -58.8355    1.0000 </r>
       <r>  -58.8353    1.0000 </r>
       <r>  -58.3104    1.0000 </r>
       <r>  -58.3099    1.0000 </r>
       <r>  -32.1721    1.0000 </r>
       <r>  -32.1707    1.0000 </r>
       <r>  -32.1687    1.0000 </r>
       <r>  -32.1674    1.0000 </r>
       <r>  -32.1641    1.0000 </r>
       <r>  -32.1634    1.0000 </r>
       <r>  -31.8636    1.0000 </r>
       <r>  -31.8570    1.0000 </r>
       <r>  -31.7212    1.0000 </r>
       <r>  -31.7198    1.0000 </r>
       <r>  -31.7198    1.0000 </r>
       <r>  -31.7183    1.0000 </r>
       <r>   -3.6015    1.0000 </r>
       <r>   -3.5535    1.0000 </r>
       <r>   -2.4457    1.0000 </r>
       <r>   -1.7350    1.0000 </r>
       <r>    1.4575    1.0000 </r>
       <r>    1.4907    1.0000 </r>
       <r>    1.5151    1.0000 </r>
       <r>    1.6062    1.0000 </r>
       <r>    1.8672    1.0000 </r>
       <r>    2.1214    1.0000 </r>
       <r>    2.6071    1.0000 </r>
       <r>    2.7502    1.0000 </r>
       <r>    2.7928    1.0000 </r>
       <r>    3.0719    1.0000 </r>
       <r>    3.3377    1.0000 </r>
       <r>    3.3909    1.0000 </r>
       <r>    3.4330    1.0000 </r>
       <r>    3.4897    1.0000 </r>
       <r>    3.7426    1.0000 </r>
       <r>    3.8223    1.0000 </r>
       <r>    3.8969    0.3982 </r>
       <r>    4.2329    0.0000 </r>
       <r>    4.4009    0.0000 </r>
       <r>    4.8736    0.0000 </r>
       <r>    5.0202    0.0000 </r>
       <r>    5.2142    0.0000 </r>
      </set>
      <set comment="kpoint 12">
       <r>  -58.8354    1.0000 </r>
       <r>  -58.8353    1.0000 </r>
       <r>  -58.3107    1.0000 </r>
       <r>  -58.3096    1.0000 </r>
       <r>  -32.1707    1.0000 </r>
       <r>  -32.1690    1.0000 </r>
       <r>  -32.1650    1.0000 </r>
       <r>  -32.1641    1.0000 </r>
       <r>  -32.1633    1.0000 </r>
       <r>  -32.1632    1.0000 </r>
       <r>  -31.8700    1.0000 </r>
       <r>  -31.8508    1.0000 </r>
       <r>  -31.7259    1.0000 </r>
       <r>  -31.7256    1.0000 </r>
       <r>  -31.7199    1.0000 </r>
       <r>  -31.7195    1.0000 </r>
       <r>   -3.9512    1.0000 </r>
       <r>   -2.9796    1.0000 </r>
       <r>   -2.6896    1.0000 </r>
       <r>   -1.5487    1.0000 </r>
       <r>    0.9566    1.0000 </r>
       <r>    1.1772    1.0000 </r>
       <r>    1.7807    1.0000 </r>
       <r>    1.8620    1.0000 </r>
       <r>    2.0035    1.0000 </r>
       <r>    2.3953    1.0000 </r>
       <r>    2.6533    1.0000 </r>
       <r>    2.6696    1.0000 </r>
       <r>    2.9352    1.0000 </r>
       <r>    2.9386    1.0000 </r>
       <r>    3.2373    1.0000 </r>
       <r>    3.2926    1.0000 </r>
       <r>    3.3248    1.0000 </r>
       <r>    3.5018    1.0000 </r>
       <r>    3.5241    1.0000 </r>
       <r>    3.7353    1.0000 </r>
       <r>    4.0737    0.0000 </r>
       <r>    4.3945    0.0000 </r>
       <r>    4.6208    0.0000 </r>
       <r>    4.8244    0.0000 </r>
       <r>    5.1959    0.0000 </r>
       <r>    5.3737    0.0000 </r>
      </set>
      <set comment="kpoint 13">
       <r>  -58.8354    1.0000 </r>
       <r>  -58.8353    1.0000 </r>
       <r>  -58.3109    1.0000 </r>
       <r>  -58.3094    1.0000 </r>
       <r>  -32.1699    1.0000 </r>
       <r>  -32.1697    1.0000 </r>
       <r>  -32.1643    1.0000 </r>
       <r>  -32.1640    1.0000 </r>
       <r>  -32.1640    1.0000 </r>
       <r>  -32.1633    1.0000 </r>
       <r>  -31.8743    1.0000 </r>
       <r>  -31.8464    1.0000 </r>
       <r>  -31.7262    1.0000 </r>
       <r>  -31.7253    1.0000 </r>
       <r>  -31.7201    1.0000 </r>
       <r>  -31.7193    1.0000 </r>
       <r>   -4.2901    1.0000 </r>
       <r>   -2.7165    1.0000 </r>
       <r>   -2.3396    1.0000 </r>
       <r>   -1.3397    1.0000 </r>
       <r>    0.4396    1.0000 </r>
       <r>    0.8152    1.0000 </r>
       <r>    1.4668    1.0000 </r>
       <r>    1.9805    1.0000 </r>
       <r>    2.0024    1.0000 </r>
       <r>    2.2700    1.0000 </r>
       <r>    2.6891    1.0000 </r>
       <r>    2.8128    1.0000 </r>
       <r>    3.0480    1.0000 </r>
       <r>    3.0599    1.0000 </r>
       <r>    3.1487    1.0000 </r>
       <r>    3.3109    1.0000 </r>
       <r>    3.4182    1.0000 </r>
       <r>    3.5674    1.0000 </r>
       <r>    3.7031    1.0000 </r>
       <r>    3.8413    0.9999 </r>
       <r>    3.9739    0.0000 </r>
       <r>    4.2580    0.0000 </r>
       <r>    4.3363    0.0000 </r>
       <r>    5.1593    0.0000 </r>
       <r>    5.2359    0.0000 </r>
       <r>    5.6291    0.0000 </r>
      </set>
      <set comment="kpoint 14">
       <r>  -58.8354    1.0000 </r>
       <r>  -58.8354    1.0000 </r>
       <r>  -58.3109    1.0000 </r>
       <r>  -58.3093    1.0000 </r>
       <r>  -32.1714    1.0000 </r>
       <r>  -32.1701    1.0000 </r>
       <r>  -32.1694    1.0000 </r>
       <r>  -32.1680    1.0000 </r>
       <r>  -32.1640    1.0000 </r>
       <r>  -32.1635    1.0000 </r>
       <r>  -31.8759    1.0000 </r>
       <r>  -31.8447    1.0000 </r>
       <r>  -31.7215    1.0000 </r>
       <r>  -31.7199    1.0000 </r>
       <r>  -31.7195    1.0000 </r>
       <r>  -31.7182    1.0000 </r>
       <r>   -4.5103    1.0000 </r>
       <r>   -2.5816    1.0000 </r>
       <r>   -1.9570    1.0000 </r>
       <r>   -1.1735    1.0000 </r>
       <r>    0.2136    1.0000 </r>
       <r>    0.6505    1.0000 </r>
       <r>    1.1882    1.0000 </r>
       <r>    1.3434    1.0000 </r>
       <r>    1.8375    1.0000 </r>
       <r>    2.4176    1.0000 </r>
       <r>    2.7019    1.0000 </r>
       <r>    2.8804    1.0000 </r>
       <r>    2.9276    1.0000 </r>
       <r>    3.1121    1.0000 </r>
       <r>    3.3369    1.0000 </r>
       <r>    3.4012    1.0000 </r>
       <r>    3.4614    1.0000 </r>
       <r>    3.5003    1.0000 </r>
       <r>    3.9000    0.3142 </r>
       <r>    3.9616    0.0000 </r>
       <r>    4.1010    0.0000 </r>
       <r>    4.1038    0.0000 </r>
       <r>    4.4502    0.0000 </r>
       <r>    5.3096    0.0000 </r>
       <r>    5.3466    0.0000 </r>
       <r>    5.5392    0.0000 </r>
      </set>
      <set comment="kpoint 15">
       <r>  -58.8354    1.0000 </r>
       <r>  -58.8352    1.0000 </r>
       <r>  -58.3110    1.0000 </r>
       <r>  -58.3094    1.0000 </r>
       <r>  -32.1660    1.0000 </r>
       <r>  -32.1646    1.0000 </r>
       <r>  -32.1641    1.0000 </r>
       <r>  -32.1637    1.0000 </r>
       <r>  -32.1631    1.0000 </r>
       <r>  -32.1626    1.0000 </r>
       <r>  -31.8744    1.0000 </r>
       <r>  -31.8465    1.0000 </r>
       <r>  -31.7269    1.0000 </r>
       <r>  -31.7267    1.0000 </r>
       <r>  -31.7246    1.0000 </r>
       <r>  -31.7245    1.0000 </r>
       <r>   -4.1181    1.0000 </r>
       <r>   -2.9268    1.0000 </r>
       <r>   -2.4095    1.0000 </r>
       <r>   -1.4039    1.0000 </r>
       <r>    0.4278    1.0000 </r>
       <r>    0.8320    1.0000 </r>
       <r>    1.8844    1.0000 </r>
       <r>    2.1645    1.0000 </r>
       <r>    2.3007    1.0000 </r>
       <r>    2.4807    1.0000 </r>
       <r>    2.6342    1.0000 </r>
       <r>    2.7791    1.0000 </r>
       <r>    2.9441    1.0000 </r>
       <r>    3.0479    1.0000 </r>
       <r>    3.0710    1.0000 </r>
       <r>    3.3110    1.0000 </r>
       <r>    3.3541    1.0000 </r>
       <r>    3.4176    1.0000 </r>
       <r>    3.4602    1.0000 </r>
       <r>    3.7641    1.0000 </r>
       <r>    4.1728    0.0000 </r>
       <r>    4.1756    0.0000 </r>
       <r>    4.6984    0.0000 </r>
       <r>    4.7497    0.0000 </r>
       <r>    5.1000    0.0000 </r>
       <r>    5.3398    0.0000 </r>
      </set>
      <set comment="kpoint 16">
       <r>  -58.8354    1.0000 </r>
       <r>  -58.8353    1.0000 </r>
       <r>  -58.3110    1.0000 </r>
       <r>  -58.3093    1.0000 </r>
       <r>  -32.1656    1.0000 </r>
       <r>  -32.1650    1.0000 </r>
       <r>  -32.1640    1.0000 </r>
       <r>  -32.1634    1.0000 </r>
       <r>  -32.1631    1.0000 </r>
       <r>  -32.1629    1.0000 </r>
       <r>  -31.8759    1.0000 </r>
       <r>  -31.8449    1.0000 </r>
       <r>  -31.7272    1.0000 </r>
       <r>  -31.7265    1.0000 </r>
       <r>  -31.7248    1.0000 </r>
       <r>  -31.7243    1.0000 </r>
       <r>   -4.2420    1.0000 </r>
       <r>   -2.9253    1.0000 </r>
       <r>   -2.0957    1.0000 </r>
       <r>   -1.3332    1.0000 </r>
       <r>    0.1976    1.0000 </r>
       <r>    0.6360    1.0000 </r>
       <r>    1.8104    1.0000 </r>
       <r>    2.0988    1.0000 </r>
       <r>    2.1606    1.0000 </r>
       <r>    2.3894    1.0000 </r>
       <r>    2.8184    1.0000 </r>
       <r>    3.0165    1.0000 </r>
       <r>    3.0182    1.0000 </r>
       <r>    3.0730    1.0000 </r>
       <r>    3.0997    1.0000 </r>
       <r>    3.1645    1.0000 </r>
       <r>    3.4226    1.0000 </r>
       <r>    3.4974    1.0000 </r>
       <r>    3.7116    1.0000 </r>
       <r>    3.7307    1.0000 </r>
       <r>    3.9192    0.0334 </r>
       <r>    4.2575    0.0000 </r>
       <r>    4.4214    0.0000 </r>
       <r>    4.9228    0.0000 </r>
       <r>    5.0323    0.0000 </r>
       <r>    5.7071    0.0000 </r>
      </set>
      <set comment="kpoint 17">
       <r>  -58.8355    1.0000 </r>
       <r>  -58.8353    1.0000 </r>
       <r>  -58.3108    1.0000 </r>
       <r>  -58.3093    1.0000 </r>
       <r>  -32.1800    1.0000 </r>
       <r>  -32.1796    1.0000 </r>
       <r>  -32.1744    1.0000 </r>
       <r>  -32.1741    1.0000 </r>
       <r>  -32.1639    1.0000 </r>
       <r>  -32.1639    1.0000 </r>
       <r>  -31.8758    1.0000 </r>
       <r>  -31.8443    1.0000 </r>
       <r>  -31.7138    1.0000 </r>
       <r>  -31.7135    1.0000 </r>
       <r>  -31.7104    1.0000 </r>
       <r>  -31.7100    1.0000 </r>
       <r>   -4.7679    1.0000 </r>
       <r>   -2.2238    1.0000 </r>
       <r>   -1.7138    1.0000 </r>
       <r>   -0.8537    1.0000 </r>
       <r>    0.2347    1.0000 </r>
       <r>    0.5338    1.0000 </r>
       <r>    0.6002    1.0000 </r>
       <r>    0.6693    1.0000 </r>
       <r>    1.5217    1.0000 </r>
       <r>    2.4472    1.0000 </r>
       <r>    2.4610    1.0000 </r>
       <r>    2.6304    1.0000 </r>
       <r>    2.7289    1.0000 </r>
       <r>    3.1332    1.0000 </r>
       <r>    3.1815    1.0000 </r>
       <r>    3.4298    1.0000 </r>
       <r>    3.5358    1.0000 </r>
       <r>    3.8061    1.0000 </r>
       <r>    3.8171    1.0000 </r>
       <r>    4.2519    0.0000 </r>
       <r>    4.5886    0.0000 </r>
       <r>    4.6501    0.0000 </r>
       <r>    4.7145    0.0000 </r>
       <r>    5.0321    0.0000 </r>
       <r>    5.6123    0.0000 </r>
       <r>    5.6565    0.0000 </r>
      </set>
      <set comment="kpoint 18">
       <r>  -58.8355    1.0000 </r>
       <r>  -58.8354    1.0000 </r>
       <r>  -58.3108    1.0000 </r>
       <r>  -58.3094    1.0000 </r>
       <r>  -32.1789    1.0000 </r>
       <r>  -32.1751    1.0000 </r>
       <r>  -32.1726    1.0000 </r>
       <r>  -32.1687    1.0000 </r>
       <r>  -32.1639    1.0000 </r>
       <r>  -32.1638    1.0000 </r>
       <r>  -31.8743    1.0000 </r>
       <r>  -31.8460    1.0000 </r>
       <r>  -31.7201    1.0000 </r>
       <r>  -31.7175    1.0000 </r>
       <r>  -31.7132    1.0000 </r>
       <r>  -31.7107    1.0000 </r>
       <r>   -4.5930    1.0000 </r>
       <r>   -2.3205    1.0000 </r>
       <r>   -2.1292    1.0000 </r>
       <r>   -1.1542    1.0000 </r>
       <r>    0.4606    1.0000 </r>
       <r>    0.6349    1.0000 </r>
       <r>    0.9430    1.0000 </r>
       <r>    1.2974    1.0000 </r>
       <r>    1.6647    1.0000 </r>
       <r>    2.2932    1.0000 </r>
       <r>    2.5561    1.0000 </r>
       <r>    2.5608    1.0000 </r>
       <r>    2.8878    1.0000 </r>
       <r>    2.9832    1.0000 </r>
       <r>    3.0070    1.0000 </r>
       <r>    3.5859    1.0000 </r>
       <r>    3.7392    1.0000 </r>
       <r>    3.8055    1.0000 </r>
       <r>    3.9079    0.1509 </r>
       <r>    4.0933    0.0000 </r>
       <r>    4.1647    0.0000 </r>
       <r>    4.3993    0.0000 </r>
       <r>    4.5489    0.0000 </r>
       <r>    5.0267    0.0000 </r>
       <r>    5.1422    0.0000 </r>
       <r>    6.2103    0.0000 </r>
      </set>
      <set comment="kpoint 19">
       <r>  -58.8354    1.0000 </r>
       <r>  -58.8354    1.0000 </r>
       <r>  -58.3106    1.0000 </r>
       <r>  -58.3096    1.0000 </r>
       <r>  -32.1777    1.0000 </r>
       <r>  -32.1763    1.0000 </r>
       <r>  -32.1655    1.0000 </r>
       <r>  -32.1640    1.0000 </r>
       <r>  -32.1639    1.0000 </r>
       <r>  -32.1636    1.0000 </r>
       <r>  -31.8700    1.0000 </r>
       <r>  -31.8505    1.0000 </r>
       <r>  -31.7257    1.0000 </r>
       <r>  -31.7245    1.0000 </r>
       <r>  -31.7126    1.0000 </r>
       <r>  -31.7115    1.0000 </r>
       <r>   -4.2362    1.0000 </r>
       <r>   -2.8217    1.0000 </r>
       <r>   -2.3523    1.0000 </r>
       <r>   -1.5077    1.0000 </r>
       <r>    0.8312    1.0000 </r>
       <r>    0.9568    1.0000 </r>
       <r>    1.6065    1.0000 </r>
       <r>    1.8112    1.0000 </r>
       <r>    1.8604    1.0000 </r>
       <r>    2.1573    1.0000 </r>
       <r>    2.3793    1.0000 </r>
       <r>    2.5568    1.0000 </r>
       <r>    2.8293    1.0000 </r>
       <r>    3.0706    1.0000 </r>
       <r>    3.2669    1.0000 </r>
       <r>    3.3522    1.0000 </r>
       <r>    3.4686    1.0000 </r>
       <r>    3.7093    1.0000 </r>
       <r>    3.8283    1.0000 </r>
       <r>    3.8743    0.9096 </r>
       <r>    4.1012    0.0000 </r>
       <r>    4.2795    0.0000 </r>
       <r>    4.4937    0.0000 </r>
       <r>    4.6827    0.0000 </r>
       <r>    5.2548    0.0000 </r>
       <r>    5.3894    0.0000 </r>
      </set>
      <set comment="kpoint 20">
       <r>  -58.8354    1.0000 </r>
       <r>  -58.8353    1.0000 </r>
       <r>  -58.3103    1.0000 </r>
       <r>  -58.3099    1.0000 </r>
       <r>  -32.1777    1.0000 </r>
       <r>  -32.1763    1.0000 </r>
       <r>  -32.1647    1.0000 </r>
       <r>  -32.1640    1.0000 </r>
       <r>  -32.1635    1.0000 </r>
       <r>  -32.1632    1.0000 </r>
       <r>  -31.8636    1.0000 </r>
       <r>  -31.8569    1.0000 </r>
       <r>  -31.7262    1.0000 </r>
       <r>  -31.7257    1.0000 </r>
       <r>  -31.7123    1.0000 </r>
       <r>  -31.7118    1.0000 </r>
       <r>   -3.7340    1.0000 </r>
       <r>   -3.5085    1.0000 </r>
       <r>   -2.2588    1.0000 </r>
       <r>   -1.7656    1.0000 </r>
       <r>    1.2061    1.0000 </r>
       <r>    1.3339    1.0000 </r>
       <r>    1.5364    1.0000 </r>
       <r>    1.7278    1.0000 </r>
       <r>    2.0787    1.0000 </r>
       <r>    2.1681    1.0000 </r>
       <r>    2.3615    1.0000 </r>
       <r>    2.7222    1.0000 </r>
       <r>    2.8698    1.0000 </r>
       <r>    3.2341    1.0000 </r>
       <r>    3.2787    1.0000 </r>
       <r>    3.3108    1.0000 </r>
       <r>    3.4143    1.0000 </r>
       <r>    3.5754    1.0000 </r>
       <r>    3.6234    1.0000 </r>
       <r>    3.9268    0.0089 </r>
       <r>    3.9804    0.0000 </r>
       <r>    4.2417    0.0000 </r>
       <r>    4.3354    0.0000 </r>
       <r>    4.4206    0.0000 </r>
       <r>    5.0425    0.0000 </r>
       <r>    5.4173    0.0000 </r>
      </set>
      <set comment="kpoint 21">
       <r>  -58.8355    1.0000 </r>
       <r>  -58.8353    1.0000 </r>
       <r>  -58.3102    1.0000 </r>
       <r>  -58.3100    1.0000 </r>
       <r>  -32.1790    1.0000 </r>
       <r>  -32.1751    1.0000 </r>
       <r>  -32.1709    1.0000 </r>
       <r>  -32.1669    1.0000 </r>
       <r>  -32.1641    1.0000 </r>
       <r>  -32.1636    1.0000 </r>
       <r>  -31.8638    1.0000 </r>
       <r>  -31.8566    1.0000 </r>
       <r>  -31.7217    1.0000 </r>
       <r>  -31.7196    1.0000 </r>
       <r>  -31.7130    1.0000 </r>
       <r>  -31.7110    1.0000 </r>
       <r>   -4.0891    1.0000 </r>
       <r>   -3.1401    1.0000 </r>
       <r>   -1.9915    1.0000 </r>
       <r>   -1.9220    1.0000 </r>
       <r>    0.9233    1.0000 </r>
       <r>    1.1636    1.0000 </r>
       <r>    1.6504    1.0000 </r>
       <r>    1.7507    1.0000 </r>
       <r>    2.1666    1.0000 </r>
       <r>    2.2755    1.0000 </r>
       <r>    2.4431    1.0000 </r>
       <r>    2.4749    1.0000 </r>
       <r>    2.7162    1.0000 </r>
       <r>    2.7215    1.0000 </r>
       <r>    2.9397    1.0000 </r>
       <r>    3.1893    1.0000 </r>
       <r>    3.8467    0.9995 </r>
       <r>    3.8684    0.9603 </r>
       <r>    3.8895    0.6051 </r>
       <r>    4.0762    0.0000 </r>
       <r>    4.1087    0.0000 </r>
       <r>    4.1518    0.0000 </r>
       <r>    4.3785    0.0000 </r>
       <r>    4.8735    0.0000 </r>
       <r>    5.2000    0.0000 </r>
       <r>    5.2353    0.0000 </r>
      </set>
      <set comment="kpoint 22">
       <r>  -58.8356    1.0000 </r>
       <r>  -58.8353    1.0000 </r>
       <r>  -58.3105    1.0000 </r>
       <r>  -58.3096    1.0000 </r>
       <r>  -32.1798    1.0000 </r>
       <r>  -32.1785    1.0000 </r>
       <r>  -32.1743    1.0000 </r>
       <r>  -32.1728    1.0000 </r>
       <r>  -32.1641    1.0000 </r>
       <r>  -32.1637    1.0000 </r>
       <r>  -31.8700    1.0000 </r>
       <r>  -31.8502    1.0000 </r>
       <r>  -31.7150    1.0000 </r>
       <r>  -31.7135    1.0000 </r>
       <r>  -31.7118    1.0000 </r>
       <r>  -31.7104    1.0000 </r>
       <r>   -4.5105    1.0000 </r>
       <r>   -2.5182    1.0000 </r>
       <r>   -2.0221    1.0000 </r>
       <r>   -1.5412    1.0000 </r>
       <r>    0.6261    1.0000 </r>
       <r>    0.6755    1.0000 </r>
       <r>    1.4638    1.0000 </r>
       <r>    1.5724    1.0000 </r>
       <r>    1.7846    1.0000 </r>
       <r>    2.1332    1.0000 </r>
       <r>    2.3194    1.0000 </r>
       <r>    2.4947    1.0000 </r>
       <r>    2.6337    1.0000 </r>
       <r>    2.7430    1.0000 </r>
       <r>    2.7762    1.0000 </r>
       <r>    3.3604    1.0000 </r>
       <r>    3.9055    0.1925 </r>
       <r>    3.9455    0.0001 </r>
       <r>    4.2237    0.0000 </r>
       <r>    4.4005    0.0000 </r>
       <r>    4.4264    0.0000 </r>
       <r>    4.5438    0.0000 </r>
       <r>    4.6452    0.0000 </r>
       <r>    4.6790    0.0000 </r>
       <r>    5.3061    0.0000 </r>
       <r>    5.4621    0.0000 </r>
      </set>
      <set comment="kpoint 23">
       <r>  -58.8356    1.0000 </r>
       <r>  -58.8353    1.0000 </r>
       <r>  -58.3107    1.0000 </r>
       <r>  -58.3094    1.0000 </r>
       <r>  -32.1823    1.0000 </r>
       <r>  -32.1802    1.0000 </r>
       <r>  -32.1762    1.0000 </r>
       <r>  -32.1740    1.0000 </r>
       <r>  -32.1641    1.0000 </r>
       <r>  -32.1638    1.0000 </r>
       <r>  -31.8742    1.0000 </r>
       <r>  -31.8458    1.0000 </r>
       <r>  -31.7137    1.0000 </r>
       <r>  -31.7114    1.0000 </r>
       <r>  -31.7101    1.0000 </r>
       <r>  -31.7078    1.0000 </r>
       <r>   -4.7413    1.0000 </r>
       <r>   -2.1163    1.0000 </r>
       <r>   -1.9515    1.0000 </r>
       <r>   -1.0193    1.0000 </r>
       <r>    0.3976    1.0000 </r>
       <r>    0.4586    1.0000 </r>
       <r>    0.6815    1.0000 </r>
       <r>    1.0560    1.0000 </r>
       <r>    1.4851    1.0000 </r>
       <r>    2.4204    1.0000 </r>
       <r>    2.4309    1.0000 </r>
       <r>    2.5685    1.0000 </r>
       <r>    2.7316    1.0000 </r>
       <r>    2.7599    1.0000 </r>
       <r>    2.7843    1.0000 </r>
       <r>    3.8602    0.9903 </r>
       <r>    3.8815    0.7975 </r>
       <r>    3.8859    0.6990 </r>
       <r>    3.9242    0.0142 </r>
       <r>    4.1401    0.0000 </r>
       <r>    4.6183    0.0000 </r>
       <r>    4.6397    0.0000 </r>
       <r>    4.7312    0.0000 </r>
       <r>    4.9540    0.0000 </r>
       <r>    5.2477    0.0000 </r>
       <r>    5.9728    0.0000 </r>
      </set>
      <set comment="kpoint 24">
       <r>  -58.8354    1.0000 </r>
       <r>  -58.8353    1.0000 </r>
       <r>  -58.3106    1.0000 </r>
       <r>  -58.3096    1.0000 </r>
       <r>  -32.1727    1.0000 </r>
       <r>  -32.1714    1.0000 </r>
       <r>  -32.1698    1.0000 </r>
       <r>  -32.1686    1.0000 </r>
       <r>  -32.1638    1.0000 </r>
       <r>  -32.1637    1.0000 </r>
       <r>  -31.8700    1.0000 </r>
       <r>  -31.8505    1.0000 </r>
[...]
       <r>    2.8724    1.0000 </r>
       <r>    2.9345    1.0000 </r>
       <r>    2.9865    1.0000 </r>
       <r>    3.2823    1.0000 </r>
       <r>    3.4094    1.0000 </r>
       <r>    4.5031    0.0000 </r>
       <r>    4.5999    0.0000 </r>
       <r>    4.6886    0.0000 </r>
       <r>    4.8018    0.0000 </r>
       <r>    5.6156    0.0000 </r>
       <r>    5.8097    0.0000 </r>
       <r>    6.1902    0.0000 </r>
      </set>
      <set comment="kpoint 115">
       <r>  -58.8357    1.0000 </r>
       <r>  -58.8352    1.0000 </r>
       <r>  -58.3109    1.0000 </r>
       <r>  -58.3092    1.0000 </r>
       <r>  -32.1827    1.0000 </r>
       <r>  -32.1826    1.0000 </r>
       <r>  -32.1745    1.0000 </r>
       <r>  -32.1744    1.0000 </r>
       <r>  -32.1652    1.0000 </r>
       <r>  -32.1629    1.0000 </r>
       <r>  -31.8735    1.0000 </r>
       <r>  -31.8463    1.0000 </r>
       <r>  -31.7119    1.0000 </r>
       <r>  -31.7119    1.0000 </r>
       <r>  -31.7089    1.0000 </r>
       <r>  -31.7087    1.0000 </r>
       <r>   -3.9372    1.0000 </r>
       <r>   -3.0814    1.0000 </r>
       <r>   -2.6994    1.0000 </r>
       <r>   -0.1448    1.0000 </r>
       <r>    0.0842    1.0000 </r>
       <r>    1.1370    1.0000 </r>
       <r>    1.2037    1.0000 </r>
       <r>    1.5652    1.0000 </r>
       <r>    1.6144    1.0000 </r>
       <r>    1.6171    1.0000 </r>
       <r>    1.6489    1.0000 </r>
       <r>    2.4581    1.0000 </r>
       <r>    2.5072    1.0000 </r>
       <r>    2.5686    1.0000 </r>
       <r>    2.7499    1.0000 </r>
       <r>    3.0051    1.0000 </r>
       <r>    3.0095    1.0000 </r>
       <r>    3.6078    1.0000 </r>
       <r>    3.6239    1.0000 </r>
       <r>    4.7301    0.0000 </r>
       <r>    4.7382    0.0000 </r>
       <r>    4.7787    0.0000 </r>
       <r>    4.9065    0.0000 </r>
       <r>    5.3321    0.0000 </r>
       <r>    5.5975    0.0000 </r>
       <r>    5.9391    0.0000 </r>
      </set>
      <set comment="kpoint 116">
       <r>  -58.8357    1.0000 </r>
       <r>  -58.8352    1.0000 </r>
       <r>  -58.3110    1.0000 </r>
       <r>  -58.3091    1.0000 </r>
       <r>  -32.1827    1.0000 </r>
       <r>  -32.1827    1.0000 </r>
       <r>  -32.1745    1.0000 </r>
       <r>  -32.1743    1.0000 </r>
       <r>  -32.1653    1.0000 </r>
       <r>  -32.1629    1.0000 </r>
       <r>  -31.8750    1.0000 </r>
       <r>  -31.8448    1.0000 </r>
       <r>  -31.7120    1.0000 </r>
       <r>  -31.7118    1.0000 </r>
       <r>  -31.7088    1.0000 </r>
       <r>  -31.7088    1.0000 </r>
       <r>   -4.0035    1.0000 </r>
       <r>   -2.8959    1.0000 </r>
       <r>   -2.7535    1.0000 </r>
       <r>   -0.2472    1.0000 </r>
       <r>    0.4127    1.0000 </r>
       <r>    0.8558    1.0000 </r>
       <r>    1.1588    1.0000 </r>
       <r>    1.2787    1.0000 </r>
       <r>    1.5872    1.0000 </r>
       <r>    1.7923    1.0000 </r>
       <r>    1.7960    1.0000 </r>
       <r>    2.4577    1.0000 </r>
       <r>    2.5129    1.0000 </r>
       <r>    2.5739    1.0000 </r>
       <r>    2.7618    1.0000 </r>
       <r>    2.7771    1.0000 </r>
       <r>    2.7835    1.0000 </r>
       <r>    3.5702    1.0000 </r>
       <r>    3.5855    1.0000 </r>
       <r>    4.7696    0.0000 </r>
       <r>    4.8043    0.0000 </r>
       <r>    4.8150    0.0000 </r>
       <r>    4.9009    0.0000 </r>
       <r>    5.6934    0.0000 </r>
       <r>    5.9422    0.0000 </r>
       <r>    6.2523    0.0000 </r>
      </set>
     </set>
    </set>
   </array>
  </eigenvalues>
  <separator name="orbital magnetization" >
   <v name="MAGDIPOLOUT">      0.00000000      0.00000000      0.00000000</v>
  </separator>
  <dos>
   <i name="efermi">      3.89323471 </i>
   <total>
    <array>
     <dimension dim="1">gridpoints</dimension>
     <dimension dim="2">spin</dimension>
     <field>energy</field>
     <field>total</field>
     <field>integrated</field>
     <set>
      <set comment="spin 1">
       <r>   -62.1079     0.0000     0.0000 </r>
       <r>   -61.8679     0.0000     0.0000 </r>
       <r>   -61.6280     0.0000     0.0000 </r>
       <r>   -61.3880     0.0000     0.0000 </r>
       <r>   -61.1480     0.0000     0.0000 </r>
       <r>   -60.9081     0.0000     0.0000 </r>
       <r>   -60.6681     0.0000     0.0000 </r>
       <r>   -60.4282     0.0000     0.0000 </r>
       <r>   -60.1882     0.0000     0.0000 </r>
       <r>   -59.9483     0.0000     0.0000 </r>
       <r>   -59.7083     0.0000     0.0000 </r>
       <r>   -59.4683     0.0000     0.0000 </r>
       <r>   -59.2284     0.0000     0.0000 </r>
       <r>   -58.9884     0.0000     0.0000 </r>
       <r>   -58.7485    16.6697     4.0000 </r>
       <r>   -58.5085     0.0000     4.0000 </r>
       <r>   -58.2686    16.6419     7.9933 </r>
       <r>   -58.0286     0.0000     8.0000 </r>
       <r>   -57.7887     0.0000     8.0000 </r>
       <r>   -57.5487     0.0000     8.0000 </r>
       <r>   -57.3087     0.0000     8.0000 </r>
       <r>   -57.0688     0.0000     8.0000 </r>
       <r>   -56.8288     0.0000     8.0000 </r>
       <r>   -56.5889     0.0000     8.0000 </r>
       <r>   -56.3489     0.0000     8.0000 </r>
       <r>   -56.1090     0.0000     8.0000 </r>
       <r>   -55.8690     0.0000     8.0000 </r>
       <r>   -55.6291     0.0000     8.0000 </r>
       <r>   -55.3891     0.0000     8.0000 </r>
       <r>   -55.1491     0.0000     8.0000 </r>
       <r>   -54.9092     0.0000     8.0000 </r>
       <r>   -54.6692     0.0000     8.0000 </r>
       <r>   -54.4293     0.0000     8.0000 </r>
       <r>   -54.1893     0.0000     8.0000 </r>
       <r>   -53.9494     0.0000     8.0000 </r>
       <r>   -53.7094     0.0000     8.0000 </r>
       <r>   -53.4695     0.0000     8.0000 </r>
       <r>   -53.2295     0.0000     8.0000 </r>
       <r>   -52.9895     0.0000     8.0000 </r>
       <r>   -52.7496     0.0000     8.0000 </r>
       <r>   -52.5096     0.0000     8.0000 </r>
       <r>   -52.2697     0.0000     8.0000 </r>
       <r>   -52.0297     0.0000     8.0000 </r>
       <r>   -51.7898     0.0000     8.0000 </r>
       <r>   -51.5498     0.0000     8.0000 </r>
       <r>   -51.3098     0.0000     8.0000 </r>
       <r>   -51.0699     0.0000     8.0000 </r>
       <r>   -50.8299     0.0000     8.0000 </r>
       <r>   -50.5900     0.0000     8.0000 </r>
       <r>   -50.3500     0.0000     8.0000 </r>
       <r>   -50.1101     0.0000     8.0000 </r>
       <r>   -49.8701     0.0000     8.0000 </r>
       <r>   -49.6302     0.0000     8.0000 </r>
       <r>   -49.3902     0.0000     8.0000 </r>
       <r>   -49.1502     0.0000     8.0000 </r>
       <r>   -48.9103     0.0000     8.0000 </r>
       <r>   -48.6703     0.0000     8.0000 </r>
       <r>   -48.4304     0.0000     8.0000 </r>
       <r>   -48.1904     0.0000     8.0000 </r>
       <r>   -47.9505     0.0000     8.0000 </r>
       <r>   -47.7105     0.0000     8.0000 </r>
       <r>   -47.4706     0.0000     8.0000 </r>
       <r>   -47.2306     0.0000     8.0000 </r>
       <r>   -46.9906     0.0000     8.0000 </r>
       <r>   -46.7507     0.0000     8.0000 </r>
       <r>   -46.5107     0.0000     8.0000 </r>
       <r>   -46.2708     0.0000     8.0000 </r>
       <r>   -46.0308     0.0000     8.0000 </r>
       <r>   -45.7909     0.0000     8.0000 </r>
       <r>   -45.5509     0.0000     8.0000 </r>
       <r>   -45.3110     0.0000     8.0000 </r>
       <r>   -45.0710     0.0000     8.0000 </r>
       <r>   -44.8310     0.0000     8.0000 </r>
       <r>   -44.5911     0.0000     8.0000 </r>
       <r>   -44.3511     0.0000     8.0000 </r>
       <r>   -44.1112     0.0000     8.0000 </r>
       <r>   -43.8712     0.0000     8.0000 </r>
       <r>   -43.6313     0.0000     8.0000 </r>
       <r>   -43.3913     0.0000     8.0000 </r>
       <r>   -43.1513     0.0000     8.0000 </r>
       <r>   -42.9114     0.0000     8.0000 </r>
       <r>   -42.6714     0.0000     8.0000 </r>
       <r>   -42.4315     0.0000     8.0000 </r>
       <r>   -42.1915     0.0000     8.0000 </r>
       <r>   -41.9516     0.0000     8.0000 </r>
       <r>   -41.7116     0.0000     8.0000 </r>
       <r>   -41.4717     0.0000     8.0000 </r>
       <r>   -41.2317     0.0000     8.0000 </r>
       <r>   -40.9917     0.0000     8.0000 </r>
       <r>   -40.7518     0.0000     8.0000 </r>
       <r>   -40.5118     0.0000     8.0000 </r>
       <r>   -40.2719     0.0000     8.0000 </r>
       <r>   -40.0319     0.0000     8.0000 </r>
       <r>   -39.7920     0.0000     8.0000 </r>
       <r>   -39.5520     0.0000     8.0000 </r>
       <r>   -39.3121     0.0000     8.0000 </r>
       <r>   -39.0721     0.0000     8.0000 </r>
       <r>   -38.8321     0.0000     8.0000 </r>
       <r>   -38.5922     0.0000     8.0000 </r>
       <r>   -38.3522     0.0000     8.0000 </r>
       <r>   -38.1123     0.0000     8.0000 </r>
       <r>   -37.8723     0.0000     8.0000 </r>
       <r>   -37.6324     0.0000     8.0000 </r>
       <r>   -37.3924     0.0000     8.0000 </r>
       <r>   -37.1525     0.0000     8.0000 </r>
       <r>   -36.9125     0.0000     8.0000 </r>
       <r>   -36.6725     0.0000     8.0000 </r>
       <r>   -36.4326     0.0000     8.0000 </r>
       <r>   -36.1926     0.0000     8.0000 </r>
       <r>   -35.9527     0.0000     8.0000 </r>
       <r>   -35.7127     0.0000     8.0000 </r>
       <r>   -35.4728     0.0000     8.0000 </r>
       <r>   -35.2328     0.0000     8.0000 </r>
       <r>   -34.9928     0.0000     8.0000 </r>
       <r>   -34.7529     0.0000     8.0000 </r>
       <r>   -34.5129     0.0000     8.0000 </r>
       <r>   -34.2730     0.0000     8.0000 </r>
       <r>   -34.0330     0.0000     8.0000 </r>
       <r>   -33.7931     0.0000     8.0000 </r>
       <r>   -33.5531     0.0000     8.0000 </r>
       <r>   -33.3132     0.0000     8.0000 </r>
       <r>   -33.0732     0.0000     8.0000 </r>
       <r>   -32.8332     0.0000     8.0000 </r>
       <r>   -32.5933     0.0000     8.0000 </r>
       <r>   -32.3533     0.0000     8.0000 </r>
       <r>   -32.1134    50.0041    19.9988 </r>
       <r>   -31.8734     3.9467    20.9470 </r>
       <r>   -31.6335    33.3395    32.0000 </r>
       <r>   -31.3935     0.0000    32.0000 </r>
       <r>   -31.1536     0.0000    32.0000 </r>
       <r>   -30.9136     0.0000    32.0000 </r>
       <r>   -30.6736     0.0000    32.0000 </r>
       <r>   -30.4337     0.0000    32.0000 </r>
       <r>   -30.1937     0.0000    32.0000 </r>
       <r>   -29.9538     0.0000    32.0000 </r>
       <r>   -29.7138     0.0000    32.0000 </r>
       <r>   -29.4739     0.0000    32.0000 </r>
       <r>   -29.2339     0.0000    32.0000 </r>
       <r>   -28.9940     0.0000    32.0000 </r>
       <r>   -28.7540     0.0000    32.0000 </r>
       <r>   -28.5140     0.0000    32.0000 </r>
       <r>   -28.2741     0.0000    32.0000 </r>
       <r>   -28.0341     0.0000    32.0000 </r>
       <r>   -27.7942     0.0000    32.0000 </r>
       <r>   -27.5542     0.0000    32.0000 </r>
       <r>   -27.3143     0.0000    32.0000 </r>
       <r>   -27.0743     0.0000    32.0000 </r>
       <r>   -26.8343     0.0000    32.0000 </r>
       <r>   -26.5944     0.0000    32.0000 </r>
       <r>   -26.3544     0.0000    32.0000 </r>
       <r>   -26.1145     0.0000    32.0000 </r>
       <r>   -25.8745     0.0000    32.0000 </r>
       <r>   -25.6346     0.0000    32.0000 </r>
       <r>   -25.3946     0.0000    32.0000 </r>
       <r>   -25.1547     0.0000    32.0000 </r>
       <r>   -24.9147     0.0000    32.0000 </r>
       <r>   -24.6747     0.0000    32.0000 </r>
       <r>   -24.4348     0.0000    32.0000 </r>
       <r>   -24.1948     0.0000    32.0000 </r>
       <r>   -23.9549     0.0000    32.0000 </r>
       <r>   -23.7149     0.0000    32.0000 </r>
       <r>   -23.4750     0.0000    32.0000 </r>
       <r>   -23.2350     0.0000    32.0000 </r>
       <r>   -22.9951     0.0000    32.0000 </r>
       <r>   -22.7551     0.0000    32.0000 </r>
       <r>   -22.5151     0.0000    32.0000 </r>
       <r>   -22.2752     0.0000    32.0000 </r>
       <r>   -22.0352     0.0000    32.0000 </r>
       <r>   -21.7953     0.0000    32.0000 </r>
       <r>   -21.5553     0.0000    32.0000 </r>
       <r>   -21.3154     0.0000    32.0000 </r>
       <r>   -21.0754     0.0000    32.0000 </r>
       <r>   -20.8355     0.0000    32.0000 </r>
       <r>   -20.5955     0.0000    32.0000 </r>
       <r>   -20.3555     0.0000    32.0000 </r>
       <r>   -20.1156     0.0000    32.0000 </r>
       <r>   -19.8756     0.0000    32.0000 </r>
       <r>   -19.6357     0.0000    32.0000 </r>
       <r>   -19.3957     0.0000    32.0000 </r>
       <r>   -19.1558     0.0000    32.0000 </r>
       <r>   -18.9158     0.0000    32.0000 </r>
       <r>   -18.6759     0.0000    32.0000 </r>
       <r>   -18.4359     0.0000    32.0000 </r>
       <r>   -18.1959     0.0000    32.0000 </r>
       <r>   -17.9560     0.0000    32.0000 </r>
       <r>   -17.7160     0.0000    32.0000 </r>
       <r>   -17.4761     0.0000    32.0000 </r>
       <r>   -17.2361     0.0000    32.0000 </r>
       <r>   -16.9962     0.0000    32.0000 </r>
       <r>   -16.7562     0.0000    32.0000 </r>
       <r>   -16.5162     0.0000    32.0000 </r>
       <r>   -16.2763     0.0000    32.0000 </r>
       <r>   -16.0363     0.0000    32.0000 </r>
       <r>   -15.7964     0.0000    32.0000 </r>
       <r>   -15.5564     0.0000    32.0000 </r>
       <r>   -15.3165     0.0000    32.0000 </r>
       <r>   -15.0765     0.0000    32.0000 </r>
       <r>   -14.8366     0.0000    32.0000 </r>
       <r>   -14.5966     0.0000    32.0000 </r>
       <r>   -14.3566     0.0000    32.0000 </r>
       <r>   -14.1167     0.0000    32.0000 </r>
       <r>   -13.8767     0.0000    32.0000 </r>
       <r>   -13.6368     0.0000    32.0000 </r>
       <r>   -13.3968     0.0000    32.0000 </r>
       <r>   -13.1569     0.0000    32.0000 </r>
       <r>   -12.9169     0.0000    32.0000 </r>
       <r>   -12.6770     0.0000    32.0000 </r>
       <r>   -12.4370     0.0000    32.0000 </r>
       <r>   -12.1970     0.0000    32.0000 </r>
       <r>   -11.9571     0.0000    32.0000 </r>
       <r>   -11.7171     0.0000    32.0000 </r>
       <r>   -11.4772     0.0000    32.0000 </r>
       <r>   -11.2372     0.0000    32.0000 </r>
       <r>   -10.9973     0.0000    32.0000 </r>
       <r>   -10.7573     0.0000    32.0000 </r>
       <r>   -10.5174     0.0000    32.0000 </r>
       <r>   -10.2774     0.0000    32.0000 </r>
       <r>   -10.0374     0.0000    32.0000 </r>
       <r>    -9.7975     0.0000    32.0000 </r>
       <r>    -9.5575     0.0000    32.0000 </r>
       <r>    -9.3176     0.0000    32.0000 </r>
       <r>    -9.0776     0.0000    32.0000 </r>
       <r>    -8.8377     0.0000    32.0000 </r>
       <r>    -8.5977     0.0000    32.0000 </r>
       <r>    -8.3577     0.0000    32.0000 </r>
       <r>    -8.1178     0.0000    32.0000 </r>
       <r>    -7.8778     0.0000    32.0000 </r>
       <r>    -7.6379     0.0000    32.0000 </r>
       <r>    -7.3979     0.0000    32.0000 </r>
       <r>    -7.1580     0.0000    32.0000 </r>
       <r>    -6.9180     0.0000    32.0000 </r>
       <r>    -6.6781     0.0000    32.0000 </r>
       <r>    -6.4381     0.0000    32.0000 </r>
       <r>    -6.1981     0.0000    32.0000 </r>
       <r>    -5.9582     0.0000    32.0000 </r>
       <r>    -5.7182     0.0000    32.0000 </r>
       <r>    -5.4783     0.0000    32.0000 </r>
       <r>    -5.2383     0.0000    32.0000 </r>
       <r>    -4.9984     0.0000    32.0000 </r>
       <r>    -4.7584     0.0748    32.0179 </r>
       <r>    -4.5185     0.5364    32.2154 </r>
       <r>    -4.2785     0.8655    32.5495 </r>
       <r>    -4.0385     1.6697    33.1711 </r>
       <r>    -3.7986     1.4318    33.7007 </r>
       <r>    -3.5586     0.9505    34.0648 </r>
       <r>    -3.3187     0.6790    34.3568 </r>
       <r>    -3.0787     0.8162    34.7061 </r>
       <r>    -2.8388     1.5654    35.1716 </r>
       <r>    -2.5988     2.9848    36.1601 </r>
       <r>    -2.3589     1.8159    36.8694 </r>
       <r>    -2.1189     1.3920    37.6350 </r>
       <r>    -1.8789     1.5858    38.2224 </r>
       <r>    -1.6390     1.0483    38.5424 </r>
       <r>    -1.3990     1.2455    38.9009 </r>
       <r>    -1.1591     0.7838    39.2238 </r>
       <r>    -0.9191     0.7974    39.5230 </r>
       <r>    -0.6792     0.3550    39.7740 </r>
       <r>    -0.4392     0.3469    39.8588 </r>
       <r>    -0.1992     0.3617    39.9643 </r>
       <r>     0.0407     0.2556    40.0613 </r>
       <r>     0.2807     1.0980    40.4267 </r>
       <r>     0.5206     1.6647    40.9505 </r>
       <r>     0.7606     2.4149    41.6203 </r>
       <r>     1.0005     3.8698    42.9592 </r>
       <r>     1.2405     2.8694    43.9640 </r>
       <r>     1.4804     2.8415    45.0696 </r>
       <r>     1.7204     5.6220    47.1092 </r>
       <r>     1.9604     5.9178    49.2619 </r>
       <r>     2.2003     4.4078    50.8944 </r>
       <r>     2.4403     5.1715    52.8175 </r>
       <r>     2.6802     7.7583    55.6882 </r>
       <r>     2.9202     8.3591    58.6895 </r>
       <r>     3.1601     8.7719    61.5283 </r>
       <r>     3.4001     9.0721    64.6208 </r>
       <r>     3.6400     7.0197    67.4395 </r>
       <r>     3.8800     7.0557    69.7594 </r>
       <r>     4.1200     6.6487    72.5954 </r>
       <r>     4.3599     5.5646    74.7740 </r>
       <r>     4.5999     4.6896    76.8345 </r>
       <r>     4.8398     4.2823    78.5633 </r>
       <r>     5.0798     5.2641    80.1662 </r>
       <r>     5.3197     4.2829    81.8798 </r>
       <r>     5.5597     2.3551    82.8508 </r>
       <r>     5.7996     1.2343    83.3676 </r>
       <r>     6.0396     0.8285    83.7396 </r>
       <r>     6.2796     0.5535    83.9185 </r>
       <r>     6.5195     0.0850    83.9796 </r>
       <r>     6.7595     0.0850    84.0000 </r>
       <r>     6.9994     0.0000    84.0000 </r>
       <r>     7.2394     0.0000    84.0000 </r>
       <r>     7.4793     0.0000    84.0000 </r>
       <r>     7.7193     0.0000    84.0000 </r>
       <r>     7.9593     0.0000    84.0000 </r>
       <r>     8.1992     0.0000    84.0000 </r>
       <r>     8.4392     0.0000    84.0000 </r>
       <r>     8.6791     0.0000    84.0000 </r>
       <r>     8.9191     0.0000    84.0000 </r>
       <r>     9.1590     0.0000    84.0000 </r>
       <r>     9.3990     0.0000    84.0000 </r>
       <r>     9.6389     0.0000    84.0000 </r>
       <r>     9.8789     0.0000    84.0000 </r>
      </set>
     </set>
    </array>
   </total>
  </dos>
 </calculation>
 <structure name="finalpos" >
  <crystal>
   <varray name="basis" >
    <v>       5.59833237       0.00000000      -2.95066692 </v>
    <v>      -2.03780836       5.21427487      -2.95066692 </v>
    <v>       0.00000000       0.00000000       6.32833000 </v>
   </varray>
   <i name="volume">    184.73182360 </i>
   <varray name="rec_basis" >
    <v>       0.17862462       0.06980889       0.00000000 </v>
    <v>       0.00000000       0.19178122       0.00000000 </v>
    <v>       0.08328607       0.12196982       0.15801957 </v>
   </varray>
  </crystal>
  <varray name="positions" >
   <v>       0.50000000       0.50000000       0.00000000 </v>
   <v>       0.00000000       0.00000000       0.00000000 </v>
   <v>       0.25000000       0.25000000       0.00000000 </v>
   <v>       0.25000000       0.75000000       0.50000000 </v>
   <v>       0.75000000       0.75000000       0.00000000 </v>
   <v>       0.75000000       0.25000000       0.50000000 </v>
   <v>       0.50000000       0.00000000       0.50000000 </v>
   <v>       0.00000000       0.50000000       0.50000000 </v>
  </varray>
 </structure>
</modeling>
