 vasp.6.2.0 18Jan21 (build Jan 05 2022 15:41:44) complex                        
  
 executed on             LinuxIFC date 2025.05.07  17:30:41
 running on   24 total cores
 distrk:  each k-point on   12 cores,    2 groups
 distr:  one band on NCORE=   2 cores,    6 groups


--------------------------------------------------------------------------------------------------------


 INCAR:
   SYSTEM = routine with relax: pwdword
   ICHARG = 2
   NPAR = 6
   KPAR = 2
   NCORE = 2
   ADDGRID = T
   PREC = Acc
   ENCUT = 600
   METAGGA = R2SCAN
   LASPH = .TRUE.
   LMIXTAU = .FALSE.
   ALGO = A
   EDIFF = 1E-9
   NELM = 100
   NELMIN = 6
   IALGO = 38
   LREAL = F
   NSW = 0
   ISIF = -1
   ISMEAR = 0
   SIGMA = 0.02
   SYMPREC = 1E-4

 POTCAR:    PAW_PBE B 06Sep2000                   
 POTCAR:    PAW_PBE Mo_sv 02Feb2006               
 POTCAR:    PAW_PBE Si 05Jan2001                  
 -----------------------------------------------------------------------------
|                                                                             |
|           W    W    AA    RRRRR   N    N  II  N    N   GGGG   !!!           |
|           W    W   A  A   R    R  NN   N  II  NN   N  G    G  !!!           |
|           W    W  A    A  R    R  N N  N  II  N N  N  G       !!!           |
|           W WW W  AAAAAA  RRRRR   N  N N  II  N  N N  G  GGG   !            |
|           WW  WW  A    A  R   R   N   NN  II  N   NN  G    G                |
|           W    W  A    A  R    R  N    N  II  N    N   GGGG   !!!           |
|                                                                             |
|     For optimal performance we recommend to set                             |
|       NCORE = 2 up to number-of-cores-per-socket                            |
|     NCORE specifies how many cores store one orbital (NPAR=cpu/NCORE).      |
|     This setting can greatly improve the performance of VASP for DFT.       |
|     The default, NCORE=1 might be grossly inefficient on modern             |
|     multi-core architectures or massively parallel machines. Do your        |
|     own testing! More info at https://www.vasp.at/wiki/index.php/NCORE      |
|     Unfortunately you need to use the default for GW and RPA                |
|     calculations (for HF NCORE is supported but not extensively tested      |
|     yet).                                                                   |
|                                                                             |
 -----------------------------------------------------------------------------

 POTCAR:    PAW_PBE B 06Sep2000                   
   VRHFIN =B: s2p1                                                                                  
   LEXCH  = PE                                                                                      
   EATOM  =    71.1703 eV,    5.2309 Ry                                                             
                                                                                                    
   TITEL  = PAW_PBE B 06Sep2000                                                                     
   LULTRA =        F    use ultrasoft PP ?                                                          
   IUNSCR =        1    unscreen: 0-lin 1-nonlin 2-no                                               
   RPACOR =    1.200    partial core radius                                                         
   POMASS =   10.811; ZVAL   =    3.000    mass and valenz                                          
   RCORE  =    1.700    outmost cutoff radius                                                       
   RWIGS  =    1.710; RWIGS  =    0.905    wigner-seitz radius (au A)                               
   ENMAX  =  318.614; ENMIN  =  238.960 eV                                                          
   ICORE  =        2    local potential                                                             
   LCOR   =        T    correct aug charges                                                         
   LPAW   =        T    paw PP                                                                      
   EAUG   =  535.514                                                                                
   DEXC   =    0.000                                                                                
   RMAX   =    1.732    core radius for proj-oper                                                   
   RAUG   =    1.300    factor for augmentation sphere                                              
   RDEP   =    1.757    radius for radial grids                                                     
   RDEPT  =    1.436    core radius for aug-charge                                                  
                                                                                                    
   Atomic configuration                                                                             
    4 entries                                                                                       
     n  l   j            E        occ.                                                              
     1  0  0.50      -180.5896   2.0000                                                             
     2  0  0.50        -9.4431   2.0000                                                             
     2  1  0.50        -3.6068   1.0000                                                             
     3  2  1.50        -4.0817   0.0000                                                             
   Description                                                                                      
     l       E           TYP  RCUT    TYP  RCUT                                                     
     0     -9.4430752     23  1.500                                                                 
     0      0.8675899     23  1.500                                                                 
     1     -3.6067955     23  1.700                                                                 
     1      6.1086146     23  1.700                                                                 
     2     -4.0817478      7  1.700                                                                 
  local pseudopotential read in
  partial core-charges read in
  partial kinetic energy density read in
  atomic valenz-charges read in
  non local Contribution for L=           0  read in
    real space projection operators read in
  non local Contribution for L=           0  read in
    real space projection operators read in
  non local Contribution for L=           1  read in
    real space projection operators read in
  non local Contribution for L=           1  read in
    real space projection operators read in
    PAW grid and wavefunctions read in
 
   number of l-projection  operators is LMAX  =           4
   number of lm-projection operators is LMMAX =           8
 
 POTCAR:    PAW_PBE Mo_sv 02Feb2006               
   VRHFIN =Mo: 4p5s4d                                                                               
   LEXCH  = PE                                                                                      
   EATOM  =  1862.2866 eV,  136.8742 Ry                                                             
                                                                                                    
   TITEL  = PAW_PBE Mo_sv 02Feb2006                                                                 
   LULTRA =        F    use ultrasoft PP ?                                                          
   IUNSCR =        1    unscreen: 0-lin 1-nonlin 2-no                                               
   RPACOR =    2.200    partial core radius                                                         
   POMASS =   95.940; ZVAL   =   14.000    mass and valenz                                          
   RCORE  =    2.500    outmost cutoff radius                                                       
   RWIGS  =    2.750; RWIGS  =    1.455    wigner-seitz radius (au A)                               
   ENMAX  =  242.676; ENMIN  =  182.007 eV                                                          
   ICORE  =        3    local potential                                                             
   LCOR   =        T    correct aug charges                                                         
   LPAW   =        T    paw PP                                                                      
   EAUG   =  446.014                                                                                
   DEXC   =    0.000                                                                                
   RMAX   =    2.563    core radius for proj-oper                                                   
   RAUG   =    1.300    factor for augmentation sphere                                              
   RDEP   =    2.641    radius for radial grids                                                     
   RDEPT  =    2.031    core radius for aug-charge                                                  
                                                                                                    
   Atomic configuration                                                                             
   11 entries                                                                                       
     n  l   j            E        occ.                                                              
     1  0  0.50    -19819.0341   2.0000                                                             
     2  0  0.50     -2799.0127   2.0000                                                             
     2  1  1.50     -2502.0276   6.0000                                                             
     3  0  0.50      -476.4449   2.0000                                                             
     3  1  1.50      -379.1496   6.0000                                                             
     3  2  2.50      -220.9367  10.0000                                                             
     4  0  0.50       -64.3378   2.0000                                                             
     5  0  0.50        -4.0862   1.0000                                                             
     4  1  1.50       -38.4773   6.0000                                                             
     4  2  2.50        -3.7535   5.0000                                                             
     4  3  2.50        -1.3606   0.0000                                                             
   Description                                                                                      
     l       E           TYP  RCUT    TYP  RCUT                                                     
     0    -64.3377829     23  2.100                                                                 
     0     -4.0861640     23  2.400                                                                 
     1    -38.4772993     23  2.100                                                                 
     1     13.6058260     23  2.100                                                                 
     2     -3.7534941     23  2.400                                                                 
     2     -5.1140767     23  2.400                                                                 
     3     -4.0817478     23  2.500                                                                 
  local pseudopotential read in
  partial core-charges read in
  partial kinetic energy density read in
  atomic valenz-charges read in
  non local Contribution for L=           0  read in
    real space projection operators read in
  non local Contribution for L=           0  read in
    real space projection operators read in
  non local Contribution for L=           1  read in
    real space projection operators read in
  non local Contribution for L=           1  read in
    real space projection operators read in
  non local Contribution for L=           2  read in
    real space projection operators read in
  non local Contribution for L=           2  read in
    real space projection operators read in
    PAW grid and wavefunctions read in
 
   number of l-projection  operators is LMAX  =           6
   number of lm-projection operators is LMMAX =          18
 
 POTCAR:    PAW_PBE Si 05Jan2001                  
   VRHFIN =Si: s2p2                                                                                 
   LEXCH  = PE                                                                                      
   EATOM  =   103.0669 eV,    7.5752 Ry                                                             
                                                                                                    
   TITEL  = PAW_PBE Si 05Jan2001                                                                    
   LULTRA =        F    use ultrasoft PP ?                                                          
   IUNSCR =        1    unscreen: 0-lin 1-nonlin 2-no                                               
   RPACOR =    1.500    partial core radius                                                         
   POMASS =   28.085; ZVAL   =    4.000    mass and valenz                                          
   RCORE  =    1.900    outmost cutoff radius                                                       
   RWIGS  =    2.480; RWIGS  =    1.312    wigner-seitz radius (au A)                               
   ENMAX  =  245.345; ENMIN  =  184.009 eV                                                          
   ICORE  =        2    local potential                                                             
   LCOR   =        T    correct aug charges                                                         
   LPAW   =        T    paw PP                                                                      
   EAUG   =  322.069                                                                                
   DEXC   =    0.000                                                                                
   RMAX   =    1.950    core radius for proj-oper                                                   
   RAUG   =    1.300    factor for augmentation sphere                                              
   RDEP   =    1.993    radius for radial grids                                                     
   RDEPT  =    1.837    core radius for aug-charge                                                  
                                                                                                    
   Atomic configuration                                                                             
    6 entries                                                                                       
     n  l   j            E        occ.                                                              
     1  0  0.50     -1785.8828   2.0000                                                             
     2  0  0.50      -139.4969   2.0000                                                             
     2  1  1.50       -95.5546   6.0000                                                             
     3  0  0.50       -10.8127   2.0000                                                             
     3  1  0.50        -4.0811   2.0000                                                             
     3  2  1.50        -4.0817   0.0000                                                             
   Description                                                                                      
     l       E           TYP  RCUT    TYP  RCUT                                                     
     0    -10.8127223     23  1.900                                                                 
     0     -7.6451159     23  1.900                                                                 
     1     -4.0811372     23  1.900                                                                 
     1      2.4879257     23  1.900                                                                 
     2     -4.0817478      7  1.900                                                                 
  local pseudopotential read in
  partial core-charges read in
  partial kinetic energy density read in
  atomic valenz-charges read in
  non local Contribution for L=           0  read in
    real space projection operators read in
  non local Contribution for L=           0  read in
    real space projection operators read in
  non local Contribution for L=           1  read in
    real space projection operators read in
  non local Contribution for L=           1  read in
    real space projection operators read in
    PAW grid and wavefunctions read in
 
   number of l-projection  operators is LMAX  =           4
   number of lm-projection operators is LMMAX =           8
 
  PAW_PBE B 06Sep2000                   :
 energy of atom  1       EATOM=  -71.1703
 kinetic energy error for atom=    0.0007 (will be added to EATOM!!)
  PAW_PBE Mo_sv 02Feb2006               :
 energy of atom  2       EATOM=-1862.2866
 kinetic energy error for atom=    0.0041 (will be added to EATOM!!)
  PAW_PBE Si 05Jan2001                  :
 energy of atom  3       EATOM= -103.0669
 kinetic energy error for atom=    0.0003 (will be added to EATOM!!)
 
 
 POSCAR: EA98
  positions in direct lattice
  No initial velocities read in

 METAGGA = R2SCA    LMAXTAU =  6    LMIXTAU =  F

 exchange correlation table for  LEXCH =        8
   RHO(1)=    0.500       N(1)  =     2000
   RHO(2)=  100.500       N(2)  =     4000
 


--------------------------------------------------------------------------------------------------------


 ion  position               nearest neighbor table
   1  0.229  0.729  0.959-  10 2.09   8 2.09   7 2.37  13 2.37
   2  0.771  0.271  0.041-  12 2.09   9 2.09   5 2.37  14 2.37
   3  0.729  0.771  0.500-   7 2.09  14 2.09  10 2.37   9 2.37
   4  0.271  0.229  0.500-   5 2.09  13 2.09  12 2.37   8 2.37
   5  0.504  0.260  0.764-   4 2.09  11 2.13  15 2.31   2 2.37   9 3.01   8 3.01  14 3.22  13 3.31

   6  0.000  0.000  0.000-  13 2.13  14 2.13  10 2.13  12 2.13
   7  0.496  0.740  0.236-   3 2.09  11 2.13  15 2.31   1 2.37   8 3.01   9 3.01  13 3.22  14 3.31

   8  0.260  0.496  0.756-   1 2.09  11 2.13  16 2.31   4 2.37   7 3.01   5 3.01  12 3.22  10 3.31

   9  0.740  0.504  0.244-   2 2.09  11 2.13  16 2.31   3 2.37   5 3.01   7 3.01  10 3.22  12 3.31

  10  0.996  0.760  0.756-   1 2.09   6 2.13  16 2.31   3 2.37  13 3.01  14 3.01   9 3.22   8 3.31

  11  0.500  0.500  0.000-   5 2.13   7 2.13   8 2.13   9 2.13
  12  0.004  0.240  0.244-   2 2.09   6 2.13  16 2.31   4 2.37  14 3.01  13 3.01   8 3.22   9 3.31

  13  0.240  0.996  0.236-   4 2.09   6 2.13  15 2.31   1 2.37  10 3.01  12 3.01   7 3.22   5 3.31

  14  0.760  0.004  0.764-   3 2.09   6 2.13  15 2.31   2 2.37  12 3.01  10 3.01   5 3.22   7 3.31

  15  0.500  0.000  0.500-   5 2.31   7 2.31  13 2.31  14 2.31
  16  0.000  0.500  0.500-   8 2.31   9 2.31  10 2.31  12 2.31
 
  LATTYP: Found a body centered tetragonal cell.
 ALAT       =     8.8752944112
 C/A-ratio  =     0.8623529646
  
  Lattice vectors:
  
 A1 = (   7.0753334749,   0.0000000000,  -1.9922513496)
 A2 = (  -4.0576743596,   5.7961730971,  -1.9922513496)
 A3 = (   0.0000000000,   0.0000000000,   7.3504700000)


Analysis of symmetry for initial positions (statically):
=====================================================================
 Subroutine PRICEL returns:
 Original cell was already a primitive cell.
 

 Routine SETGRP: Setting up the symmetry group for a 
 body centered tetragonal supercell.


 Subroutine GETGRP returns: Found 16 space group operations
 (whereof  8 operations were pure point group operations)
 out of a pool of 16 trial point group operations.


The static configuration has the point symmetry C_4h.
 The point group associated with its full space group is D_4h.


Analysis of symmetry for dynamics (positions and initial velocities):
=====================================================================
 Subroutine PRICEL returns:
 Original cell was already a primitive cell.
 

 Routine SETGRP: Setting up the symmetry group for a 
 body centered tetragonal supercell.


 Subroutine GETGRP returns: Found 16 space group operations
 (whereof  8 operations were pure point group operations)
 out of a pool of 16 trial point group operations.


The dynamic configuration has the point symmetry C_4h.
 The point group associated with its full space group is D_4h.


 Subroutine INISYM returns: Found 16 space group operations
 (whereof  8 operations are pure point group operations),
 and found     1 'primitive' translations


----------------------------------------------------------------------------------------

                                     Primitive cell                                     

  volume of cell :     301.4417

  direct lattice vectors                    reciprocal lattice vectors
     7.075333475  0.000000000 -1.992251350     0.141336094  0.098943878  0.000000000
    -4.057674360  5.796173097 -1.992251350     0.000000000  0.172527629  0.000000000
     0.000000000  0.000000000  7.350470000     0.038307350  0.073578897  0.136045722

  length of vectors
     7.350470000  7.350470000  7.350470000     0.172527629  0.172527629  0.159341601

  position of ions in fractional coordinates (direct lattice)
     0.229390000  0.729390000  0.958780000
     0.770610000  0.270610000  0.041220000
     0.729390000  0.770610000  0.500000000
     0.270610000  0.229390000  0.500000000
     0.503780000  0.260170000  0.763960000
     0.000000000  0.000000000  0.000000000
     0.496220000  0.739830000  0.236040000
     0.260170000  0.496220000  0.756390000
     0.739830000  0.503780000  0.243610000
     0.996220000  0.760170000  0.756390000
     0.500000000  0.500000000  0.000000000
     0.003780000  0.239830000  0.243610000
     0.239830000  0.996220000  0.236040000
     0.760170000  0.003780000  0.763960000
     0.500000000  0.000000000  0.500000000
     0.000000000  0.500000000  0.500000000

  ion indices of the primitive-cell ions
   primitive index   ion index
                 1           1
                 2           2
                 3           3
                 4           4
                 5           5
                 6           6
                 7           7
                 8           8
                 9           9
                10          10
                11          11
                12          12
                13          13
                14          14
                15          15
                16          16

----------------------------------------------------------------------------------------

 
 
 KPOINTS: EA                                      

Automatic generation of k-mesh.
 Grid dimensions read from file:
 generate k-points for:    6    6    6

 Generating k-lattice:

  Cartesian coordinates                     Fractional coordinates (reciprocal lattice)
     0.023556016  0.016490646  0.000000000     0.166666667  0.000000000  0.000000000
     0.000000000  0.028754605  0.000000000     0.000000000  0.166666667  0.000000000
     0.006384558  0.012263150  0.022674287     0.000000000  0.000000000  0.166666667

  Length of vectors
     0.028754605  0.028754605  0.026556933

  Shift w.r.t. Gamma in fractional coordinates (k-lattice)
     0.000000000  0.000000000  0.000000000

 
 Subroutine IBZKPT returns following result:
 ===========================================
 
 Found     30 irreducible k-points:
 
 Following reciprocal coordinates:
            Coordinates               Weight
  0.000000  0.000000  0.000000      1.000000
  0.166667 -0.000000  0.000000      8.000000
  0.333333  0.000000  0.000000      8.000000
  0.500000  0.000000  0.000000      4.000000
  0.166667  0.166667  0.000000      8.000000
  0.333333  0.166667  0.000000     16.000000
  0.500000  0.166667  0.000000     16.000000
 -0.333333  0.166667  0.000000     16.000000
 -0.166667  0.166667  0.000000      4.000000
  0.333333  0.333333  0.000000      8.000000
  0.500000  0.333333  0.000000     16.000000
 -0.333333  0.333333  0.000000      4.000000
  0.500000  0.500000  0.000000      2.000000
  0.166667  0.166667  0.166667      8.000000
  0.333333  0.166667  0.166667      8.000000
 -0.166667  0.166667  0.166667      4.000000
  0.333333  0.333333  0.166667      4.000000
 -0.333333  0.333333  0.166667      8.000000
 -0.166667  0.333333  0.166667      8.000000
  0.500000  0.500000  0.166667      4.000000
 -0.333333  0.500000  0.166667     16.000000
 -0.166667  0.500000  0.166667      8.000000
 -0.333333 -0.333333  0.166667      8.000000
 -0.166667 -0.333333  0.166667      8.000000
 -0.166667 -0.166667  0.166667      2.000000
 -0.333333  0.333333  0.333333      4.000000
  0.500000  0.500000  0.333333      4.000000
 -0.333333  0.500000  0.333333      8.000000
 -0.333333 -0.333333  0.333333      2.000000
  0.500000  0.500000  0.500000      1.000000
 
 Following cartesian coordinates:
            Coordinates               Weight
  0.000000  0.000000  0.000000      1.000000
  0.023556  0.016491  0.000000      8.000000
  0.047112  0.032981  0.000000      8.000000
  0.070668  0.049472  0.000000      4.000000
  0.023556  0.045245  0.000000      8.000000
  0.047112  0.061736  0.000000     16.000000
  0.070668  0.078227  0.000000     16.000000
 -0.047112 -0.004227  0.000000     16.000000
 -0.023556  0.012264  0.000000      4.000000
  0.047112  0.090491  0.000000      8.000000
  0.070668  0.106981  0.000000     16.000000
 -0.047112  0.024528  0.000000      4.000000
  0.070668  0.135736  0.000000      2.000000
  0.029941  0.057508  0.022674      8.000000
  0.053497  0.073999  0.022674      8.000000
 -0.017171  0.024527  0.022674      4.000000
  0.053497  0.102754  0.022674      4.000000
 -0.040727  0.036791  0.022674      8.000000
 -0.017171  0.053282  0.022674      8.000000
  0.077053  0.147999  0.022674      4.000000
 -0.040727  0.065546  0.022674     16.000000
 -0.017171  0.082036  0.022674      8.000000
 -0.040727 -0.078227  0.022674      8.000000
 -0.017171 -0.061737  0.022674      8.000000
 -0.017171 -0.032982  0.022674      2.000000
 -0.034343  0.049054  0.045349      4.000000
  0.083437  0.160262  0.045349      4.000000
 -0.034343  0.077809  0.045349      8.000000
 -0.034343 -0.065964  0.045349      2.000000
  0.089822  0.172525  0.068023      1.000000
 


--------------------------------------------------------------------------------------------------------




 Dimension of arrays:
   k-points           NKPTS =     30   k-points in BZ     NKDIM =     30   number of bands    NBANDS=     96
   number of dos      NEDOS =    301   number of ions     NIONS =     16
   non local maximal  LDIM  =      6   non local SUM 2l+1 LMDIM =     18
   total plane-waves  NPLWV = 216000
   max r-space proj   IRMAX =      1   max aug-charges    IRDMAX= 250859
   dimension x,y,z NGX =    60 NGY =   60 NGZ =   60
   dimension x,y,z NGXF=   120 NGYF=  120 NGZF=  120
   support grid    NGXF=   240 NGYF=  240 NGZF=  240
   ions per type =               4  10   2
   NGX,Y,Z   is equivalent  to a cutoff of  13.57, 13.57, 13.57 a.u.
   NGXF,Y,Z  is equivalent  to a cutoff of  27.14, 27.14, 27.14 a.u.

 SYSTEM =  routine with relax: pwdword             
 POSCAR =  EA98                                    

 Startparameter for this run:
   NWRITE =      2    write-flag & timer
   PREC   = acc       normal or accurate (medium, high low for compatibility)
   ISTART =      0    job   : 0-new  1-cont  2-samecut
   ICHARG =      2    charge: 1-file 2-atom 10-const
   ISPIN  =      1    spin polarized calculation?
   LNONCOLLINEAR =      F non collinear calculations
   LSORBIT =      F    spin-orbit coupling
   INIWAV =      1    electr: 0-lowe 1-rand  2-diag
   LASPH  =      T    aspherical Exc in radial PAW
   METAGGA=      F    non-selfconsistent MetaGGA calc.

 Electronic Relaxation 1
   ENCUT  =  600.0 eV  44.10 Ry    6.64 a.u.  14.68 14.68 14.68*2*pi/ulx,y,z
   ENINI  =  600.0     initial cutoff
   ENAUG  =  535.5 eV  augmentation charge cutoff
   NELM   =    100;   NELMIN=  6; NELMDL= -5     # of ELM steps 
   EDIFF  = 0.1E-08   stopping-criterion for ELM
   LREAL  =      F    real-space projection
   NLSPLINE    = F    spline interpolate recip. space projectors
   LCOMPAT=      F    compatible to vasp.4.4
   GGA_COMPAT  = T    GGA compatible to vasp.4.4-vasp.4.6
   LMAXPAW     = -100 max onsite density
   LMAXMIX     =    2 max onsite mixed and CHGCAR
   VOSKOWN=      0    Vosko Wilk Nusair interpolation
   ROPT   =    0.00000   0.00000   0.00000
 Ionic relaxation
   EDIFFG = 0.1E-07   stopping-criterion for IOM
   NSW    =      0    number of steps for IOM
   NBLOCK =      1;   KBLOCK =      1    inner block; outer block 
   IBRION =     -1    ionic relax: 0-MD 1-quasi-New 2-CG
   NFREE  =      0    steps in history (QN), initial steepest desc. (CG)
   ISIF   =     -1    stress and relaxation
   IWAVPR =     10    prediction:  0-non 1-charg 2-wave 3-comb
   ISYM   =      2    0-nonsym 1-usesym 2-fastsym
   LCORR  =      T    Harris-Foulkes like correction to forces

   POTIM  = 0.5000    time-step for ionic-motion
   TEIN   =    0.0    initial temperature
   TEBEG  =    0.0;   TEEND  =   0.0 temperature during run
   SMASS  =  -3.00    Nose mass-parameter (am)
   estimated Nose-frequenzy (Omega)   =  0.10E-29 period in steps = 0.13E+47 mass=  -0.123E-26a.u.
   SCALEE = 1.0000    scale energy and forces
   NPACO  =    256;   APACO  = 16.0  distance and # of slots for P.C.
   PSTRESS=    0.0 pullay stress

  Mass of Ions in am
   POMASS =  10.81 95.94 28.09
  Ionic Valenz
   ZVAL   =   3.00 14.00  4.00
  Atomic Wigner-Seitz radii
   RWIGS  =  -1.00 -1.00 -1.00
  virtual crystal weights 
   VCA    =   1.00  1.00  1.00
   NELECT =     160.0000    total number of electrons
   NUPDOWN=      -1.0000    fix difference up-down

 DOS related values:
   EMIN   =  10.00;   EMAX   =-10.00  energy-range for DOS
   EFERMI =   0.00
   ISMEAR =     0;   SIGMA  =   0.02  broadening in eV -4-tet -1-fermi 0-gaus

 Electronic relaxation 2 (details)
   IALGO  =     58    algorithm
   LDIAG  =      T    sub-space diagonalisation (order eigenvalues)
   LSUBROT=      F    optimize rotation matrix (better conditioning)
   TURBO    =      0    0=normal 1=particle mesh
   IRESTART =      0    0=no restart 2=restart with 2 vectors
   NREBOOT  =      0    no. of reboots
   NMIN     =      0    reboot dimension
   EREF     =   0.00    reference energy to select bands
   IMIX   =      4    mixing-type and parameters
     AMIX     =   0.40;   BMIX     =  1.00
     AMIX_MAG =   1.60;   BMIX_MAG =  1.00
     AMIN     =   0.10
     WC   =   100.;   INIMIX=   1;  MIXPRE=   1;  MAXMIX= -45

 Intra band minimization:
   WEIMIN = 0.0000     energy-eigenvalue tresh-hold
   EBREAK =  0.26E-11  absolut break condition
   DEPER  =   0.30     relativ break condition  

   TIME   =   0.40     timestep for ELM

  volume/ion in A,a.u.               =      18.84       127.14
  Fermi-wavevector in a.u.,A,eV,Ry     =   1.325502  2.504835 23.904829  1.756955
  Thomas-Fermi vector in A             =   2.454958
 
 Write flags
   LWAVE        =      T    write WAVECAR
   LDOWNSAMPLE  =      F    k-point downsampling of WAVECAR
   LCHARG       =      T    write CHGCAR
   LVTOT        =      F    write LOCPOT, total local potential
   LVHAR        =      F    write LOCPOT, Hartree potential only
   LELF         =      F    write electronic localiz. function (ELF)
   LORBIT       =      0    0 simple, 1 ext, 2 COOP (PROOUT), +10 PAW based schemes


 Dipole corrections
   LMONO  =      F    monopole corrections only (constant potential shift)
   LDIPOL =      F    correct potential (dipole corrections)
   IDIPOL =      0    1-x, 2-y, 3-z, 4-all directions 
   EPSILON=  1.0000000 bulk dielectric constant

 Exchange correlation treatment:
   GGA     =    --    GGA type
   LEXCH   =     8    internal setting for exchange type
   VOSKOWN=      0    Vosko Wilk Nusair interpolation
   LHFCALC =     F    Hartree Fock is set to
   LHFONE  =     F    Hartree Fock one center treatment
   AEXX    =    0.0000 exact exchange contribution

 Linear response parameters
   LEPSILON=     F    determine dielectric tensor
   LRPA    =     F    only Hartree local field effects (RPA)
   LNABLA  =     F    use nabla operator in PAW spheres
   LVEL    =     F    velocity operator in full k-point grid
   LINTERFAST=   F  fast interpolation
   KINTER  =     0    interpolate to denser k-point grid
   CSHIFT  =0.1000    complex shift for real part using Kramers Kronig
   OMEGAMAX=  -1.0    maximum frequency
   DEG_THRESHOLD= 0.2000000E-02 threshold for treating states as degnerate
   RTIME   =   -0.100 relaxation time in fs
  (WPLASMAI=    0.000 imaginary part of plasma frequency in eV, 0.658/RTIME)
   DFIELD  = 0.0000000 0.0000000 0.0000000 field for delta impulse in time
 
 Orbital magnetization related:
   ORBITALMAG=     F  switch on orbital magnetization
   LCHIMAG   =     F  perturbation theory with respect to B field
   DQ        =  0.001000  dq finite difference perturbation B field
   LLRAUG    =     F  two centre corrections for induced B field



--------------------------------------------------------------------------------------------------------


 Static calculation
 charge density and potential will be updated during run
 non-spin polarized calculation
 Conjugate gradient for all bands (Freysoldt, et al. PRB 79, 241103 (2009))
 preconditioned conjugated gradient                                        
 perform sub-space diagonalisation
    before iterative eigenvector-optimisation
 modified Broyden-mixing scheme, WC =      100.0
 initial mixing is a Kerker type mixing with AMIX =  0.4000 and BMIX =      1.0000
 Hartree-type preconditioning will be used
 using additional bands           16
 reciprocal scheme for non local part
 use partial core corrections
 no Harris-corrections to forces 
 use gradient corrections 
 use of overlap-Matrix (Vanderbilt PP)
 Gauss-broadening in eV      SIGMA  =   0.02


--------------------------------------------------------------------------------------------------------


  energy-cutoff  :      600.00
  volume of cell :      301.44
      direct lattice vectors                 reciprocal lattice vectors
     7.075333475  0.000000000 -1.992251350     0.141336094  0.098943878  0.000000000
    -4.057674360  5.796173097 -1.992251350     0.000000000  0.172527629  0.000000000
     0.000000000  0.000000000  7.350470000     0.038307350  0.073578897  0.136045722

  length of vectors
     7.350470000  7.350470000  7.350470000     0.172527629  0.172527629  0.159341601


 
 k-points in units of 2pi/SCALE and weight: EA                                      
   0.00000000  0.00000000  0.00000000       0.005
   0.02355602  0.01649065  0.00000000       0.037
   0.04711203  0.03298129  0.00000000       0.037
   0.07066805  0.04947194  0.00000000       0.019
   0.02355602  0.04524525  0.00000000       0.037
   0.04711203  0.06173590  0.00000000       0.074
   0.07066805  0.07822654  0.00000000       0.074
  -0.04711203 -0.00422669  0.00000000       0.074
  -0.02355602  0.01226396  0.00000000       0.019
   0.04711203  0.09049050  0.00000000       0.037
   0.07066805  0.10698115  0.00000000       0.074
  -0.04711203  0.02452792  0.00000000       0.019
   0.07066805  0.13573575  0.00000000       0.009
   0.02994057  0.05750840  0.02267429       0.037
   0.05349659  0.07399905  0.02267429       0.037
  -0.01717146  0.02452711  0.02267429       0.019
   0.05349659  0.10275365  0.02267429       0.019
  -0.04072747  0.03679107  0.02267429       0.037
  -0.01717146  0.05328171  0.02267429       0.037
   0.07705261  0.14799890  0.02267429       0.019
  -0.04072747  0.06554567  0.02267429       0.074
  -0.01717146  0.08203632  0.02267429       0.037
  -0.04072747 -0.07822735  0.02267429       0.037
  -0.01717146 -0.06173671  0.02267429       0.037
  -0.01717146 -0.03298210  0.02267429       0.009
  -0.03434291  0.04905422  0.04534857       0.019
   0.08343716  0.16026205  0.04534857       0.019
  -0.03434291  0.07780882  0.04534857       0.037
  -0.03434291 -0.06596420  0.04534857       0.009
   0.08982172  0.17252520  0.06802286       0.005
 
 k-points in reciprocal lattice and weights: EA                                      
   0.00000000  0.00000000  0.00000000       0.005
   0.16666667 -0.00000000  0.00000000       0.037
   0.33333333  0.00000000  0.00000000       0.037
   0.50000000  0.00000000  0.00000000       0.019
   0.16666667  0.16666667  0.00000000       0.037
   0.33333333  0.16666667  0.00000000       0.074
   0.50000000  0.16666667  0.00000000       0.074
  -0.33333333  0.16666667  0.00000000       0.074
  -0.16666667  0.16666667  0.00000000       0.019
   0.33333333  0.33333333  0.00000000       0.037
   0.50000000  0.33333333  0.00000000       0.074
  -0.33333333  0.33333333  0.00000000       0.019
   0.50000000  0.50000000  0.00000000       0.009
   0.16666667  0.16666667  0.16666667       0.037
   0.33333333  0.16666667  0.16666667       0.037
  -0.16666667  0.16666667  0.16666667       0.019
   0.33333333  0.33333333  0.16666667       0.019
  -0.33333333  0.33333333  0.16666667       0.037
  -0.16666667  0.33333333  0.16666667       0.037
   0.50000000  0.50000000  0.16666667       0.019
  -0.33333333  0.50000000  0.16666667       0.074
  -0.16666667  0.50000000  0.16666667       0.037
  -0.33333333 -0.33333333  0.16666667       0.037
  -0.16666667 -0.33333333  0.16666667       0.037
  -0.16666667 -0.16666667  0.16666667       0.009
  -0.33333333  0.33333333  0.33333333       0.019
   0.50000000  0.50000000  0.33333333       0.019
  -0.33333333  0.50000000  0.33333333       0.037
  -0.33333333 -0.33333333  0.33333333       0.009
   0.50000000  0.50000000  0.50000000       0.005
 
 position of ions in fractional coordinates (direct lattice) 
   0.22939000  0.72939000  0.95878000
   0.77061000  0.27061000  0.04122000
   0.72939000  0.77061000  0.50000000
   0.27061000  0.22939000  0.50000000
   0.50378000  0.26017000  0.76396000
   0.00000000  0.00000000  0.00000000
   0.49622000  0.73983000  0.23604000
   0.26017000  0.49622000  0.75639000
   0.73983000  0.50378000  0.24361000
   0.99622000  0.76017000  0.75639000
   0.50000000  0.50000000  0.00000000
   0.00378000  0.23983000  0.24361000
   0.23983000  0.99622000  0.23604000
   0.76017000  0.00378000  0.76396000
   0.50000000  0.00000000  0.50000000
   0.00000000  0.50000000  0.50000000
 
 position of ions in cartesian coordinates  (Angst):
  -1.33661636  4.22767070  5.13735288
   4.35427547  1.56850240 -1.77138558
   2.03379304  4.46658895  0.68685798
   0.98386607  1.32958415  2.67910933
   2.50872636  1.50799035  4.09348464
   0.00000000  0.00000000  0.00000000
   0.50893276  4.28818274 -0.72751734
  -0.17270966  2.87617701  4.05290300
   3.19036878  2.91999608 -0.68693570
   3.96406640  4.40607690  2.06065166
   1.50882956  2.89808655 -1.99225135
  -0.94640728  1.39009619  1.30531565
  -2.34545912  5.77426356 -0.72751734
   5.36311824  0.02190953  4.09348464
   3.53766674  0.00000000  2.67910933
  -2.02883718  2.89808655  2.67910933
 


--------------------------------------------------------------------------------------------------------


 k-point   1 :   0.0000 0.0000 0.0000  plane waves:   10087
 k-point   2 :   0.1667-0.0000 0.0000  plane waves:   10070
 k-point   3 :   0.3333 0.0000 0.0000  plane waves:   10069
 k-point   4 :   0.5000 0.0000 0.0000  plane waves:   10078
 k-point   5 :   0.1667 0.1667 0.0000  plane waves:   10072
 k-point   6 :   0.3333 0.1667 0.0000  plane waves:   10062
 k-point   7 :   0.5000 0.1667 0.0000  plane waves:   10064
 k-point   8 :  -0.3333 0.1667 0.0000  plane waves:   10067
 k-point   9 :  -0.1667 0.1667 0.0000  plane waves:   10081
 k-point  10 :   0.3333 0.3333 0.0000  plane waves:   10047
 k-point  11 :   0.5000 0.3333 0.0000  plane waves:   10054
 k-point  12 :  -0.3333 0.3333 0.0000  plane waves:   10069
 k-point  13 :   0.5000 0.5000 0.0000  plane waves:   10058
 k-point  14 :   0.1667 0.1667 0.1667  plane waves:   10071
 k-point  15 :   0.3333 0.1667 0.1667  plane waves:   10058
 k-point  16 :  -0.1667 0.1667 0.1667  plane waves:   10058
 k-point  17 :   0.3333 0.3333 0.1667  plane waves:   10054
 k-point  18 :  -0.3333 0.3333 0.1667  plane waves:   10064
 k-point  19 :  -0.1667 0.3333 0.1667  plane waves:   10070
 k-point  20 :   0.5000 0.5000 0.1667  plane waves:   10054
 k-point  21 :  -0.3333 0.5000 0.1667  plane waves:   10046
 k-point  22 :  -0.1667 0.5000 0.1667  plane waves:   10058
 k-point  23 :  -0.3333-0.3333 0.1667  plane waves:   10049
 k-point  24 :  -0.1667-0.3333 0.1667  plane waves:   10067
 k-point  25 :  -0.1667-0.1667 0.1667  plane waves:   10067
 k-point  26 :  -0.3333 0.3333 0.3333  plane waves:   10052
 k-point  27 :   0.5000 0.5000 0.3333  plane waves:   10070
 k-point  28 :  -0.3333 0.5000 0.3333  plane waves:   10061
 k-point  29 :  -0.3333-0.3333 0.3333  plane waves:   10031
 k-point  30 :   0.5000 0.5000 0.5000  plane waves:   10068

 maximum and minimum number of plane-waves per node :      5060     4995

 maximum number of plane-waves:     10087
 maximum index in each direction: 
   IXMAX=   15   IYMAX=   15   IZMAX=   14
   IXMIN=  -15   IYMIN=  -15   IZMIN=  -15


 parallel 3D FFT for wavefunctions:
    minimum data exchange during FFTs selected (reduces bandwidth)
 parallel 3D FFT for charge:
    minimum data exchange during FFTs selected (reduces bandwidth)


 total amount of memory used by VASP MPI-rank0   259005. kBytes
=======================================================================

   base      :      30000. kBytes
   nonl-proj :      66925. kBytes
   fftplans  :      24348. kBytes
   grid      :      18307. kBytes
   one-center:        124. kBytes
   wavefun   :     119301. kBytes
 
     INWAV:  cpu time    0.0001: real time    0.0001
 Broyden mixing: mesh for mixing (old mesh)
   NGX = 29   NGY = 29   NGZ = 29
  (NGX  =120   NGY  =120   NGZ  =120)
  gives a total of  24389 points

 initial charge density was supplied:
 charge density of overlapping atoms calculated
 number of electron     160.0000000 magnetization 
 keeping initial charge density in first step


--------------------------------------------------------------------------------------------------------


 Maximum index for augmentation-charges        20355 (set IRDMAX)


--------------------------------------------------------------------------------------------------------


 First call to EWALD:  gamma=   0.264
 Maximum number of real-space cells 3x 3x 3
 Maximum number of reciprocal cells 3x 3x 3

    FEWALD:  cpu time    0.0075: real time    0.0075


--------------------------------------- Iteration      1(   1)  ---------------------------------------


    POTLOK:  cpu time    0.2528: real time    0.2549
    SETDIJ:  cpu time    0.7199: real time    0.7243
    TRIAL :  cpu time   22.4172: real time   22.7702
    CORREC:  cpu time    0.0010: real time    0.0010
    --------------------------------------------
      LOOP:  cpu time   23.4300: real time   23.7945

 eigenvalue-minimisations  :  6120
 total energy-change (2. order) : 0.1827940E+04  (-0.1076139E+05)
 number of electron     160.0000000 magnetization 
 augmentation part      160.0000000 magnetization 

 Free energy of the ion-electron system (eV)
  ---------------------------------------------------
  alpha Z        PSCENC =       756.30705700
  Ewald energy   TEWEN  =    -12351.37073591
  -Hartree energ DENC   =     -6061.32642394
  -exchange      EXHF   =         0.00000000
  -V(xc)+E(xc)   XCENC  =       784.26078958
  PAW double counting   =     15195.10980530   -15141.88575711
  entropy T*S    EENTRO =        -0.00144525
  eigenvalues    EBANDS =      -466.78999345
  atomic energy  EATOM  =     19113.63672979
  ---------------------------------------------------
  free energy    TOTEN  =      1827.94002601 eV

  energy without entropy =     1827.94147126  energy(sigma->0) =     1827.94074864


--------------------------------------------------------------------------------------------------------




--------------------------------------- Iteration      1(   2)  ---------------------------------------


    TRIAL :  cpu time   22.7247: real time   22.9740
    CORREC:  cpu time    0.0009: real time    0.0009
    --------------------------------------------
      LOOP:  cpu time   22.7281: real time   22.9780

 eigenvalue-minimisations  :  6228
 total energy-change (2. order) :-0.2073350E+04  (-0.2024994E+04)
 number of electron     160.0000000 magnetization 
 augmentation part      160.0000000 magnetization 

 Free energy of the ion-electron system (eV)
  ---------------------------------------------------
  alpha Z        PSCENC =       756.30705700
  Ewald energy   TEWEN  =    -12351.37073591
  -Hartree energ DENC   =     -6061.32642394
  -exchange      EXHF   =         0.00000000
  -V(xc)+E(xc)   XCENC  =       784.26078958
  PAW double counting   =     15195.10980530   -15141.88575711
  entropy T*S    EENTRO =        -0.00156480
  eigenvalues    EBANDS =     -2540.13960051
  atomic energy  EATOM  =     19113.63672979
  ---------------------------------------------------
  free energy    TOTEN  =      -245.40970059 eV

  energy without entropy =     -245.40813580  energy(sigma->0) =     -245.40891820


--------------------------------------------------------------------------------------------------------




--------------------------------------- Iteration      1(   3)  ---------------------------------------


    TRIAL :  cpu time   25.8517: real time   26.1357
    CORREC:  cpu time    0.0010: real time    0.0010
    --------------------------------------------
      LOOP:  cpu time   25.8538: real time   26.1394

 eigenvalue-minimisations  :  7680
 total energy-change (2. order) :-0.9530981E+02  (-0.9103211E+02)
 number of electron     160.0000000 magnetization 
 augmentation part      160.0000000 magnetization 

 Free energy of the ion-electron system (eV)
  ---------------------------------------------------
  alpha Z        PSCENC =       756.30705700
  Ewald energy   TEWEN  =    -12351.37073591
  -Hartree energ DENC   =     -6061.32642394
  -exchange      EXHF   =         0.00000000
  -V(xc)+E(xc)   XCENC  =       784.26078958
  PAW double counting   =     15195.10980530   -15141.88575711
  entropy T*S    EENTRO =        -0.00449584
  eigenvalues    EBANDS =     -2635.44647505
  atomic energy  EATOM  =     19113.63672979
  ---------------------------------------------------
  free energy    TOTEN  =      -340.71950618 eV

  energy without entropy =     -340.71501034  energy(sigma->0) =     -340.71725826


--------------------------------------------------------------------------------------------------------




--------------------------------------- Iteration      1(   4)  ---------------------------------------


    TRIAL :  cpu time   24.4630: real time   24.7817
    CORREC:  cpu time    0.0009: real time    0.0009
    --------------------------------------------
      LOOP:  cpu time   24.4644: real time   24.7854

 eigenvalue-minimisations  :  7104
 total energy-change (2. order) :-0.3318753E+01  (-0.3186955E+01)
 number of electron     160.0000000 magnetization 
 augmentation part      160.0000000 magnetization 

 Free energy of the ion-electron system (eV)
  ---------------------------------------------------
  alpha Z        PSCENC =       756.30705700
  Ewald energy   TEWEN  =    -12351.37073591
  -Hartree energ DENC   =     -6061.32642394
  -exchange      EXHF   =         0.00000000
  -V(xc)+E(xc)   XCENC  =       784.26078958
  PAW double counting   =     15195.10980530   -15141.88575711
  entropy T*S    EENTRO =        -0.00205187
  eigenvalues    EBANDS =     -2638.76767232
  atomic energy  EATOM  =     19113.63672979
  ---------------------------------------------------
  free energy    TOTEN  =      -344.03825948 eV

  energy without entropy =     -344.03620761  energy(sigma->0) =     -344.03723354


--------------------------------------------------------------------------------------------------------




--------------------------------------- Iteration      1(   5)  ---------------------------------------


    TRIAL :  cpu time   24.6787: real time   24.9920
    CORREC:  cpu time    0.0009: real time    0.0009
    CHARGE:  cpu time    1.6312: real time    1.6448
    --------------------------------------------
      LOOP:  cpu time   26.3113: real time   26.6404

 eigenvalue-minimisations  :  7188
 total energy-change (2. order) :-0.1102816E+00  (-0.1091711E+00)
 number of electron     159.9999990 magnetization 
 augmentation part       21.8316132 magnetization 

 Free energy of the ion-electron system (eV)
  ---------------------------------------------------
  alpha Z        PSCENC =       756.30705700
  Ewald energy   TEWEN  =    -12351.37073591
  -Hartree energ DENC   =     -6061.32642394
  -exchange      EXHF   =         0.00000000
  -V(xc)+E(xc)   XCENC  =       784.26078958
  PAW double counting   =     15195.10980530   -15141.88575711
  entropy T*S    EENTRO =        -0.00207073
  eigenvalues    EBANDS =     -2638.87793501
  atomic energy  EATOM  =     19113.63672979
  ---------------------------------------------------
  free energy    TOTEN  =      -344.14854103 eV

  energy without entropy =     -344.14647030  energy(sigma->0) =     -344.14750567


--------------------------------------------------------------------------------------------------------




--------------------------------------- Iteration      1(   6)  ---------------------------------------


    POTLOK:  cpu time    0.2153: real time    0.2165
    SETDIJ:  cpu time    0.7112: real time    0.7152
    TRIAL :  cpu time   19.3107: real time   19.4858
    CORREC:  cpu time    7.0991: real time    7.1544
    CHARGE:  cpu time    1.6263: real time    1.6404
    --------------------------------------------
      LOOP:  cpu time   28.9677: real time   29.2178

 eigenvalue-minimisations  :     0
 total energy-change (2. order) : 0.1050985E+03  (-0.2704247E+02)
 number of electron     159.9999987 magnetization 
 augmentation part       24.5743188 magnetization 

 Free energy of the ion-electron system (eV)
  ---------------------------------------------------
  alpha Z        PSCENC =       756.30705700
  Ewald energy   TEWEN  =    -12351.37073591
  -Hartree energ DENC   =     -5674.55011032
  -exchange      EXHF   =         0.00000000
  -V(xc)+E(xc)   XCENC  =       790.40719972
  PAW double counting   =     23948.01972554   -23950.04806451
  entropy T*S    EENTRO =        -0.00336655
  eigenvalues    EBANDS =     -2871.44977782
  atomic energy  EATOM  =     19113.63672979
  ---------------------------------------------------
  free energy    TOTEN  =      -239.05004724 eV

  energy without entropy =     -239.04668069  energy(sigma->0) =     -239.04836397


--------------------------------------------------------------------------------------------------------




--------------------------------------- Iteration      1(   7)  ---------------------------------------


    POTLOK:  cpu time    0.2297: real time    0.2311
    SETDIJ:  cpu time    0.6866: real time    0.6912
    TRIAL :  cpu time   19.2209: real time   19.4474
    CORREC:  cpu time    7.0567: real time    7.1123
    CHARGE:  cpu time    1.7713: real time    1.7848
    --------------------------------------------
      LOOP:  cpu time   28.9725: real time   29.2749

 eigenvalue-minimisations  :     0
 total energy-change (2. order) :-0.2819490E+02  (-0.4396559E+01)
 number of electron     159.9999986 magnetization 
 augmentation part       24.3905748 magnetization 

 Free energy of the ion-electron system (eV)
  ---------------------------------------------------
  alpha Z        PSCENC =       756.30705700
  Ewald energy   TEWEN  =    -12351.37073591
  -Hartree energ DENC   =     -5939.73929608
  -exchange      EXHF   =         0.00000000
  -V(xc)+E(xc)   XCENC  =       803.23700416
  PAW double counting   =     22815.82557320   -22794.70107460
  entropy T*S    EENTRO =        -0.00274362
  eigenvalues    EBANDS =     -2670.43684149
  atomic energy  EATOM  =     19113.63672979
  ---------------------------------------------------
  free energy    TOTEN  =      -267.24495048 eV

  energy without entropy =     -267.24220685  energy(sigma->0) =     -267.24357866


--------------------------------------------------------------------------------------------------------




--------------------------------------- Iteration      1(   8)  ---------------------------------------


    POTLOK:  cpu time    0.3223: real time    0.3240
    SETDIJ:  cpu time    0.6111: real time    0.6151
    TRIAL :  cpu time   19.5500: real time   19.7536
    CORREC:  cpu time    7.0942: real time    7.1501
    CHARGE:  cpu time    1.6650: real time    1.6791
    --------------------------------------------
      LOOP:  cpu time   29.2487: real time   29.5290

 eigenvalue-minimisations  :     0
 total energy-change (2. order) :-0.4369071E+01  (-0.1050794E+01)
 number of electron     159.9999986 magnetization 
 augmentation part       24.2930674 magnetization 

 Free energy of the ion-electron system (eV)
  ---------------------------------------------------
  alpha Z        PSCENC =       756.30705700
  Ewald energy   TEWEN  =    -12351.37073591
  -Hartree energ DENC   =     -5968.29299719
  -exchange      EXHF   =         0.00000000
  -V(xc)+E(xc)   XCENC  =       803.79908824
  PAW double counting   =     22451.92847747   -22427.08862409
  entropy T*S    EENTRO =        -0.00356250
  eigenvalues    EBANDS =     -2650.53027357
  atomic energy  EATOM  =     19113.63672979
  ---------------------------------------------------
  free energy    TOTEN  =      -271.61402189 eV

  energy without entropy =     -271.61045939  energy(sigma->0) =     -271.61224064


--------------------------------------------------------------------------------------------------------




--------------------------------------- Iteration      1(   9)  ---------------------------------------


    POTLOK:  cpu time    0.2820: real time    0.2836
    SETDIJ:  cpu time    0.6442: real time    0.6479
    TRIAL :  cpu time   19.2710: real time   19.5616
    CORREC:  cpu time    7.1083: real time    7.1651
    CHARGE:  cpu time    1.7331: real time    1.7475
    --------------------------------------------
      LOOP:  cpu time   29.0400: real time   29.4089

 eigenvalue-minimisations  :     0
 total energy-change (2. order) :-0.1049188E+01  (-0.4623764E+00)
 number of electron     159.9999984 magnetization 
 augmentation part       24.2799112 magnetization 

 Free energy of the ion-electron system (eV)
  ---------------------------------------------------
  alpha Z        PSCENC =       756.30705700
  Ewald energy   TEWEN  =    -12351.37073591
  -Hartree energ DENC   =     -5963.30287660
  -exchange      EXHF   =         0.00000000
  -V(xc)+E(xc)   XCENC  =       803.47411445
  PAW double counting   =     22289.01505007   -22262.23799572
  entropy T*S    EENTRO =        -0.00376062
  eigenvalues    EBANDS =     -2658.18099077
  atomic energy  EATOM  =     19113.63672979
  ---------------------------------------------------
  free energy    TOTEN  =      -272.66321020 eV

  energy without entropy =     -272.65944958  energy(sigma->0) =     -272.66132989


--------------------------------------------------------------------------------------------------------




--------------------------------------- Iteration      1(  10)  ---------------------------------------


    POTLOK:  cpu time    0.2018: real time    0.2030
    SETDIJ:  cpu time    0.7103: real time    0.7142
    TRIAL :  cpu time   19.7747: real time   20.1166
    CORREC:  cpu time    7.3396: real time    7.3985
    CHARGE:  cpu time    1.7097: real time    1.7231
    --------------------------------------------
      LOOP:  cpu time   29.7380: real time   30.1579

 eigenvalue-minimisations  :     0
 total energy-change (2. order) :-0.4623897E+00  (-0.1595608E+00)
 number of electron     159.9999983 magnetization 
 augmentation part       24.3255001 magnetization 

 Free energy of the ion-electron system (eV)
  ---------------------------------------------------
  alpha Z        PSCENC =       756.30705700
  Ewald energy   TEWEN  =    -12351.37073591
  -Hartree energ DENC   =     -5959.27111923
  -exchange      EXHF   =         0.00000000
  -V(xc)+E(xc)   XCENC  =       803.68565596
  PAW double counting   =     22182.81705165   -22154.11103909
  entropy T*S    EENTRO =        -0.00361640
  eigenvalues    EBANDS =     -2664.81543947
  atomic energy  EATOM  =     19113.63672979
  ---------------------------------------------------
  free energy    TOTEN  =      -273.12559991 eV

  energy without entropy =     -273.12198350  energy(sigma->0) =     -273.12379171


--------------------------------------------------------------------------------------------------------




--------------------------------------- Iteration      1(  11)  ---------------------------------------


    POTLOK:  cpu time    0.2240: real time    0.2253
    SETDIJ:  cpu time    0.6970: real time    0.7006
    TRIAL :  cpu time   19.9706: real time   20.2639
    CORREC:  cpu time    7.3104: real time    7.3685
    CHARGE:  cpu time    1.7747: real time    1.7888
    --------------------------------------------
      LOOP:  cpu time   29.9777: real time   30.3491

 eigenvalue-minimisations  :     0
 total energy-change (2. order) :-0.1595900E+00  (-0.6688183E-01)
 number of electron     159.9999983 magnetization 
 augmentation part       24.3401527 magnetization 

 Free energy of the ion-electron system (eV)
  ---------------------------------------------------
  alpha Z        PSCENC =       756.30705700
  Ewald energy   TEWEN  =    -12351.37073591
  -Hartree energ DENC   =     -5969.31854309
  -exchange      EXHF   =         0.00000000
  -V(xc)+E(xc)   XCENC  =       804.19646493
  PAW double counting   =     22149.48350458   -22119.64920789
  entropy T*S    EENTRO =        -0.00339757
  eigenvalues    EBANDS =     -2656.56684288
  atomic energy  EATOM  =     19113.63672979
  ---------------------------------------------------
  free energy    TOTEN  =      -273.28518987 eV

  energy without entropy =     -273.28179230  energy(sigma->0) =     -273.28349108


--------------------------------------------------------------------------------------------------------




--------------------------------------- Iteration      1(  12)  ---------------------------------------


    POTLOK:  cpu time    0.1986: real time    0.1999
    SETDIJ:  cpu time    0.7451: real time    0.7491
    TRIAL :  cpu time   19.3957: real time   19.6076
    CORREC:  cpu time    6.9566: real time    7.0112
    CHARGE:  cpu time    1.6659: real time    1.6796
    --------------------------------------------
      LOOP:  cpu time   28.9633: real time   29.2492

 eigenvalue-minimisations  :     0
 total energy-change (2. order) :-0.6689720E-01  (-0.3523306E-01)
 number of electron     159.9999983 magnetization 
 augmentation part       24.3122624 magnetization 

 Free energy of the ion-electron system (eV)
  ---------------------------------------------------
  alpha Z        PSCENC =       756.30705700
  Ewald energy   TEWEN  =    -12351.37073591
  -Hartree energ DENC   =     -5972.48502891
  -exchange      EXHF   =         0.00000000
  -V(xc)+E(xc)   XCENC  =       804.29176341
  PAW double counting   =     22173.70967970   -22143.70429099
  entropy T*S    EENTRO =        -0.00333599
  eigenvalues    EBANDS =     -2653.73386360
  atomic energy  EATOM  =     19113.63672979
  ---------------------------------------------------
  free energy    TOTEN  =      -273.35208707 eV

  energy without entropy =     -273.34875108  energy(sigma->0) =     -273.35041907


--------------------------------------------------------------------------------------------------------




--------------------------------------- Iteration      1(  13)  ---------------------------------------


    POTLOK:  cpu time    0.2035: real time    0.2049
    SETDIJ:  cpu time    0.7063: real time    0.7101
    TRIAL :  cpu time   19.6080: real time   19.7654
    CORREC:  cpu time    7.5878: real time    7.6470
    CHARGE:  cpu time    1.8049: real time    1.8187
    --------------------------------------------
      LOOP:  cpu time   29.9127: real time   30.1485

 eigenvalue-minimisations  :     0
 total energy-change (2. order) :-0.3521160E-01  (-0.1874192E-01)
 number of electron     159.9999982 magnetization 
 augmentation part       24.3098670 magnetization 

 Free energy of the ion-electron system (eV)
  ---------------------------------------------------
  alpha Z        PSCENC =       756.30705700
  Ewald energy   TEWEN  =    -12351.37073591
  -Hartree energ DENC   =     -5966.65549669
  -exchange      EXHF   =         0.00000000
  -V(xc)+E(xc)   XCENC  =       804.07899257
  PAW double counting   =     22225.75369938   -22196.09151823
  entropy T*S    EENTRO =        -0.00318198
  eigenvalues    EBANDS =     -2659.04269059
  atomic energy  EATOM  =     19113.63672979
  ---------------------------------------------------
  free energy    TOTEN  =      -273.38729867 eV

  energy without entropy =     -273.38411670  energy(sigma->0) =     -273.38570768


--------------------------------------------------------------------------------------------------------




--------------------------------------- Iteration      1(  14)  ---------------------------------------


    POTLOK:  cpu time    0.2044: real time    0.2057
    SETDIJ:  cpu time    0.7089: real time    0.7130
    TRIAL :  cpu time   19.8559: real time   20.0378
    CORREC:  cpu time    7.4511: real time    7.5101
    CHARGE:  cpu time    1.8080: real time    1.8217
    --------------------------------------------
      LOOP:  cpu time   30.0296: real time   30.2901

 eigenvalue-minimisations  :     0
 total energy-change (2. order) :-0.1870229E-01  (-0.9895484E-02)
 number of electron     159.9999982 magnetization 
 augmentation part       24.3141219 magnetization 

 Free energy of the ion-electron system (eV)
  ---------------------------------------------------
  alpha Z        PSCENC =       756.30705700
  Ewald energy   TEWEN  =    -12351.37073591
  -Hartree energ DENC   =     -5968.30243182
  -exchange      EXHF   =         0.00000000
  -V(xc)+E(xc)   XCENC  =       804.09301119
  PAW double counting   =     22261.25773422   -22231.69031585
  entropy T*S    EENTRO =        -0.00306036
  eigenvalues    EBANDS =     -2657.33386761
  atomic energy  EATOM  =     19113.63672979
  ---------------------------------------------------
  free energy    TOTEN  =      -273.40600096 eV

  energy without entropy =     -273.40294060  energy(sigma->0) =     -273.40447078


--------------------------------------------------------------------------------------------------------




--------------------------------------- Iteration      1(  15)  ---------------------------------------


    POTLOK:  cpu time    0.2051: real time    0.2064
    SETDIJ:  cpu time    0.7374: real time    0.7414
    TRIAL :  cpu time   19.9241: real time   20.2408
    CORREC:  cpu time    7.2033: real time    7.2593
    CHARGE:  cpu time    1.6388: real time    1.6520
    --------------------------------------------
      LOOP:  cpu time   29.7109: real time   30.1025

 eigenvalue-minimisations  :     0
 total energy-change (2. order) :-0.9883979E-02  (-0.4657309E-02)
 number of electron     159.9999982 magnetization 
 augmentation part       24.3154204 magnetization 

 Free energy of the ion-electron system (eV)
  ---------------------------------------------------
  alpha Z        PSCENC =       756.30705700
  Ewald energy   TEWEN  =    -12351.37073591
  -Hartree energ DENC   =     -5968.55736914
  -exchange      EXHF   =         0.00000000
  -V(xc)+E(xc)   XCENC  =       804.12228979
  PAW double counting   =     22264.86478283   -22235.23220052
  entropy T*S    EENTRO =        -0.00311034
  eigenvalues    EBANDS =     -2657.18337843
  atomic energy  EATOM  =     19113.63672979
  ---------------------------------------------------
  free energy    TOTEN  =      -273.41588494 eV

  energy without entropy =     -273.41277460  energy(sigma->0) =     -273.41432977


--------------------------------------------------------------------------------------------------------




--------------------------------------- Iteration      1(  16)  ---------------------------------------


    POTLOK:  cpu time    0.2005: real time    0.2017
    SETDIJ:  cpu time    0.7181: real time    0.7220
    TRIAL :  cpu time   19.9463: real time   20.2788
    CORREC:  cpu time    7.2801: real time    7.3359
    CHARGE:  cpu time    1.6662: real time    1.6792
    --------------------------------------------
      LOOP:  cpu time   29.8848: real time   30.2924

 eigenvalue-minimisations  :     0
 total energy-change (2. order) :-0.4652712E-02  (-0.2019976E-02)
 number of electron     159.9999982 magnetization 
 augmentation part       24.3198572 magnetization 

 Free energy of the ion-electron system (eV)
  ---------------------------------------------------
  alpha Z        PSCENC =       756.30705700
  Ewald energy   TEWEN  =    -12351.37073591
  -Hartree energ DENC   =     -5967.94915775
  -exchange      EXHF   =         0.00000000
  -V(xc)+E(xc)   XCENC  =       804.10700644
  PAW double counting   =     22250.66470007   -22220.98567430
  entropy T*S    EENTRO =        -0.00320817
  eigenvalues    EBANDS =     -2657.82735266
  atomic energy  EATOM  =     19113.63672979
  ---------------------------------------------------
  free energy    TOTEN  =      -273.42053765 eV

  energy without entropy =     -273.41732948  energy(sigma->0) =     -273.41893357


--------------------------------------------------------------------------------------------------------




--------------------------------------- Iteration      1(  17)  ---------------------------------------


    POTLOK:  cpu time    0.2268: real time    0.2281
    SETDIJ:  cpu time    0.6902: real time    0.6949
    TRIAL :  cpu time   19.8999: real time   20.2098
    CORREC:  cpu time    7.3611: real time    7.4169
    CHARGE:  cpu time    1.6568: real time    1.6706
    --------------------------------------------
      LOOP:  cpu time   29.8366: real time   30.2231

 eigenvalue-minimisations  :     0
 total energy-change (2. order) :-0.2013472E-02  (-0.8149570E-03)
 number of electron     159.9999982 magnetization 
 augmentation part       24.3180009 magnetization 

 Free energy of the ion-electron system (eV)
  ---------------------------------------------------
  alpha Z        PSCENC =       756.30705700
  Ewald energy   TEWEN  =    -12351.37073591
  -Hartree energ DENC   =     -5968.89942286
  -exchange      EXHF   =         0.00000000
  -V(xc)+E(xc)   XCENC  =       804.12945257
  PAW double counting   =     22239.13378507   -22209.41800095
  entropy T*S    EENTRO =        -0.00328507
  eigenvalues    EBANDS =     -2656.93820766
  atomic energy  EATOM  =     19113.63672979
  ---------------------------------------------------
  free energy    TOTEN  =      -273.42255112 eV

  energy without entropy =     -273.41926605  energy(sigma->0) =     -273.42090859


--------------------------------------------------------------------------------------------------------




--------------------------------------- Iteration      1(  18)  ---------------------------------------


    POTLOK:  cpu time    0.2090: real time    0.2102
    SETDIJ:  cpu time    0.6948: real time    0.6987
    TRIAL :  cpu time   19.7950: real time   20.0759
    CORREC:  cpu time    7.2571: real time    7.3132
    CHARGE:  cpu time    1.7884: real time    1.8016
    --------------------------------------------
      LOOP:  cpu time   29.7474: real time   30.1038

 eigenvalue-minimisations  :     0
 total energy-change (2. order) :-0.8144696E-03  (-0.3676918E-03)
 number of electron     159.9999982 magnetization 
 augmentation part       24.3172695 magnetization 

 Free energy of the ion-electron system (eV)
  ---------------------------------------------------
  alpha Z        PSCENC =       756.30705700
  Ewald energy   TEWEN  =    -12351.37073591
  -Hartree energ DENC   =     -5968.25431181
  -exchange      EXHF   =         0.00000000
  -V(xc)+E(xc)   XCENC  =       804.11293464
  PAW double counting   =     22235.18600025   -22205.50473984
  entropy T*S    EENTRO =        -0.00331043
  eigenvalues    EBANDS =     -2657.53301464
  atomic energy  EATOM  =     19113.63672979
  ---------------------------------------------------
  free energy    TOTEN  =      -273.42336559 eV

  energy without entropy =     -273.42005516  energy(sigma->0) =     -273.42171037


--------------------------------------------------------------------------------------------------------




--------------------------------------- Iteration      1(  19)  ---------------------------------------


    POTLOK:  cpu time    0.2261: real time    0.2274
    SETDIJ:  cpu time    0.7269: real time    0.7308
    TRIAL :  cpu time   19.6944: real time   20.0084
    CORREC:  cpu time    7.1747: real time    7.2334
    CHARGE:  cpu time    1.7693: real time    1.7835
    --------------------------------------------
      LOOP:  cpu time   29.6540: real time   30.0470

 eigenvalue-minimisations  :     0
 total energy-change (2. order) :-0.3672990E-03  (-0.1856656E-03)
 number of electron     159.9999982 magnetization 
 augmentation part       24.3173371 magnetization 

 Free energy of the ion-electron system (eV)
  ---------------------------------------------------
  alpha Z        PSCENC =       756.30705700
  Ewald energy   TEWEN  =    -12351.37073591
  -Hartree energ DENC   =     -5968.58732350
  -exchange      EXHF   =         0.00000000
  -V(xc)+E(xc)   XCENC  =       804.11363282
  PAW double counting   =     22235.60710478   -22205.95517708
  entropy T*S    EENTRO =        -0.00332622
  eigenvalues    EBANDS =     -2657.17171035
  atomic energy  EATOM  =     19113.63672979
  ---------------------------------------------------
  free energy    TOTEN  =      -273.42373289 eV

  energy without entropy =     -273.42040667  energy(sigma->0) =     -273.42206978


--------------------------------------------------------------------------------------------------------




--------------------------------------- Iteration      1(  20)  ---------------------------------------


    POTLOK:  cpu time    0.2180: real time    0.2194
    SETDIJ:  cpu time    0.6935: real time    0.6980
    TRIAL :  cpu time   19.7920: real time   20.0504
    CORREC:  cpu time    7.2541: real time    7.3116
    CHARGE:  cpu time    1.7638: real time    1.7780
    --------------------------------------------
      LOOP:  cpu time   29.7238: real time   30.0608

 eigenvalue-minimisations  :     0
 total energy-change (2. order) :-0.1856984E-03  (-0.9087737E-04)
 number of electron     159.9999982 magnetization 
 augmentation part       24.3174480 magnetization 

 Free energy of the ion-electron system (eV)
  ---------------------------------------------------
  alpha Z        PSCENC =       756.30705700
  Ewald energy   TEWEN  =    -12351.37073591
  -Hartree energ DENC   =     -5968.52174992
  -exchange      EXHF   =         0.00000000
  -V(xc)+E(xc)   XCENC  =       804.11772982
  PAW double counting   =     22238.37115167   -22208.72090180
  entropy T*S    EENTRO =        -0.00331819
  eigenvalues    EBANDS =     -2657.23987301
  atomic energy  EATOM  =     19113.63672979
  ---------------------------------------------------
  free energy    TOTEN  =      -273.42391859 eV

  energy without entropy =     -273.42060040  energy(sigma->0) =     -273.42225950


--------------------------------------------------------------------------------------------------------




--------------------------------------- Iteration      1(  21)  ---------------------------------------


    POTLOK:  cpu time    0.2027: real time    0.2039
    SETDIJ:  cpu time    0.7102: real time    0.7149
    TRIAL :  cpu time   19.9077: real time   20.1218
    CORREC:  cpu time    7.2618: real time    7.3195
    CHARGE:  cpu time    1.7508: real time    1.7637
    --------------------------------------------
      LOOP:  cpu time   29.8387: real time   30.1297

 eigenvalue-minimisations  :     0
 total energy-change (2. order) :-0.9105541E-04  (-0.3967922E-04)
 number of electron     159.9999982 magnetization 
 augmentation part       24.3169125 magnetization 

 Free energy of the ion-electron system (eV)
  ---------------------------------------------------
  alpha Z        PSCENC =       756.30705700
  Ewald energy   TEWEN  =    -12351.37073591
  -Hartree energ DENC   =     -5968.66583626
  -exchange      EXHF   =         0.00000000
  -V(xc)+E(xc)   XCENC  =       804.11991128
  PAW double counting   =     22240.05999669   -22210.40806077
  entropy T*S    EENTRO =        -0.00330977
  eigenvalues    EBANDS =     -2657.09975327
  atomic energy  EATOM  =     19113.63672979
  ---------------------------------------------------
  free energy    TOTEN  =      -273.42400965 eV

  energy without entropy =     -273.42069988  energy(sigma->0) =     -273.42235476


--------------------------------------------------------------------------------------------------------




--------------------------------------- Iteration      1(  22)  ---------------------------------------


    POTLOK:  cpu time    0.2125: real time    0.2136
    SETDIJ:  cpu time    0.7009: real time    0.7044
    TRIAL :  cpu time   19.3551: real time   19.5536
    CORREC:  cpu time    7.5481: real time    7.6750
    CHARGE:  cpu time    1.6941: real time    1.7078
    --------------------------------------------
      LOOP:  cpu time   29.5177: real time   29.8632

 eigenvalue-minimisations  :     0
 total energy-change (2. order) :-0.4003121E-04  (-0.1820366E-04)
 number of electron     159.9999982 magnetization 
 augmentation part       24.3173760 magnetization 

 Free energy of the ion-electron system (eV)
  ---------------------------------------------------
  alpha Z        PSCENC =       756.30705700
  Ewald energy   TEWEN  =    -12351.37073591
  -Hartree energ DENC   =     -5968.46202162
  -exchange      EXHF   =         0.00000000
  -V(xc)+E(xc)   XCENC  =       804.11494037
  PAW double counting   =     22240.11708407   -22210.46766540
  entropy T*S    EENTRO =        -0.00330080
  eigenvalues    EBANDS =     -2657.29612821
  atomic energy  EATOM  =     19113.63672979
  ---------------------------------------------------
  free energy    TOTEN  =      -273.42404968 eV

  energy without entropy =     -273.42074888  energy(sigma->0) =     -273.42239928


--------------------------------------------------------------------------------------------------------




--------------------------------------- Iteration      1(  23)  ---------------------------------------


    POTLOK:  cpu time    0.2066: real time    0.2078
    SETDIJ:  cpu time    0.7344: real time    0.7385
    TRIAL :  cpu time   19.6498: real time   19.8083
    CORREC:  cpu time    7.3450: real time    7.4027
    CHARGE:  cpu time    1.7483: real time    1.7618
    --------------------------------------------
      LOOP:  cpu time   29.6906: real time   29.9268

 eigenvalue-minimisations  :     0
 total energy-change (2. order) :-0.1786021E-04  (-0.6294674E-05)
 number of electron     159.9999982 magnetization 
 augmentation part       24.3172677 magnetization 

 Free energy of the ion-electron system (eV)
  ---------------------------------------------------
  alpha Z        PSCENC =       756.30705700
  Ewald energy   TEWEN  =    -12351.37073591
  -Hartree energ DENC   =     -5968.61179721
  -exchange      EXHF   =         0.00000000
  -V(xc)+E(xc)   XCENC  =       804.11954224
  PAW double counting   =     22239.60247084   -22209.94823953
  entropy T*S    EENTRO =        -0.00329795
  eigenvalues    EBANDS =     -2657.15579397
  atomic energy  EATOM  =     19113.63672979
  ---------------------------------------------------
  free energy    TOTEN  =      -273.42406754 eV

  energy without entropy =     -273.42076958  energy(sigma->0) =     -273.42241856


--------------------------------------------------------------------------------------------------------




--------------------------------------- Iteration      1(  24)  ---------------------------------------


    POTLOK:  cpu time    0.2270: real time    0.2284
    SETDIJ:  cpu time    0.6888: real time    0.6926
    TRIAL :  cpu time   19.6959: real time   19.9900
    CORREC:  cpu time    7.3750: real time    7.4305
    CHARGE:  cpu time    1.7525: real time    1.7661
    --------------------------------------------
      LOOP:  cpu time   29.7470: real time   30.1161

 eigenvalue-minimisations  :     0
 total energy-change (2. order) :-0.6287250E-05  (-0.3571787E-05)
 number of electron     159.9999982 magnetization 
 augmentation part       24.3171533 magnetization 

 Free energy of the ion-electron system (eV)
  ---------------------------------------------------
  alpha Z        PSCENC =       756.30705700
  Ewald energy   TEWEN  =    -12351.37073591
  -Hartree energ DENC   =     -5968.52794953
  -exchange      EXHF   =         0.00000000
  -V(xc)+E(xc)   XCENC  =       804.11814891
  PAW double counting   =     22239.28301087   -22209.62892799
  entropy T*S    EENTRO =        -0.00329536
  eigenvalues    EBANDS =     -2657.23810902
  atomic energy  EATOM  =     19113.63672979
  ---------------------------------------------------
  free energy    TOTEN  =      -273.42407382 eV

  energy without entropy =     -273.42077846  energy(sigma->0) =     -273.42242614


--------------------------------------------------------------------------------------------------------




--------------------------------------- Iteration      1(  25)  ---------------------------------------


    POTLOK:  cpu time    0.2055: real time    0.2068
    SETDIJ:  cpu time    0.7119: real time    0.7162
    TRIAL :  cpu time   19.8268: real time   20.0739
    CORREC:  cpu time    7.1931: real time    7.2479
    CHARGE:  cpu time    1.7376: real time    1.7529
    --------------------------------------------
      LOOP:  cpu time   29.6808: real time   30.0043

 eigenvalue-minimisations  :     0
 total energy-change (2. order) :-0.3615758E-05  (-0.1907564E-05)
 number of electron     159.9999982 magnetization 
 augmentation part       24.3172711 magnetization 

 Free energy of the ion-electron system (eV)
  ---------------------------------------------------
  alpha Z        PSCENC =       756.30705700
  Ewald energy   TEWEN  =    -12351.37073591
  -Hartree energ DENC   =     -5968.51417472
  -exchange      EXHF   =         0.00000000
  -V(xc)+E(xc)   XCENC  =       804.11676892
  PAW double counting   =     22239.08777965   -22209.43537146
  entropy T*S    EENTRO =        -0.00329579
  eigenvalues    EBANDS =     -2657.24883536
  atomic energy  EATOM  =     19113.63672979
  ---------------------------------------------------
  free energy    TOTEN  =      -273.42407744 eV

  energy without entropy =     -273.42078165  energy(sigma->0) =     -273.42242955


--------------------------------------------------------------------------------------------------------




--------------------------------------- Iteration      1(  26)  ---------------------------------------


    POTLOK:  cpu time    0.2310: real time    0.2324
    SETDIJ:  cpu time    0.7530: real time    0.7574
[...]
      2     -57.1094      2.00000
      3     -56.1156      2.00000
      4     -56.1147      2.00000
      5     -56.1136      2.00000
      6     -56.1129      2.00000
      7     -56.0777      2.00000
      8     -56.0685      2.00000
      9     -55.5630      2.00000
     10     -55.5582      2.00000
     11     -32.4502      2.00000
     12     -32.4492      2.00000
     13     -32.4466      2.00000
     14     -32.4455      2.00000
     15     -30.0099      2.00000
     16     -29.9711      2.00000
     17     -29.9644      2.00000
     18     -29.9369      2.00000
     19     -29.8945      2.00000
     20     -29.8722      2.00000
     21     -29.7527      2.00000
     22     -29.6966      2.00000
     23     -29.5471      2.00000
     24     -29.5440      2.00000
     25     -29.5301      2.00000
     26     -29.5259      2.00000
     27     -29.4392      2.00000
     28     -29.3766      2.00000
     29     -29.3757      2.00000
     30     -29.3745      2.00000
     31     -29.3484      2.00000
     32     -29.3470      2.00000
     33     -29.3388      2.00000
     34     -29.3218      2.00000
     35     -28.9767      2.00000
     36     -28.9481      2.00000
     37     -27.7461      2.00000
     38     -27.7436      2.00000
     39     -27.7354      2.00000
     40     -27.7329      2.00000
     41      -2.4483      2.00000
     42      -2.1794      2.00000
     43      -1.1882      2.00000
     44      -0.9514      2.00000
     45      -0.6793      2.00000
     46       0.3336      2.00000
     47       0.5384      2.00000
     48       0.5963      2.00000
     49       1.4417      2.00000
     50       1.7865      2.00000
     51       2.0512      2.00000
     52       2.0798      2.00000
     53       2.1049      2.00000
     54       2.2442      2.00000
     55       2.5698      2.00000
     56       2.9019      2.00000
     57       2.9148      2.00000
     58       2.9831      2.00000
     59       3.0447      2.00000
     60       3.1363      2.00000
     61       3.1667      2.00000
     62       3.4174      2.00000
     63       3.4653      2.00000
     64       3.6018      2.00000
     65       3.7849      2.00000
     66       4.2151      2.00000
     67       4.3149      2.00000
     68       4.9081      2.00000
     69       5.0742      2.00000
     70       5.1356      2.00000
     71       5.1662      2.00000
     72       5.3821      2.00000
     73       5.6375      2.00000
     74       5.6844      2.00000
     75       5.7388      2.00000
     76       5.9677      2.00000
     77       6.1903      2.00000
     78       6.2165      2.00000
     79       6.6203      2.00000
     80       6.6598      1.99751
     81       6.8383      0.00000
     82       7.0238      0.00000
     83       7.0813      0.00000
     84       7.1480      0.00000
     85       7.2909      0.00000
     86       7.3247      0.00000
     87       7.4025      0.00000
     88       7.5093      0.00000
     89       7.5856      0.00000
     90       7.9246      0.00000
     91       8.1602      0.00000
     92       8.1795      0.00000
     93       8.3467      0.00000
     94       8.6925      0.00000
     95       8.9071      0.00000
     96       9.2949      0.00000

 k-point    27 :       0.5000    0.5000    0.3333
  band No.  band energies     occupation 
      1     -57.1109      2.00000
      2     -57.1088      2.00000
      3     -56.1169      2.00000
      4     -56.1152      2.00000
      5     -56.1134      2.00000
      6     -56.1106      2.00000
      7     -56.0802      2.00000
      8     -56.0668      2.00000
      9     -55.5645      2.00000
     10     -55.5568      2.00000
     11     -32.4566      2.00000
     12     -32.4506      2.00000
     13     -32.4449      2.00000
     14     -32.4384      2.00000
     15     -30.0109      2.00000
     16     -29.9815      2.00000
     17     -29.9702      2.00000
     18     -29.9533      2.00000
     19     -29.8775      2.00000
     20     -29.8549      2.00000
     21     -29.7638      2.00000
     22     -29.6724      2.00000
     23     -29.5743      2.00000
     24     -29.5372      2.00000
     25     -29.5291      2.00000
     26     -29.5141      2.00000
     27     -29.4604      2.00000
     28     -29.3771      2.00000
     29     -29.3724      2.00000
     30     -29.3639      2.00000
     31     -29.3502      2.00000
     32     -29.3446      2.00000
     33     -29.3368      2.00000
     34     -29.3249      2.00000
     35     -28.9784      2.00000
     36     -28.9465      2.00000
     37     -27.7593      2.00000
     38     -27.7434      2.00000
     39     -27.7352      2.00000
     40     -27.7185      2.00000
     41      -2.4357      2.00000
     42      -2.2771      2.00000
     43      -1.0366      2.00000
     44      -0.9792      2.00000
     45      -0.8689      2.00000
     46       0.4129      2.00000
     47       0.6318      2.00000
     48       0.6638      2.00000
     49       1.5546      2.00000
     50       1.9519      2.00000
     51       2.0483      2.00000
     52       2.0913      2.00000
     53       2.2559      2.00000
     54       2.2996      2.00000
     55       2.3962      2.00000
     56       2.7442      2.00000
     57       2.8634      2.00000
     58       2.9395      2.00000
     59       2.9798      2.00000
     60       3.0523      2.00000
     61       3.0865      2.00000
     62       3.3799      2.00000
     63       3.4104      2.00000
     64       3.4817      2.00000
     65       3.9539      2.00000
     66       4.2139      2.00000
     67       4.4570      2.00000
     68       4.9666      2.00000
     69       5.0868      2.00000
     70       5.1575      2.00000
     71       5.2432      2.00000
     72       5.3880      2.00000
     73       5.3952      2.00000
     74       5.4306      2.00000
     75       5.9570      2.00000
     76       6.0149      2.00000
     77       6.1425      2.00000
     78       6.3675      2.00000
     79       6.4043      2.00000
     80       6.7529      0.00037
     81       6.7906      0.00000
     82       6.9264      0.00000
     83       6.9306      0.00000
     84       7.1220      0.00000
     85       7.3520      0.00000
     86       7.4513      0.00000
     87       7.5941      0.00000
     88       7.6022      0.00000
     89       7.6257      0.00000
     90       7.8074      0.00000
     91       8.0266      0.00000
     92       8.1260      0.00000
     93       8.4878      0.00000
     94       8.6436      0.00000
     95       8.7591      0.00000
     96       8.9154      0.00000

 k-point    28 :      -0.3333    0.5000    0.3333
  band No.  band energies     occupation 
      1     -57.1113      2.00000
      2     -57.1085      2.00000
      3     -56.1154      2.00000
      4     -56.1146      2.00000
      5     -56.1132      2.00000
      6     -56.1124      2.00000
      7     -56.0812      2.00000
      8     -56.0661      2.00000
      9     -55.5652      2.00000
     10     -55.5560      2.00000
     11     -32.4516      2.00000
     12     -32.4511      2.00000
     13     -32.4437      2.00000
     14     -32.4432      2.00000
     15     -30.0090      2.00000
     16     -29.9894      2.00000
     17     -29.9721      2.00000
     18     -29.9608      2.00000
     19     -29.8698      2.00000
     20     -29.8457      2.00000
     21     -29.7700      2.00000
     22     -29.6655      2.00000
     23     -29.5540      2.00000
     24     -29.5536      2.00000
     25     -29.5255      2.00000
     26     -29.5240      2.00000
     27     -29.4688      2.00000
     28     -29.3729      2.00000
     29     -29.3725      2.00000
     30     -29.3583      2.00000
     31     -29.3495      2.00000
     32     -29.3490      2.00000
     33     -29.3341      2.00000
     34     -29.3279      2.00000
     35     -28.9778      2.00000
     36     -28.9472      2.00000
     37     -27.7486      2.00000
     38     -27.7475      2.00000
     39     -27.7295      2.00000
     40     -27.7284      2.00000
     41      -2.4318      2.00000
     42      -2.3765      2.00000
     43      -1.0052      2.00000
     44      -1.0017      2.00000
     45      -0.8426      2.00000
     46       0.4178      2.00000
     47       0.7133      2.00000
     48       0.7854      2.00000
     49       1.5143      2.00000
     50       1.8418      2.00000
     51       2.0463      2.00000
     52       2.1618      2.00000
     53       2.2261      2.00000
     54       2.2919      2.00000
     55       2.5070      2.00000
     56       2.8576      2.00000
     57       2.9114      2.00000
     58       2.9306      2.00000
     59       2.9595      2.00000
     60       3.1229      2.00000
     61       3.1699      2.00000
     62       3.3764      2.00000
     63       3.5331      2.00000
     64       3.6550      2.00000
     65       3.7087      2.00000
     66       4.1411      2.00000
     67       4.1425      2.00000
     68       4.6872      2.00000
     69       4.9685      2.00000
     70       5.1009      2.00000
     71       5.1858      2.00000
     72       5.2618      2.00000
     73       5.5531      2.00000
     74       5.6597      2.00000
     75       6.0106      2.00000
     76       6.0296      2.00000
     77       6.0482      2.00000
     78       6.3911      2.00000
     79       6.5775      2.00000
     80       6.7028      0.98818
     81       6.8101      0.00000
     82       6.9033      0.00000
     83       7.0289      0.00000
     84       7.0577      0.00000
     85       7.2296      0.00000
     86       7.4546      0.00000
     87       7.4656      0.00000
     88       7.5981      0.00000
     89       7.6996      0.00000
     90       7.7531      0.00000
     91       8.0851      0.00000
     92       8.1613      0.00000
     93       8.2466      0.00000
     94       8.7339      0.00000
     95       8.8727      0.00000
     96       8.9602      0.00000

 k-point    29 :      -0.3333   -0.3333    0.3333
  band No.  band energies     occupation 
      1     -57.1118      2.00000
      2     -57.1079      2.00000
      3     -56.1154      2.00000
      4     -56.1144      2.00000
      5     -56.1132      2.00000
      6     -56.1122      2.00000
      7     -56.0823      2.00000
      8     -56.0654      2.00000
      9     -55.5662      2.00000
     10     -55.5551      2.00000
     11     -32.4524      2.00000
     12     -32.4522      2.00000
     13     -32.4420      2.00000
     14     -32.4418      2.00000
     15     -30.0031      2.00000
     16     -29.9983      2.00000
     17     -29.9780      2.00000
     18     -29.9699      2.00000
     19     -29.8610      2.00000
     20     -29.8352      2.00000
     21     -29.7765      2.00000
     22     -29.6506      2.00000
     23     -29.5575      2.00000
     24     -29.5574      2.00000
     25     -29.5241      2.00000
     26     -29.5240      2.00000
     27     -29.4813      2.00000
     28     -29.3675      2.00000
     29     -29.3674      2.00000
     30     -29.3541      2.00000
     31     -29.3540      2.00000
     32     -29.3522      2.00000
     33     -29.3347      2.00000
     34     -29.3284      2.00000
     35     -28.9746      2.00000
     36     -28.9503      2.00000
     37     -27.7496      2.00000
     38     -27.7490      2.00000
     39     -27.7271      2.00000
     40     -27.7264      2.00000
     41      -2.5401      2.00000
     42      -2.3757      2.00000
     43      -1.0842      2.00000
     44      -0.8427      2.00000
     45      -0.8380      2.00000
     46       0.3895      2.00000
     47       0.7806      2.00000
     48       0.9920      2.00000
     49       1.4979      2.00000
     50       1.4988      2.00000
     51       2.1235      2.00000
     52       2.1579      2.00000
     53       2.4031      2.00000
     54       2.4035      2.00000
     55       2.7144      2.00000
     56       2.8066      2.00000
     57       2.8073      2.00000
     58       3.0539      2.00000
     59       3.1078      2.00000
     60       3.1085      2.00000
     61       3.3373      2.00000
     62       3.3663      2.00000
     63       3.6357      2.00000
     64       3.6690      2.00000
     65       3.6697      2.00000
     66       3.8609      2.00000
     67       4.0902      2.00000
     68       4.2441      2.00000
     69       4.7747      2.00000
     70       4.7771      2.00000
     71       4.9947      2.00000
     72       5.4057      2.00000
     73       5.9194      2.00000
     74       5.9208      2.00000
     75       6.0765      2.00000
     76       6.0769      2.00000
     77       6.0777      2.00000
     78       6.2943      2.00000
     79       6.7028      0.98492
     80       6.7029      0.97893
     81       6.7938      0.00000
     82       6.8899      0.00000
     83       6.8991      0.00000
     84       6.8996      0.00000
     85       7.0139      0.00000
     86       7.1590      0.00000
     87       7.5887      0.00000
     88       7.5893      0.00000
     89       7.6865      0.00000
     90       7.8956      0.00000
     91       8.3128      0.00000
     92       8.3158      0.00000
     93       8.4849      0.00000
     94       8.5313      0.00000
     95       8.9535      0.00000
     96       9.0316      0.00000

 k-point    30 :       0.5000    0.5000    0.5000
  band No.  band energies     occupation 
      1     -57.1115      2.00000
      2     -57.1082      2.00000
      3     -56.1154      2.00000
      4     -56.1146      2.00000
      5     -56.1130      2.00000
      6     -56.1121      2.00000
      7     -56.0826      2.00000
      8     -56.0651      2.00000
      9     -55.5660      2.00000
     10     -55.5554      2.00000
     11     -32.4518      2.00000
     12     -32.4516      2.00000
     13     -32.4426      2.00000
     14     -32.4424      2.00000
     15     -30.0119      2.00000
     16     -29.9989      2.00000
     17     -29.9693      2.00000
     18     -29.9692      2.00000
     19     -29.8606      2.00000
     20     -29.8358      2.00000
     21     -29.7757      2.00000
     22     -29.6512      2.00000
     23     -29.5581      2.00000
     24     -29.5580      2.00000
     25     -29.5236      2.00000
     26     -29.5235      2.00000
     27     -29.4819      2.00000
     28     -29.3744      2.00000
     29     -29.3743      2.00000
     30     -29.3518      2.00000
     31     -29.3472      2.00000
     32     -29.3471      2.00000
     33     -29.3349      2.00000
     34     -29.3279      2.00000
     35     -28.9802      2.00000
     36     -28.9449      2.00000
     37     -27.7493      2.00000
     38     -27.7487      2.00000
     39     -27.7273      2.00000
     40     -27.7267      2.00000
     41      -2.4807      2.00000
     42      -2.3962      2.00000
     43      -0.9966      2.00000
     44      -0.9366      2.00000
     45      -0.9320      2.00000
     46       0.4119      2.00000
     47       0.7572      2.00000
     48       1.1453      2.00000
     49       1.5481      2.00000
     50       1.5491      2.00000
     51       2.0531      2.00000
     52       2.1269      2.00000
     53       2.2573      2.00000
     54       2.2577      2.00000
     55       2.7097      2.00000
     56       2.7559      2.00000
     57       2.9533      2.00000
     58       3.0262      2.00000
     59       3.0269      2.00000
     60       3.0720      2.00000
     61       3.0726      2.00000
     62       3.2093      2.00000
     63       3.6103      2.00000
     64       3.7016      2.00000
     65       3.7021      2.00000
     66       4.0001      2.00000
     67       4.2437      2.00000
     68       4.6280      2.00000
     69       4.9348      2.00000
     70       5.1112      2.00000
     71       5.2724      2.00000
     72       5.2731      2.00000
     73       5.3261      2.00000
     74       5.3290      2.00000
     75       5.9583      2.00000
     76       5.9594      2.00000
     77       6.0443      2.00000
     78       6.4954      2.00000
     79       6.5011      2.00000
     80       6.7091      0.64239
     81       6.7095      0.62575
     82       6.9416      0.00000
     83       7.0414      0.00000
     84       7.2888      0.00000
     85       7.5970      0.00000
     86       7.5973      0.00000
     87       7.7560      0.00000
     88       7.7561      0.00000
     89       7.8293      0.00000
     90       7.8466      0.00000
     91       7.8499      0.00000
     92       8.0340      0.00000
     93       8.1066      0.00000
     94       8.4747      0.00000
     95       8.9422      0.00000
     96       9.0531      0.00000


--------------------------------------------------------------------------------------------------------


 soft charge-density along one line, spin component           1
         0         1         2         3         4         5         6         7         8         9
 total charge-density along one line
 
 pseudopotential strength for first ion, spin component:           1
  6.115   9.277   0.002   0.003   0.001   0.003   0.006   0.002
  9.277  14.067   0.002   0.005   0.001   0.006   0.010   0.003
  0.002   0.002  -2.038  -0.003   0.004  -3.419  -0.007   0.008
  0.003   0.005  -0.003  -2.039  -0.002  -0.007  -3.422  -0.003
  0.001   0.001   0.004  -0.002  -2.044   0.008  -0.003  -3.431
  0.003   0.006  -3.419  -0.007   0.008  -5.526  -0.012   0.016
  0.006   0.010  -0.007  -3.422  -0.003  -0.012  -5.532  -0.006
  0.002   0.003   0.008  -0.003  -3.431   0.016  -0.006  -5.548
 total augmentation occupancy for first ion, spin component:           1
  3.280  -0.692  -0.109  -0.202  -0.057   0.033   0.061   0.017
 -0.692   0.161   0.026   0.049   0.014  -0.010  -0.018  -0.005
 -0.109   0.026   1.870   0.284  -0.305  -0.442  -0.083   0.089
 -0.202   0.049   0.284   2.040   0.148  -0.083  -0.491  -0.043
 -0.057   0.014  -0.305   0.148   2.297   0.089  -0.043  -0.566
  0.033  -0.010  -0.442  -0.083   0.089   0.108   0.025  -0.027
  0.061  -0.018  -0.083  -0.491  -0.043   0.025   0.123   0.013
  0.017  -0.005   0.089  -0.043  -0.566  -0.027   0.013   0.146


------------------------ aborting loop because EDIFF is reached ----------------------------------------




--------------------------------------------------------------------------------------------------------



  FREE ENERGIE OF THE ION-ELECTRON SYSTEM (eV)
  ---------------------------------------------------
  free  energy   TOTEN  =      -273.42408063 eV

  energy  without entropy=     -273.42078259  energy(sigma->0) =     -273.42243161
 


--------------------------------------------------------------------------------------------------------


    POTLOK:  cpu time    1.0049: real time    1.0127


--------------------------------------------------------------------------------------------------------


 writing wavefunctions
     LOOP+:  cpu time 1109.6087: real time 1122.0492
    4ORBIT:  cpu time    0.0000: real time    0.0000

 total amount of memory used by VASP MPI-rank0   259005. kBytes
=======================================================================

   base      :      30000. kBytes
   nonl-proj :      66925. kBytes
   fftplans  :      24348. kBytes
   grid      :      18307. kBytes
   one-center:        124. kBytes
   wavefun   :     119301. kBytes
 
  
  
 General timing and accounting informations for this job:
 ========================================================
  
                  Total CPU time used (sec):     1114.685
                            User time (sec):     1089.641
                          System time (sec):       25.044
                         Elapsed time (sec):     1128.042
  
                   Maximum memory used (kb):      423660.
                   Average memory used (kb):          N/A
  
                          Minor page faults:      6029598
                          Major page faults:           17
                 Voluntary context switches:         7055
