 vasp.6.2.0 18Jan21 (build Jan 05 2022 15:41:44) complex                        
  
 executed on             LinuxIFC date 2025.05.07  18:04:57
 running on   24 total cores
 distrk:  each k-point on   12 cores,    2 groups
 distr:  one band on NCORE=   2 cores,    6 groups


--------------------------------------------------------------------------------------------------------


 INCAR:
   SYSTEM = routine with relax: pwdword
   ICHARG = 2
   NPAR = 6
   KPAR = 2
   NCORE = 2
   ADDGRID = T
   PREC = Acc
   ENCUT = 600
   METAGGA = R2SCAN
   LASPH = .TRUE.
   LMIXTAU = .FALSE.
   ALGO = A
   EDIFF = 1E-9
   NELM = 100
   NELMIN = 6
   IALGO = 38
   LREAL = F
   NSW = 0
   ISIF = -1
   ISMEAR = 0
   SIGMA = 0.02

 POTCAR:    PAW_PBE B 06Sep2000                   
 POTCAR:    PAW_PBE Mo_sv 02Feb2006               
 POTCAR:    PAW_PBE Si 05Jan2001                  
 -----------------------------------------------------------------------------
|                                                                             |
|           W    W    AA    RRRRR   N    N  II  N    N   GGGG   !!!           |
|           W    W   A  A   R    R  NN   N  II  NN   N  G    G  !!!           |
|           W    W  A    A  R    R  N N  N  II  N N  N  G       !!!           |
|           W WW W  AAAAAA  RRRRR   N  N N  II  N  N N  G  GGG   !            |
|           WW  WW  A    A  R   R   N   NN  II  N   NN  G    G                |
|           W    W  A    A  R    R  N    N  II  N    N   GGGG   !!!           |
|                                                                             |
|     For optimal performance we recommend to set                             |
|       NCORE = 2 up to number-of-cores-per-socket                            |
|     NCORE specifies how many cores store one orbital (NPAR=cpu/NCORE).      |
|     This setting can greatly improve the performance of VASP for DFT.       |
|     The default, NCORE=1 might be grossly inefficient on modern             |
|     multi-core architectures or massively parallel machines. Do your        |
|     own testing! More info at https://www.vasp.at/wiki/index.php/NCORE      |
|     Unfortunately you need to use the default for GW and RPA                |
|     calculations (for HF NCORE is supported but not extensively tested      |
|     yet).                                                                   |
|                                                                             |
 -----------------------------------------------------------------------------

 POTCAR:    PAW_PBE B 06Sep2000                   
   VRHFIN =B: s2p1                                                                                  
   LEXCH  = PE                                                                                      
   EATOM  =    71.1703 eV,    5.2309 Ry                                                             
                                                                                                    
   TITEL  = PAW_PBE B 06Sep2000                                                                     
   LULTRA =        F    use ultrasoft PP ?                                                          
   IUNSCR =        1    unscreen: 0-lin 1-nonlin 2-no                                               
   RPACOR =    1.200    partial core radius                                                         
   POMASS =   10.811; ZVAL   =    3.000    mass and valenz                                          
   RCORE  =    1.700    outmost cutoff radius                                                       
   RWIGS  =    1.710; RWIGS  =    0.905    wigner-seitz radius (au A)                               
   ENMAX  =  318.614; ENMIN  =  238.960 eV                                                          
   ICORE  =        2    local potential                                                             
   LCOR   =        T    correct aug charges                                                         
   LPAW   =        T    paw PP                                                                      
   EAUG   =  535.514                                                                                
   DEXC   =    0.000                                                                                
   RMAX   =    1.732    core radius for proj-oper                                                   
   RAUG   =    1.300    factor for augmentation sphere                                              
   RDEP   =    1.757    radius for radial grids                                                     
   RDEPT  =    1.436    core radius for aug-charge                                                  
                                                                                                    
   Atomic configuration                                                                             
    4 entries                                                                                       
     n  l   j            E        occ.                                                              
     1  0  0.50      -180.5896   2.0000                                                             
     2  0  0.50        -9.4431   2.0000                                                             
     2  1  0.50        -3.6068   1.0000                                                             
     3  2  1.50        -4.0817   0.0000                                                             
   Description                                                                                      
     l       E           TYP  RCUT    TYP  RCUT                                                     
     0     -9.4430752     23  1.500                                                                 
     0      0.8675899     23  1.500                                                                 
     1     -3.6067955     23  1.700                                                                 
     1      6.1086146     23  1.700                                                                 
     2     -4.0817478      7  1.700                                                                 
  local pseudopotential read in
  partial core-charges read in
  partial kinetic energy density read in
  atomic valenz-charges read in
  non local Contribution for L=           0  read in
    real space projection operators read in
  non local Contribution for L=           0  read in
    real space projection operators read in
  non local Contribution for L=           1  read in
    real space projection operators read in
  non local Contribution for L=           1  read in
    real space projection operators read in
    PAW grid and wavefunctions read in
 
   number of l-projection  operators is LMAX  =           4
   number of lm-projection operators is LMMAX =           8
 
 POTCAR:    PAW_PBE Mo_sv 02Feb2006               
   VRHFIN =Mo: 4p5s4d                                                                               
   LEXCH  = PE                                                                                      
   EATOM  =  1862.2866 eV,  136.8742 Ry                                                             
                                                                                                    
   TITEL  = PAW_PBE Mo_sv 02Feb2006                                                                 
   LULTRA =        F    use ultrasoft PP ?                                                          
   IUNSCR =        1    unscreen: 0-lin 1-nonlin 2-no                                               
   RPACOR =    2.200    partial core radius                                                         
   POMASS =   95.940; ZVAL   =   14.000    mass and valenz                                          
   RCORE  =    2.500    outmost cutoff radius                                                       
   RWIGS  =    2.750; RWIGS  =    1.455    wigner-seitz radius (au A)                               
   ENMAX  =  242.676; ENMIN  =  182.007 eV                                                          
   ICORE  =        3    local potential                                                             
   LCOR   =        T    correct aug charges                                                         
   LPAW   =        T    paw PP                                                                      
   EAUG   =  446.014                                                                                
   DEXC   =    0.000                                                                                
   RMAX   =    2.563    core radius for proj-oper                                                   
   RAUG   =    1.300    factor for augmentation sphere                                              
   RDEP   =    2.641    radius for radial grids                                                     
   RDEPT  =    2.031    core radius for aug-charge                                                  
                                                                                                    
   Atomic configuration                                                                             
   11 entries                                                                                       
     n  l   j            E        occ.                                                              
     1  0  0.50    -19819.0341   2.0000                                                             
     2  0  0.50     -2799.0127   2.0000                                                             
     2  1  1.50     -2502.0276   6.0000                                                             
     3  0  0.50      -476.4449   2.0000                                                             
     3  1  1.50      -379.1496   6.0000                                                             
     3  2  2.50      -220.9367  10.0000                                                             
     4  0  0.50       -64.3378   2.0000                                                             
     5  0  0.50        -4.0862   1.0000                                                             
     4  1  1.50       -38.4773   6.0000                                                             
     4  2  2.50        -3.7535   5.0000                                                             
     4  3  2.50        -1.3606   0.0000                                                             
   Description                                                                                      
     l       E           TYP  RCUT    TYP  RCUT                                                     
     0    -64.3377829     23  2.100                                                                 
     0     -4.0861640     23  2.400                                                                 
     1    -38.4772993     23  2.100                                                                 
     1     13.6058260     23  2.100                                                                 
     2     -3.7534941     23  2.400                                                                 
     2     -5.1140767     23  2.400                                                                 
     3     -4.0817478     23  2.500                                                                 
  local pseudopotential read in
  partial core-charges read in
  partial kinetic energy density read in
  atomic valenz-charges read in
  non local Contribution for L=           0  read in
    real space projection operators read in
  non local Contribution for L=           0  read in
    real space projection operators read in
  non local Contribution for L=           1  read in
    real space projection operators read in
  non local Contribution for L=           1  read in
    real space projection operators read in
  non local Contribution for L=           2  read in
    real space projection operators read in
  non local Contribution for L=           2  read in
    real space projection operators read in
    PAW grid and wavefunctions read in
 
   number of l-projection  operators is LMAX  =           6
   number of lm-projection operators is LMMAX =          18
 
 POTCAR:    PAW_PBE Si 05Jan2001                  
   VRHFIN =Si: s2p2                                                                                 
   LEXCH  = PE                                                                                      
   EATOM  =   103.0669 eV,    7.5752 Ry                                                             
                                                                                                    
   TITEL  = PAW_PBE Si 05Jan2001                                                                    
   LULTRA =        F    use ultrasoft PP ?                                                          
   IUNSCR =        1    unscreen: 0-lin 1-nonlin 2-no                                               
   RPACOR =    1.500    partial core radius                                                         
   POMASS =   28.085; ZVAL   =    4.000    mass and valenz                                          
   RCORE  =    1.900    outmost cutoff radius                                                       
   RWIGS  =    2.480; RWIGS  =    1.312    wigner-seitz radius (au A)                               
   ENMAX  =  245.345; ENMIN  =  184.009 eV                                                          
   ICORE  =        2    local potential                                                             
   LCOR   =        T    correct aug charges                                                         
   LPAW   =        T    paw PP                                                                      
   EAUG   =  322.069                                                                                
   DEXC   =    0.000                                                                                
   RMAX   =    1.950    core radius for proj-oper                                                   
   RAUG   =    1.300    factor for augmentation sphere                                              
   RDEP   =    1.993    radius for radial grids                                                     
   RDEPT  =    1.837    core radius for aug-charge                                                  
                                                                                                    
   Atomic configuration                                                                             
    6 entries                                                                                       
     n  l   j            E        occ.                                                              
     1  0  0.50     -1785.8828   2.0000                                                             
     2  0  0.50      -139.4969   2.0000                                                             
     2  1  1.50       -95.5546   6.0000                                                             
     3  0  0.50       -10.8127   2.0000                                                             
     3  1  0.50        -4.0811   2.0000                                                             
     3  2  1.50        -4.0817   0.0000                                                             
   Description                                                                                      
     l       E           TYP  RCUT    TYP  RCUT                                                     
     0    -10.8127223     23  1.900                                                                 
     0     -7.6451159     23  1.900                                                                 
     1     -4.0811372     23  1.900                                                                 
     1      2.4879257     23  1.900                                                                 
     2     -4.0817478      7  1.900                                                                 
  local pseudopotential read in
  partial core-charges read in
  partial kinetic energy density read in
  atomic valenz-charges read in
  non local Contribution for L=           0  read in
    real space projection operators read in
  non local Contribution for L=           0  read in
    real space projection operators read in
  non local Contribution for L=           1  read in
    real space projection operators read in
  non local Contribution for L=           1  read in
    real space projection operators read in
    PAW grid and wavefunctions read in
 
   number of l-projection  operators is LMAX  =           4
   number of lm-projection operators is LMMAX =           8
 
 -----------------------------------------------------------------------------
|                                                                             |
|               ----> ADVICE to this user running VASP <----                  |
|                                                                             |
|     You have a (more or less) 'large supercell' and for larger cells it     |
|     might be more efficient to use real-space projection operators.         |
|     Therefore, try LREAL= Auto in the INCAR file.                           |
|     Mind: For very accurate calculation, you might also keep the            |
|     reciprocal projection scheme (i.e. LREAL=.FALSE.).                      |
|                                                                             |
 -----------------------------------------------------------------------------

  PAW_PBE B 06Sep2000                   :
 energy of atom  1       EATOM=  -71.1703
 kinetic energy error for atom=    0.0007 (will be added to EATOM!!)
  PAW_PBE Mo_sv 02Feb2006               :
 energy of atom  2       EATOM=-1862.2866
 kinetic energy error for atom=    0.0041 (will be added to EATOM!!)
  PAW_PBE Si 05Jan2001                  :
 energy of atom  3       EATOM= -103.0669
 kinetic energy error for atom=    0.0003 (will be added to EATOM!!)
 
 
 POSCAR: EA142
  positions in direct lattice
  No initial velocities read in

 METAGGA = R2SCA    LMAXTAU =  6    LMIXTAU =  F

 exchange correlation table for  LEXCH =        8
   RHO(1)=    0.500       N(1)  =     2000
   RHO(2)=  100.500       N(2)  =     4000
 


--------------------------------------------------------------------------------------------------------


 ion  position               nearest neighbor table
   1  0.500  0.000  0.000-  12 1.21  15 1.21   6 2.27  10 2.27   8 2.38   7 2.38
   2  0.000  0.000  0.500-  16 1.21  17 1.21   6 2.27  10 2.27   9 2.38   5 2.38
   3  0.500  0.500  0.500-  11 1.21  18 1.21  10 2.27   6 2.27   5 2.38   9 2.38
   4  0.000  0.500  0.000-  13 1.21  14 1.21   6 2.27  10 2.27   8 2.38   7 2.38
   5  0.801  0.699  0.500-  16 2.02  18 2.02   2 2.38   3 2.38  13 2.74  14 2.74  12 2.74  15 2.74
                            11 3.19  17 3.19   7 3.27   8 3.27   8 3.27   7 3.27   6 3.29   6 3.29
   6  0.250  0.250  0.000-   3 2.27   2 2.27   4 2.27   1 2.27  16 2.57  18 2.57  11 2.57  17 2.57
                            12 2.57  15 2.57  14 2.57  13 2.57   5 3.29   5 3.29   7 3.29   8 3.29
   7  0.301  0.801  0.102-  14 2.02  12 2.02   4 2.38   1 2.38  16 2.74  11 2.74  17 2.74  18 2.74
                            15 3.19  13 3.19   9 3.27   5 3.27   5 3.27   9 3.27  10 3.29   6 3.29
   8  0.699  0.199  0.898-  13 2.02  15 2.02   4 2.38   1 2.38  18 2.74  17 2.74  11 2.74  16 2.74
                            12 3.19  14 3.19   5 3.27   9 3.27   9 3.27   5 3.27   6 3.29  10 3.29
   9  0.199  0.301  0.500-  11 2.02  17 2.02   2 2.38   3 2.38  14 2.74  13 2.74  12 2.74  15 2.74
                            18 3.19  16 3.19   7 3.27   8 3.27   8 3.27   7 3.27  10 3.29  10 3.29
  10  0.750  0.750  0.000-   2 2.27   3 2.27   4 2.27   1 2.27  17 2.57  11 2.57  16 2.57  18 2.57
                            15 2.57  12 2.57  13 2.57  14 2.57   9 3.29   9 3.29   8 3.29   7 3.29
  11  0.508  0.315  0.500-   3 1.21   9 2.02  18 2.41  10 2.57   6 2.57  15 2.57  14 2.57   7 2.74
                             8 2.74  16 2.78  17 3.02   5 3.19
  12  0.315  0.815  0.807-   1 1.21   7 2.02  15 2.41  10 2.57   6 2.57  17 2.57  18 2.57   9 2.74
                             5 2.74  13 2.78  14 3.02   8 3.19
  13  0.008  0.508  0.193-   4 1.21   8 2.02  14 2.41  10 2.57   6 2.57  17 2.57  18 2.57   5 2.74
                             9 2.74  12 2.78  15 3.02   7 3.19
  14  0.992  0.492  0.807-   4 1.21   7 2.02  13 2.41  10 2.57   6 2.57  16 2.57  11 2.57   5 2.74
                             9 2.74  15 2.78  12 3.02   8 3.19
  15  0.685  0.185  0.193-   1 1.21   8 2.02  12 2.41  10 2.57   6 2.57  11 2.57  16 2.57   5 2.74
                             9 2.74  14 2.78  13 3.02   7 3.19
  16  0.815  0.008  0.500-   2 1.21   5 2.02  17 2.41   6 2.57  10 2.57  15 2.57  14 2.57   7 2.74
                             8 2.74  11 2.78  18 3.02   9 3.19
  17  0.185  0.992  0.500-   2 1.21   9 2.02  16 2.41  10 2.57   6 2.57  12 2.57  13 2.57   8 2.74
                             7 2.74  18 2.78  11 3.02   5 3.19
  18  0.492  0.685  0.500-   3 1.21   5 2.02  11 2.41   6 2.57  10 2.57  12 2.57  13 2.57   8 2.74
                             7 2.74  17 2.78  16 3.02   9 3.19
 
 -----------------------------------------------------------------------------
|                                                                             |
|           W    W    AA    RRRRR   N    N  II  N    N   GGGG   !!!           |
|           W    W   A  A   R    R  NN   N  II  NN   N  G    G  !!!           |
|           W    W  A    A  R    R  N N  N  II  N N  N  G       !!!           |
|           W WW W  AAAAAA  RRRRR   N  N N  II  N  N N  G  GGG   !            |
|           WW  WW  A    A  R   R   N   NN  II  N   NN  G    G                |
|           W    W  A    A  R    R  N    N  II  N    N   GGGG   !!!           |
|                                                                             |
|     The distance between some ions is very small. Please check the          |
|     nearest-neighbor list in the OUTCAR file.                               |
|     I HOPE YOU KNOW WHAT YOU ARE DOING!                                     |
|                                                                             |
 -----------------------------------------------------------------------------

  Warning from LATTYP: Got some problem with cell dimensions!
  Tried to take original basis but could not verify dimensions!
  LATTYP: Found a base centered monoclinic cell.
 ALAT       =     9.0764160466
 B/A-ratio  =     1.0000157334
 C/A-ratio  =     0.7178924486
 COS(beta)  =    -0.6964722003
  
  Lattice vectors:
  
 A1 = (   1.7886945420,  -5.2916263992,  -3.1607869411)
 A2 = (  -5.5857620889,   0.0000000000,  -3.1607869411)
 A3 = (   3.7970675468,   5.2916263992,  -0.1944161178)


Analysis of symmetry for initial positions (statically):
=====================================================================
 Subroutine PRICEL returns:
 Original cell was already a primitive cell.
 

 Routine SETGRP: Setting up the symmetry group for a 
 base centered monoclinic supercell.


 Subroutine GETGRP returns: Found  4 space group operations
 (whereof  2 operations were pure point group operations)
 out of a pool of  4 trial point group operations.


The static configuration has the point symmetry S_2 .
 The point group associated with its full space group is C_2h.


Analysis of symmetry for dynamics (positions and initial velocities):
=====================================================================
 Subroutine PRICEL returns:
 Original cell was already a primitive cell.
 

 Routine SETGRP: Setting up the symmetry group for a 
 base centered monoclinic supercell.


 Subroutine GETGRP returns: Found  4 space group operations
 (whereof  2 operations were pure point group operations)
 out of a pool of  4 trial point group operations.


The dynamic configuration has the point symmetry S_2 .
 The point group associated with its full space group is C_2h.


 Subroutine INISYM returns: Found  4 space group operations
 (whereof  2 operations are pure point group operations),
 and found     1 'primitive' translations


----------------------------------------------------------------------------------------

                                     Primitive cell                                     

  volume of cell :     192.5981

  direct lattice vectors                    reciprocal lattice vectors
     5.585762089  0.000000000 -3.355203059     0.179026601  0.060515214  0.000000000
    -1.788694542  5.291626399 -3.355203059     0.000000000  0.188977816  0.000000000
     0.000000000  0.000000000  6.515990000     0.092184089  0.128468549  0.153468621

  length of vectors
     6.515990000  6.515990000  6.515990000     0.188977816  0.188977816  0.220351292

  position of ions in fractional coordinates (direct lattice)
     0.500000000  0.000000000  1.000000000
     0.000000000  0.000000000  0.500000000
     0.500000000  0.500000000  0.500000000
     0.000000000  0.500000000  0.000000000
     0.800750000  0.699250000  0.500000000
     0.250000000  0.250000000  1.000000000
     0.300750000  0.800750000  0.101500000
     0.699250000  0.199250000  0.898500000
     0.199250000  0.300750000  0.500000000
     0.750000000  0.750000000  1.000000000
     0.508310000  0.314860000  0.500000000
     0.314860000  0.814860000  0.806540000
     0.008310000  0.508310000  0.193460000
     0.991690000  0.491690000  0.806540000
     0.685140000  0.185140000  0.193460000
     0.814860000  0.008310000  0.500000000
     0.185140000  0.991690000  0.500000000
     0.491690000  0.685140000  0.500000000

  ion indices of the primitive-cell ions
   primitive index   ion index
                 1           1
                 2           2
                 3           3
                 4           4
                 5           5
                 6           6
                 7           7
                 8           8
                 9           9
                10          10
                11          11
                12          12
                13          13
                14          14
                15          15
                16          16
                17          17
                18          18

----------------------------------------------------------------------------------------

 
 
 KPOINTS: EA                                      

Automatic generation of k-mesh.
 Grid dimensions read from file:
 generate k-points for:    7    7    8

 Generating k-lattice:

  Cartesian coordinates                     Fractional coordinates (reciprocal lattice)
     0.025575229  0.008645031  0.000000000     0.142857143  0.000000000  0.000000000
     0.000000000  0.026996831  0.000000000     0.000000000  0.142857143  0.000000000
     0.011523011  0.016058569  0.019183578    -0.000000000  0.000000000  0.125000000

  Length of vectors
     0.026996831  0.026996831  0.027543911

  Shift w.r.t. Gamma in fractional coordinates (k-lattice)
     0.000000000  0.000000000  0.000000000

 
 Subroutine IBZKPT returns following result:
 ===========================================
 
 Found    116 irreducible k-points:
 
 Following reciprocal coordinates:
            Coordinates               Weight
  0.000000  0.000000  0.000000      1.000000
  0.142857  0.000000  0.000000      4.000000
  0.285714  0.000000  0.000000      4.000000
  0.428571  0.000000  0.000000      4.000000
  0.142857  0.142857  0.000000      2.000000
  0.285714  0.142857  0.000000      4.000000
  0.428571  0.142857  0.000000      4.000000
 -0.428571  0.142857  0.000000      4.000000
 -0.285714  0.142857  0.000000      4.000000
 -0.142857  0.142857  0.000000      2.000000
  0.285714  0.285714  0.000000      2.000000
  0.428571  0.285714  0.000000      4.000000
 -0.428571  0.285714  0.000000      4.000000
 -0.285714  0.285714  0.000000      2.000000
  0.428571  0.428571  0.000000      2.000000
 -0.428571  0.428571  0.000000      2.000000
 -0.000000 -0.000000  0.125000      2.000000
  0.142857  0.000000  0.125000      4.000000
  0.285714 -0.000000  0.125000      4.000000
  0.428571  0.000000  0.125000      4.000000
 -0.428571 -0.000000  0.125000      4.000000
 -0.285714  0.000000  0.125000      4.000000
 -0.142857  0.000000  0.125000      4.000000
  0.142857  0.142857  0.125000      2.000000
  0.285714  0.142857  0.125000      4.000000
  0.428571  0.142857  0.125000      4.000000
 -0.428571  0.142857  0.125000      4.000000
 -0.285714  0.142857  0.125000      4.000000
 -0.142857  0.142857  0.125000      4.000000
  0.285714  0.285714  0.125000      2.000000
  0.428571  0.285714  0.125000      4.000000
 -0.428571  0.285714  0.125000      4.000000
 -0.285714  0.285714  0.125000      4.000000
 -0.142857  0.285714  0.125000      4.000000
  0.428571  0.428571  0.125000      2.000000
 -0.428571  0.428571  0.125000      4.000000
 -0.285714  0.428571  0.125000      4.000000
 -0.142857  0.428571  0.125000      4.000000
 -0.428571 -0.428571  0.125000      2.000000
 -0.285714 -0.428571  0.125000      4.000000
 -0.142857 -0.428571  0.125000      4.000000
 -0.285714 -0.285714  0.125000      2.000000
 -0.142857 -0.285714  0.125000      4.000000
 -0.142857 -0.142857  0.125000      2.000000
 -0.000000 -0.000000  0.250000      2.000000
  0.142857  0.000000  0.250000      4.000000
  0.285714 -0.000000  0.250000      4.000000
  0.428571  0.000000  0.250000      4.000000
 -0.428571  0.000000  0.250000      4.000000
 -0.285714  0.000000  0.250000      4.000000
 -0.142857  0.000000  0.250000      4.000000
  0.142857  0.142857  0.250000      2.000000
  0.285714  0.142857  0.250000      4.000000
  0.428571  0.142857  0.250000      4.000000
 -0.428571  0.142857  0.250000      4.000000
 -0.285714  0.142857  0.250000      4.000000
 -0.142857  0.142857  0.250000      4.000000
  0.285714  0.285714  0.250000      2.000000
  0.428571  0.285714  0.250000      4.000000
 -0.428571  0.285714  0.250000      4.000000
 -0.285714  0.285714  0.250000      4.000000
 -0.142857  0.285714  0.250000      4.000000
  0.428571  0.428571  0.250000      2.000000
 -0.428571  0.428571  0.250000      4.000000
 -0.285714  0.428571  0.250000      4.000000
 -0.142857  0.428571  0.250000      4.000000
 -0.428571 -0.428571  0.250000      2.000000
 -0.285714 -0.428571  0.250000      4.000000
 -0.142857 -0.428571  0.250000      4.000000
 -0.285714 -0.285714  0.250000      2.000000
 -0.142857 -0.285714  0.250000      4.000000
 -0.142857 -0.142857  0.250000      2.000000
 -0.000000  0.000000  0.375000      2.000000
  0.142857  0.000000  0.375000      4.000000
  0.285714  0.000000  0.375000      4.000000
  0.428571  0.000000  0.375000      4.000000
 -0.428571 -0.000000  0.375000      4.000000
 -0.285714  0.000000  0.375000      4.000000
 -0.142857  0.000000  0.375000      4.000000
  0.142857  0.142857  0.375000      2.000000
  0.285714  0.142857  0.375000      4.000000
  0.428571  0.142857  0.375000      4.000000
 -0.428571  0.142857  0.375000      4.000000
 -0.285714  0.142857  0.375000      4.000000
 -0.142857  0.142857  0.375000      4.000000
  0.285714  0.285714  0.375000      2.000000
  0.428571  0.285714  0.375000      4.000000
 -0.428571  0.285714  0.375000      4.000000
 -0.285714  0.285714  0.375000      4.000000
 -0.142857  0.285714  0.375000      4.000000
  0.428571  0.428571  0.375000      2.000000
 -0.428571  0.428571  0.375000      4.000000
 -0.285714  0.428571  0.375000      4.000000
 -0.142857  0.428571  0.375000      4.000000
 -0.428571 -0.428571  0.375000      2.000000
 -0.285714 -0.428571  0.375000      4.000000
 -0.142857 -0.428571  0.375000      4.000000
 -0.285714 -0.285714  0.375000      2.000000
 -0.142857 -0.285714  0.375000      4.000000
 -0.142857 -0.142857  0.375000      2.000000
 -0.000000 -0.000000  0.500000      1.000000
  0.142857  0.000000  0.500000      4.000000
  0.285714  0.000000  0.500000      4.000000
  0.428571  0.000000  0.500000      4.000000
  0.142857  0.142857  0.500000      2.000000
  0.285714  0.142857  0.500000      4.000000
  0.428571  0.142857  0.500000      4.000000
 -0.428571  0.142857  0.500000      4.000000
 -0.285714  0.142857  0.500000      4.000000
 -0.142857  0.142857  0.500000      2.000000
  0.285714  0.285714  0.500000      2.000000
  0.428571  0.285714  0.500000      4.000000
 -0.428571  0.285714  0.500000      4.000000
 -0.285714  0.285714  0.500000      2.000000
  0.428571  0.428571  0.500000      2.000000
 -0.428571  0.428571  0.500000      2.000000
 
 Following cartesian coordinates:
            Coordinates               Weight
  0.000000  0.000000  0.000000      1.000000
  0.025575  0.008645  0.000000      4.000000
  0.051150  0.017290  0.000000      4.000000
  0.076726  0.025935  0.000000      4.000000
  0.025575  0.035642  0.000000      2.000000
  0.051150  0.044287  0.000000      4.000000
  0.076726  0.052932  0.000000      4.000000
 -0.076726  0.001062  0.000000      4.000000
 -0.051150  0.009707  0.000000      4.000000
 -0.025575  0.018352  0.000000      2.000000
  0.051150  0.071284  0.000000      2.000000
  0.076726  0.079929  0.000000      4.000000
 -0.076726  0.028059  0.000000      4.000000
 -0.051150  0.036704  0.000000      2.000000
  0.076726  0.106926  0.000000      2.000000
 -0.076726  0.055055  0.000000      2.000000
  0.011523  0.016059  0.019184      2.000000
  0.037098  0.024704  0.019184      4.000000
  0.062673  0.033349  0.019184      4.000000
  0.088249  0.041994  0.019184      4.000000
 -0.065203 -0.009877  0.019184      4.000000
 -0.039627 -0.001231  0.019184      4.000000
 -0.014052  0.007414  0.019184      4.000000
  0.037098  0.051700  0.019184      2.000000
  0.062673  0.060345  0.019184      4.000000
  0.088249  0.068990  0.019184      4.000000
 -0.065203  0.017120  0.019184      4.000000
 -0.039627  0.025765  0.019184      4.000000
 -0.014052  0.034410  0.019184      4.000000
  0.062673  0.087342  0.019184      2.000000
  0.088249  0.095987  0.019184      4.000000
 -0.065203  0.044117  0.019184      4.000000
 -0.039627  0.052762  0.019184      4.000000
 -0.014052  0.061407  0.019184      4.000000
  0.088249  0.122984  0.019184      2.000000
 -0.065203  0.071114  0.019184      4.000000
 -0.039627  0.079759  0.019184      4.000000
 -0.014052  0.088404  0.019184      4.000000
 -0.065203 -0.090867  0.019184      2.000000
 -0.039627 -0.082222  0.019184      4.000000
 -0.014052 -0.073577  0.019184      4.000000
 -0.039627 -0.055225  0.019184      2.000000
 -0.014052 -0.046580  0.019184      4.000000
 -0.014052 -0.019583  0.019184      2.000000
  0.023046  0.032117  0.038367      2.000000
  0.048621  0.040762  0.038367      4.000000
  0.074196  0.049407  0.038367      4.000000
  0.099772  0.058052  0.038367      4.000000
 -0.053680  0.006182  0.038367      4.000000
 -0.028104  0.014827  0.038367      4.000000
 -0.002529  0.023472  0.038367      4.000000
  0.048621  0.067759  0.038367      2.000000
  0.074196  0.076404  0.038367      4.000000
  0.099772  0.085049  0.038367      4.000000
 -0.053680  0.033179  0.038367      4.000000
 -0.028104  0.041824  0.038367      4.000000
 -0.002529  0.050469  0.038367      4.000000
  0.074196  0.103401  0.038367      2.000000
  0.099772  0.112046  0.038367      4.000000
 -0.053680  0.060176  0.038367      4.000000
 -0.028104  0.068821  0.038367      4.000000
 -0.002529  0.077466  0.038367      4.000000
  0.099772  0.139043  0.038367      2.000000
 -0.053680  0.087173  0.038367      4.000000
 -0.028104  0.095818  0.038367      4.000000
 -0.002529  0.104463  0.038367      4.000000
 -0.053680 -0.074808  0.038367      2.000000
 -0.028104 -0.066163  0.038367      4.000000
 -0.002529 -0.057518  0.038367      4.000000
 -0.028104 -0.039167  0.038367      2.000000
 -0.002529 -0.030522  0.038367      4.000000
 -0.002529 -0.003525  0.038367      2.000000
  0.034569  0.048176  0.057551      2.000000
  0.060144  0.056821  0.057551      4.000000
  0.085719  0.065466  0.057551      4.000000
  0.111295  0.074111  0.057551      4.000000
 -0.042157  0.022241  0.057551      4.000000
 -0.016581  0.030886  0.057551      4.000000
  0.008994  0.039531  0.057551      4.000000
  0.060144  0.083818  0.057551      2.000000
  0.085719  0.092463  0.057551      4.000000
  0.111295  0.101108  0.057551      4.000000
 -0.042157  0.049237  0.057551      4.000000
 -0.016581  0.057882  0.057551      4.000000
  0.008994  0.066528  0.057551      4.000000
  0.085719  0.119459  0.057551      2.000000
  0.111295  0.128104  0.057551      4.000000
 -0.042157  0.076234  0.057551      4.000000
 -0.016581  0.084879  0.057551      4.000000
  0.008994  0.093524  0.057551      4.000000
  0.111295  0.155101  0.057551      2.000000
 -0.042157  0.103231  0.057551      4.000000
 -0.016581  0.111876  0.057551      4.000000
  0.008994  0.120521  0.057551      4.000000
 -0.042157 -0.058750  0.057551      2.000000
 -0.016581 -0.050105  0.057551      4.000000
  0.008994 -0.041460  0.057551      4.000000
 -0.016581 -0.023108  0.057551      2.000000
  0.008994 -0.014463  0.057551      4.000000
  0.008994  0.012534  0.057551      2.000000
  0.046092  0.064234  0.076734      1.000000
  0.071667  0.072879  0.076734      4.000000
  0.097243  0.081524  0.076734      4.000000
  0.122818  0.090169  0.076734      4.000000
  0.071667  0.099876  0.076734      2.000000
  0.097243  0.108521  0.076734      4.000000
  0.122818  0.117166  0.076734      4.000000
 -0.030634  0.065296  0.076734      4.000000
 -0.005058  0.073941  0.076734      4.000000
  0.020517  0.082586  0.076734      2.000000
  0.097243  0.135518  0.076734      2.000000
  0.122818  0.144163  0.076734      4.000000
 -0.030634  0.092293  0.076734      4.000000
 -0.005058  0.100938  0.076734      2.000000
  0.122818  0.171160  0.076734      2.000000
 -0.030634  0.119290  0.076734      2.000000
 


--------------------------------------------------------------------------------------------------------




 Dimension of arrays:
   k-points           NKPTS =    116   k-points in BZ     NKDIM =    116   number of bands    NBANDS=     78
   number of dos      NEDOS =    301   number of ions     NIONS =     18
   non local maximal  LDIM  =      6   non local SUM 2l+1 LMDIM =     18
   total plane-waves  NPLWV = 157464
   max r-space proj   IRMAX =      1   max aug-charges    IRDMAX= 286198
   dimension x,y,z NGX =    54 NGY =   54 NGZ =   54
   dimension x,y,z NGXF=   108 NGYF=  108 NGZF=  108
   support grid    NGXF=   216 NGYF=  216 NGZF=  216
   ions per type =               4   6   8
   NGX,Y,Z   is equivalent  to a cutoff of  13.78, 13.78, 13.78 a.u.
   NGXF,Y,Z  is equivalent  to a cutoff of  27.55, 27.55, 27.55 a.u.

 SYSTEM =  routine with relax: pwdword             
 POSCAR =  EA142                                   

 Startparameter for this run:
   NWRITE =      2    write-flag & timer
   PREC   = acc       normal or accurate (medium, high low for compatibility)
   ISTART =      0    job   : 0-new  1-cont  2-samecut
   ICHARG =      2    charge: 1-file 2-atom 10-const
   ISPIN  =      1    spin polarized calculation?
   LNONCOLLINEAR =      F non collinear calculations
   LSORBIT =      F    spin-orbit coupling
   INIWAV =      1    electr: 0-lowe 1-rand  2-diag
   LASPH  =      T    aspherical Exc in radial PAW
   METAGGA=      F    non-selfconsistent MetaGGA calc.

 Electronic Relaxation 1
   ENCUT  =  600.0 eV  44.10 Ry    6.64 a.u.  13.01 13.01 13.01*2*pi/ulx,y,z
   ENINI  =  600.0     initial cutoff
   ENAUG  =  535.5 eV  augmentation charge cutoff
   NELM   =    100;   NELMIN=  6; NELMDL= -5     # of ELM steps 
   EDIFF  = 0.1E-08   stopping-criterion for ELM
   LREAL  =      F    real-space projection
   NLSPLINE    = F    spline interpolate recip. space projectors
   LCOMPAT=      F    compatible to vasp.4.4
   GGA_COMPAT  = T    GGA compatible to vasp.4.4-vasp.4.6
   LMAXPAW     = -100 max onsite density
   LMAXMIX     =    2 max onsite mixed and CHGCAR
   VOSKOWN=      0    Vosko Wilk Nusair interpolation
   ROPT   =    0.00000   0.00000   0.00000
 Ionic relaxation
   EDIFFG = 0.1E-07   stopping-criterion for IOM
   NSW    =      0    number of steps for IOM
   NBLOCK =      1;   KBLOCK =      1    inner block; outer block 
   IBRION =     -1    ionic relax: 0-MD 1-quasi-New 2-CG
   NFREE  =      0    steps in history (QN), initial steepest desc. (CG)
   ISIF   =     -1    stress and relaxation
   IWAVPR =     10    prediction:  0-non 1-charg 2-wave 3-comb
   ISYM   =      2    0-nonsym 1-usesym 2-fastsym
   LCORR  =      T    Harris-Foulkes like correction to forces

   POTIM  = 0.5000    time-step for ionic-motion
   TEIN   =    0.0    initial temperature
   TEBEG  =    0.0;   TEEND  =   0.0 temperature during run
   SMASS  =  -3.00    Nose mass-parameter (am)
   estimated Nose-frequenzy (Omega)   =  0.10E-29 period in steps = 0.13E+47 mass=  -0.970E-27a.u.
   SCALEE = 1.0000    scale energy and forces
   NPACO  =    256;   APACO  = 16.0  distance and # of slots for P.C.
   PSTRESS=    0.0 pullay stress

  Mass of Ions in am
   POMASS =  10.81 95.94 28.09
  Ionic Valenz
   ZVAL   =   3.00 14.00  4.00
  Atomic Wigner-Seitz radii
   RWIGS  =  -1.00 -1.00 -1.00
  virtual crystal weights 
   VCA    =   1.00  1.00  1.00
   NELECT =     128.0000    total number of electrons
   NUPDOWN=      -1.0000    fix difference up-down

 DOS related values:
   EMIN   =  10.00;   EMAX   =-10.00  energy-range for DOS
   EFERMI =   0.00
   ISMEAR =     0;   SIGMA  =   0.02  broadening in eV -4-tet -1-fermi 0-gaus

 Electronic relaxation 2 (details)
   IALGO  =     58    algorithm
   LDIAG  =      T    sub-space diagonalisation (order eigenvalues)
   LSUBROT=      F    optimize rotation matrix (better conditioning)
   TURBO    =      0    0=normal 1=particle mesh
   IRESTART =      0    0=no restart 2=restart with 2 vectors
   NREBOOT  =      0    no. of reboots
   NMIN     =      0    reboot dimension
   EREF     =   0.00    reference energy to select bands
   IMIX   =      4    mixing-type and parameters
     AMIX     =   0.40;   BMIX     =  1.00
     AMIX_MAG =   1.60;   BMIX_MAG =  1.00
     AMIN     =   0.10
     WC   =   100.;   INIMIX=   1;  MIXPRE=   1;  MAXMIX= -45

 Intra band minimization:
   WEIMIN = 0.0000     energy-eigenvalue tresh-hold
   EBREAK =  0.32E-11  absolut break condition
   DEPER  =   0.30     relativ break condition  

   TIME   =   0.40     timestep for ELM

  volume/ion in A,a.u.               =      10.70        72.21
  Fermi-wavevector in a.u.,A,eV,Ry     =   1.428655  2.699767 27.770256  2.041056
  Thomas-Fermi vector in A             =   2.548694
 
 Write flags
   LWAVE        =      T    write WAVECAR
   LDOWNSAMPLE  =      F    k-point downsampling of WAVECAR
   LCHARG       =      T    write CHGCAR
   LVTOT        =      F    write LOCPOT, total local potential
   LVHAR        =      F    write LOCPOT, Hartree potential only
   LELF         =      F    write electronic localiz. function (ELF)
   LORBIT       =      0    0 simple, 1 ext, 2 COOP (PROOUT), +10 PAW based schemes


 Dipole corrections
   LMONO  =      F    monopole corrections only (constant potential shift)
   LDIPOL =      F    correct potential (dipole corrections)
   IDIPOL =      0    1-x, 2-y, 3-z, 4-all directions 
   EPSILON=  1.0000000 bulk dielectric constant

 Exchange correlation treatment:
   GGA     =    --    GGA type
   LEXCH   =     8    internal setting for exchange type
   VOSKOWN=      0    Vosko Wilk Nusair interpolation
   LHFCALC =     F    Hartree Fock is set to
   LHFONE  =     F    Hartree Fock one center treatment
   AEXX    =    0.0000 exact exchange contribution

 Linear response parameters
   LEPSILON=     F    determine dielectric tensor
   LRPA    =     F    only Hartree local field effects (RPA)
   LNABLA  =     F    use nabla operator in PAW spheres
   LVEL    =     F    velocity operator in full k-point grid
   LINTERFAST=   F  fast interpolation
   KINTER  =     0    interpolate to denser k-point grid
   CSHIFT  =0.1000    complex shift for real part using Kramers Kronig
   OMEGAMAX=  -1.0    maximum frequency
   DEG_THRESHOLD= 0.2000000E-02 threshold for treating states as degnerate
   RTIME   =   -0.100 relaxation time in fs
  (WPLASMAI=    0.000 imaginary part of plasma frequency in eV, 0.658/RTIME)
   DFIELD  = 0.0000000 0.0000000 0.0000000 field for delta impulse in time
 
 Orbital magnetization related:
   ORBITALMAG=     F  switch on orbital magnetization
   LCHIMAG   =     F  perturbation theory with respect to B field
   DQ        =  0.001000  dq finite difference perturbation B field
   LLRAUG    =     F  two centre corrections for induced B field



--------------------------------------------------------------------------------------------------------


 Static calculation
 charge density and potential will be updated during run
 non-spin polarized calculation
 Conjugate gradient for all bands (Freysoldt, et al. PRB 79, 241103 (2009))
 preconditioned conjugated gradient                                        
 perform sub-space diagonalisation
    before iterative eigenvector-optimisation
 modified Broyden-mixing scheme, WC =      100.0
 initial mixing is a Kerker type mixing with AMIX =  0.4000 and BMIX =      1.0000
 Hartree-type preconditioning will be used
 using additional bands           14
 reciprocal scheme for non local part
 use partial core corrections
 no Harris-corrections to forces 
 use gradient corrections 
 use of overlap-Matrix (Vanderbilt PP)
 Gauss-broadening in eV      SIGMA  =   0.02


--------------------------------------------------------------------------------------------------------


  energy-cutoff  :      600.00
  volume of cell :      192.60
      direct lattice vectors                 reciprocal lattice vectors
     5.585762089  0.000000000 -3.355203059     0.179026601  0.060515214  0.000000000
    -1.788694542  5.291626399 -3.355203059     0.000000000  0.188977816  0.000000000
     0.000000000  0.000000000  6.515990000     0.092184089  0.128468549  0.153468621

  length of vectors
     6.515990000  6.515990000  6.515990000     0.188977816  0.188977816  0.220351292


 
 k-points in units of 2pi/SCALE and weight: EA                                      
   0.00000000  0.00000000  0.00000000       0.003
   0.02557523  0.00864503  0.00000000       0.010
   0.05115046  0.01729006  0.00000000       0.010
   0.07672569  0.02593509  0.00000000       0.010
   0.02557523  0.03564186  0.00000000       0.005
   0.05115046  0.04428689  0.00000000       0.010
   0.07672569  0.05293192  0.00000000       0.010
  -0.07672569  0.00106174  0.00000000       0.010
  -0.05115046  0.00970677  0.00000000       0.010
  -0.02557523  0.01835180  0.00000000       0.005
   0.05115046  0.07128372  0.00000000       0.005
   0.07672569  0.07992875  0.00000000       0.010
  -0.07672569  0.02805857  0.00000000       0.010
  -0.05115046  0.03670360  0.00000000       0.005
   0.07672569  0.10692558  0.00000000       0.005
  -0.07672569  0.05505540  0.00000000       0.005
   0.01152301  0.01605857  0.01918358       0.005
   0.03709824  0.02470360  0.01918358       0.010
   0.06267347  0.03334863  0.01918358       0.010
   0.08824870  0.04199366  0.01918358       0.010
  -0.06520268 -0.00987652  0.01918358       0.010
  -0.03962745 -0.00123149  0.01918358       0.010
  -0.01405222  0.00741354  0.01918358       0.010
   0.03709824  0.05170043  0.01918358       0.005
   0.06267347  0.06034546  0.01918358       0.010
   0.08824870  0.06899049  0.01918358       0.010
  -0.06520268  0.01712031  0.01918358       0.010
  -0.03962745  0.02576534  0.01918358       0.010
  -0.01405222  0.03441037  0.01918358       0.010
   0.06267347  0.08734229  0.01918358       0.005
   0.08824870  0.09598732  0.01918358       0.010
  -0.06520268  0.04411714  0.01918358       0.010
  -0.03962745  0.05276217  0.01918358       0.010
  -0.01405222  0.06140720  0.01918358       0.010
   0.08824870  0.12298415  0.01918358       0.005
  -0.06520268  0.07111397  0.01918358       0.010
  -0.03962745  0.07975900  0.01918358       0.010
  -0.01405222  0.08840403  0.01918358       0.010
  -0.06520268 -0.09086702  0.01918358       0.005
  -0.03962745 -0.08222199  0.01918358       0.010
  -0.01405222 -0.07357695  0.01918358       0.010
  -0.03962745 -0.05522515  0.01918358       0.005
  -0.01405222 -0.04658012  0.01918358       0.010
  -0.01405222 -0.01958329  0.01918358       0.005
   0.02304602  0.03211714  0.03836716       0.005
   0.04862125  0.04076217  0.03836716       0.010
   0.07419648  0.04940720  0.03836716       0.010
   0.09977171  0.05805223  0.03836716       0.010
  -0.05367966  0.00618205  0.03836716       0.010
  -0.02810444  0.01482708  0.03836716       0.010
  -0.00252921  0.02347211  0.03836716       0.010
   0.04862125  0.06775900  0.03836716       0.005
   0.07419648  0.07640403  0.03836716       0.010
   0.09977171  0.08504906  0.03836716       0.010
  -0.05367966  0.03317888  0.03836716       0.010
  -0.02810444  0.04182391  0.03836716       0.010
  -0.00252921  0.05046894  0.03836716       0.010
   0.07419648  0.10340086  0.03836716       0.005
   0.09977171  0.11204589  0.03836716       0.010
  -0.05367966  0.06017571  0.03836716       0.010
  -0.02810444  0.06882074  0.03836716       0.010
  -0.00252921  0.07746577  0.03836716       0.010
   0.09977171  0.13904272  0.03836716       0.005
  -0.05367966  0.08717254  0.03836716       0.010
  -0.02810444  0.09581757  0.03836716       0.010
  -0.00252921  0.10446260  0.03836716       0.010
  -0.05367966 -0.07480845  0.03836716       0.005
  -0.02810444 -0.06616342  0.03836716       0.010
  -0.00252921 -0.05751839  0.03836716       0.010
  -0.02810444 -0.03916659  0.03836716       0.005
  -0.00252921 -0.03052156  0.03836716       0.010
  -0.00252921 -0.00352472  0.03836716       0.005
   0.03456903  0.04817571  0.05755073       0.005
   0.06014426  0.05682074  0.05755073       0.010
   0.08571949  0.06546577  0.05755073       0.010
   0.11129472  0.07411080  0.05755073       0.010
  -0.04215665  0.02224061  0.05755073       0.010
  -0.01658142  0.03088564  0.05755073       0.010
   0.00899380  0.03953068  0.05755073       0.010
   0.06014426  0.08381757  0.05755073       0.005
   0.08571949  0.09246260  0.05755073       0.010
   0.11129472  0.10110763  0.05755073       0.010
  -0.04215665  0.04923744  0.05755073       0.010
  -0.01658142  0.05788248  0.05755073       0.010
   0.00899380  0.06652751  0.05755073       0.010
   0.08571949  0.11945943  0.05755073       0.005
   0.11129472  0.12810446  0.05755073       0.010
  -0.04215665  0.07623428  0.05755073       0.010
  -0.01658142  0.08487931  0.05755073       0.010
   0.00899380  0.09352434  0.05755073       0.010
   0.11129472  0.15510129  0.05755073       0.005
  -0.04215665  0.10323111  0.05755073       0.010
  -0.01658142  0.11187614  0.05755073       0.010
   0.00899380  0.12052117  0.05755073       0.010
  -0.04215665 -0.05874988  0.05755073       0.005
  -0.01658142 -0.05010485  0.05755073       0.010
   0.00899380 -0.04145982  0.05755073       0.010
  -0.01658142 -0.02310802  0.05755073       0.005
   0.00899380 -0.01446299  0.05755073       0.010
   0.00899380  0.01253384  0.05755073       0.005
   0.04609204  0.06423427  0.07673431       0.003
   0.07166727  0.07287930  0.07673431       0.010
   0.09724250  0.08152434  0.07673431       0.010
   0.12281773  0.09016937  0.07673431       0.010
   0.07166727  0.09987614  0.07673431       0.005
   0.09724250  0.10852117  0.07673431       0.010
   0.12281773  0.11716620  0.07673431       0.010
  -0.03063364  0.06529601  0.07673431       0.010
  -0.00505841  0.07394104  0.07673431       0.010
   0.02051682  0.08258607  0.07673431       0.005
   0.09724250  0.13551800  0.07673431       0.005
   0.12281773  0.14416303  0.07673431       0.010
  -0.03063364  0.09229284  0.07673431       0.010
  -0.00505841  0.10093787  0.07673431       0.005
   0.12281773  0.17115986  0.07673431       0.005
  -0.03063364  0.11928968  0.07673431       0.005
 
 k-points in reciprocal lattice and weights: EA                                      
   0.00000000  0.00000000  0.00000000       0.003
   0.14285714  0.00000000  0.00000000       0.010
   0.28571429  0.00000000  0.00000000       0.010
   0.42857143  0.00000000  0.00000000       0.010
   0.14285714  0.14285714  0.00000000       0.005
   0.28571429  0.14285714  0.00000000       0.010
   0.42857143  0.14285714  0.00000000       0.010
  -0.42857143  0.14285714  0.00000000       0.010
  -0.28571429  0.14285714  0.00000000       0.010
  -0.14285714  0.14285714  0.00000000       0.005
   0.28571429  0.28571429  0.00000000       0.005
   0.42857143  0.28571429  0.00000000       0.010
  -0.42857143  0.28571429  0.00000000       0.010
  -0.28571429  0.28571429  0.00000000       0.005
   0.42857143  0.42857143  0.00000000       0.005
  -0.42857143  0.42857143  0.00000000       0.005
  -0.00000000 -0.00000000  0.12500000       0.005
   0.14285714  0.00000000  0.12500000       0.010
   0.28571429 -0.00000000  0.12500000       0.010
   0.42857143  0.00000000  0.12500000       0.010
  -0.42857143 -0.00000000  0.12500000       0.010
  -0.28571429  0.00000000  0.12500000       0.010
  -0.14285714  0.00000000  0.12500000       0.010
   0.14285714  0.14285714  0.12500000       0.005
   0.28571429  0.14285714  0.12500000       0.010
   0.42857143  0.14285714  0.12500000       0.010
  -0.42857143  0.14285714  0.12500000       0.010
  -0.28571429  0.14285714  0.12500000       0.010
  -0.14285714  0.14285714  0.12500000       0.010
   0.28571429  0.28571429  0.12500000       0.005
   0.42857143  0.28571429  0.12500000       0.010
  -0.42857143  0.28571429  0.12500000       0.010
  -0.28571429  0.28571429  0.12500000       0.010
  -0.14285714  0.28571429  0.12500000       0.010
   0.42857143  0.42857143  0.12500000       0.005
  -0.42857143  0.42857143  0.12500000       0.010
  -0.28571429  0.42857143  0.12500000       0.010
  -0.14285714  0.42857143  0.12500000       0.010
  -0.42857143 -0.42857143  0.12500000       0.005
  -0.28571429 -0.42857143  0.12500000       0.010
  -0.14285714 -0.42857143  0.12500000       0.010
  -0.28571429 -0.28571429  0.12500000       0.005
  -0.14285714 -0.28571429  0.12500000       0.010
  -0.14285714 -0.14285714  0.12500000       0.005
  -0.00000000 -0.00000000  0.25000000       0.005
   0.14285714  0.00000000  0.25000000       0.010
   0.28571429 -0.00000000  0.25000000       0.010
   0.42857143  0.00000000  0.25000000       0.010
  -0.42857143  0.00000000  0.25000000       0.010
  -0.28571429  0.00000000  0.25000000       0.010
  -0.14285714  0.00000000  0.25000000       0.010
   0.14285714  0.14285714  0.25000000       0.005
   0.28571429  0.14285714  0.25000000       0.010
   0.42857143  0.14285714  0.25000000       0.010
  -0.42857143  0.14285714  0.25000000       0.010
  -0.28571429  0.14285714  0.25000000       0.010
  -0.14285714  0.14285714  0.25000000       0.010
   0.28571429  0.28571429  0.25000000       0.005
   0.42857143  0.28571429  0.25000000       0.010
  -0.42857143  0.28571429  0.25000000       0.010
  -0.28571429  0.28571429  0.25000000       0.010
  -0.14285714  0.28571429  0.25000000       0.010
   0.42857143  0.42857143  0.25000000       0.005
  -0.42857143  0.42857143  0.25000000       0.010
  -0.28571429  0.42857143  0.25000000       0.010
  -0.14285714  0.42857143  0.25000000       0.010
  -0.42857143 -0.42857143  0.25000000       0.005
  -0.28571429 -0.42857143  0.25000000       0.010
  -0.14285714 -0.42857143  0.25000000       0.010
  -0.28571429 -0.28571429  0.25000000       0.005
  -0.14285714 -0.28571429  0.25000000       0.010
  -0.14285714 -0.14285714  0.25000000       0.005
  -0.00000000  0.00000000  0.37500000       0.005
   0.14285714  0.00000000  0.37500000       0.010
   0.28571429  0.00000000  0.37500000       0.010
   0.42857143  0.00000000  0.37500000       0.010
  -0.42857143 -0.00000000  0.37500000       0.010
  -0.28571429  0.00000000  0.37500000       0.010
  -0.14285714  0.00000000  0.37500000       0.010
   0.14285714  0.14285714  0.37500000       0.005
   0.28571429  0.14285714  0.37500000       0.010
   0.42857143  0.14285714  0.37500000       0.010
  -0.42857143  0.14285714  0.37500000       0.010
  -0.28571429  0.14285714  0.37500000       0.010
  -0.14285714  0.14285714  0.37500000       0.010
   0.28571429  0.28571429  0.37500000       0.005
   0.42857143  0.28571429  0.37500000       0.010
  -0.42857143  0.28571429  0.37500000       0.010
  -0.28571429  0.28571429  0.37500000       0.010
  -0.14285714  0.28571429  0.37500000       0.010
   0.42857143  0.42857143  0.37500000       0.005
  -0.42857143  0.42857143  0.37500000       0.010
  -0.28571429  0.42857143  0.37500000       0.010
  -0.14285714  0.42857143  0.37500000       0.010
  -0.42857143 -0.42857143  0.37500000       0.005
  -0.28571429 -0.42857143  0.37500000       0.010
  -0.14285714 -0.42857143  0.37500000       0.010
  -0.28571429 -0.28571429  0.37500000       0.005
  -0.14285714 -0.28571429  0.37500000       0.010
  -0.14285714 -0.14285714  0.37500000       0.005
  -0.00000000 -0.00000000  0.50000000       0.003
   0.14285714  0.00000000  0.50000000       0.010
   0.28571429  0.00000000  0.50000000       0.010
   0.42857143  0.00000000  0.50000000       0.010
   0.14285714  0.14285714  0.50000000       0.005
   0.28571429  0.14285714  0.50000000       0.010
   0.42857143  0.14285714  0.50000000       0.010
  -0.42857143  0.14285714  0.50000000       0.010
  -0.28571429  0.14285714  0.50000000       0.010
  -0.14285714  0.14285714  0.50000000       0.005
   0.28571429  0.28571429  0.50000000       0.005
   0.42857143  0.28571429  0.50000000       0.010
  -0.42857143  0.28571429  0.50000000       0.010
  -0.28571429  0.28571429  0.50000000       0.005
   0.42857143  0.42857143  0.50000000       0.005
  -0.42857143  0.42857143  0.50000000       0.005
 
 position of ions in fractional coordinates (direct lattice) 
   0.50000000  0.00000000  0.00000000
   0.00000000  0.00000000  0.50000000
   0.50000000  0.50000000  0.50000000
   0.00000000  0.50000000  0.00000000
   0.80075000  0.69925000  0.50000000
   0.25000000  0.25000000  0.00000000
   0.30075000  0.80075000  0.10150000
   0.69925000  0.19925000  0.89850000
   0.19925000  0.30075000  0.50000000
   0.75000000  0.75000000  0.00000000
   0.50831000  0.31486000  0.50000000
   0.31486000  0.81486000  0.80654000
   0.00831000  0.50831000  0.19346000
   0.99169000  0.49169000  0.80654000
   0.68514000  0.18514000  0.19346000
   0.81486000  0.00831000  0.50000000
   0.18514000  0.99169000  0.50000000
   0.49169000  0.68514000  0.50000000
 
 position of ions in cartesian coordinates  (Angst):
   2.79288104  0.00000000 -1.67760153
   0.00000000  0.00000000  3.25799500
   1.89853377  2.64581320 -0.09720806
  -0.89434727  2.64581320 -1.67760153
   3.22205433  3.70016976 -1.77480959
   0.94926689  1.32290660 -1.67760153
   0.24762079  4.23726984 -3.03438318
   3.54944675  1.05435656  2.83996707
   0.57501321  1.59145664  1.58039347
   2.84780066  3.96871980 -5.03280459
   2.27611036  1.66612149  0.49609250
   0.30119742  4.31193469  1.46496657
  -0.86279364  2.68978661 -0.47278158
   4.65986119  2.60183978  0.27836546
   3.49587013  0.97969171 -1.65938269
   4.53675004  0.04397342  0.49609250
  -0.73968250  5.24765298 -0.69050862
   1.52095718  3.62550491 -0.69050862
 


--------------------------------------------------------------------------------------------------------


 k-point   1 :   0.0000 0.0000 0.0000  plane waves:    6391
 k-point   2 :   0.1429 0.0000 0.0000  plane waves:    6401
 k-point   3 :   0.2857 0.0000 0.0000  plane waves:    6408
 k-point   4 :   0.4286 0.0000 0.0000  plane waves:    6417
 k-point   5 :   0.1429 0.1429 0.0000  plane waves:    6397
 k-point   6 :   0.2857 0.1429 0.0000  plane waves:    6424
 k-point   7 :   0.4286 0.1429 0.0000  plane waves:    6424
 k-point   8 :  -0.4286 0.1429 0.0000  plane waves:    6430
 k-point   9 :  -0.2857 0.1429 0.0000  plane waves:    6418
 k-point  10 :  -0.1429 0.1429 0.0000  plane waves:    6404
 k-point  11 :   0.2857 0.2857 0.0000  plane waves:    6417
 k-point  12 :   0.4286 0.2857 0.0000  plane waves:    6430
 k-point  13 :  -0.4286 0.2857 0.0000  plane waves:    6417
 k-point  14 :  -0.2857 0.2857 0.0000  plane waves:    6418
 k-point  15 :   0.4286 0.4286 0.0000  plane waves:    6431
 k-point  16 :  -0.4286 0.4286 0.0000  plane waves:    6410
 k-point  17 :  -0.0000-0.0000 0.1250  plane waves:    6408
 k-point  18 :   0.1429 0.0000 0.1250  plane waves:    6412
 k-point  19 :   0.2857-0.0000 0.1250  plane waves:    6426
 k-point  20 :   0.4286 0.0000 0.1250  plane waves:    6421
 k-point  21 :  -0.4286-0.0000 0.1250  plane waves:    6424
 k-point  22 :  -0.2857 0.0000 0.1250  plane waves:    6404
 k-point  23 :  -0.1429 0.0000 0.1250  plane waves:    6411
 k-point  24 :   0.1429 0.1429 0.1250  plane waves:    6418
 k-point  25 :   0.2857 0.1429 0.1250  plane waves:    6432
 k-point  26 :   0.4286 0.1429 0.1250  plane waves:    6442
 k-point  27 :  -0.4286 0.1429 0.1250  plane waves:    6419
 k-point  28 :  -0.2857 0.1429 0.1250  plane waves:    6414
 k-point  29 :  -0.1429 0.1429 0.1250  plane waves:    6430
 k-point  30 :   0.2857 0.2857 0.1250  plane waves:    6430
 k-point  31 :   0.4286 0.2857 0.1250  plane waves:    6421
 k-point  32 :  -0.4286 0.2857 0.1250  plane waves:    6419
 k-point  33 :  -0.2857 0.2857 0.1250  plane waves:    6413
 k-point  34 :  -0.1429 0.2857 0.1250  plane waves:    6425
 k-point  35 :   0.4286 0.4286 0.1250  plane waves:    6425
 k-point  36 :  -0.4286 0.4286 0.1250  plane waves:    6437
 k-point  37 :  -0.2857 0.4286 0.1250  plane waves:    6444
 k-point  38 :  -0.1429 0.4286 0.1250  plane waves:    6432
 k-point  39 :  -0.4286-0.4286 0.1250  plane waves:    6448
 k-point  40 :  -0.2857-0.4286 0.1250  plane waves:    6437
 k-point  41 :  -0.1429-0.4286 0.1250  plane waves:    6426
 k-point  42 :  -0.2857-0.2857 0.1250  plane waves:    6422
 k-point  43 :  -0.1429-0.2857 0.1250  plane waves:    6417
 k-point  44 :  -0.1429-0.1429 0.1250  plane waves:    6404
 k-point  45 :  -0.0000-0.0000 0.2500  plane waves:    6428
 k-point  46 :   0.1429 0.0000 0.2500  plane waves:    6420
 k-point  47 :   0.2857-0.0000 0.2500  plane waves:    6435
 k-point  48 :   0.4286 0.0000 0.2500  plane waves:    6424
 k-point  49 :  -0.4286 0.0000 0.2500  plane waves:    6420
 k-point  50 :  -0.2857 0.0000 0.2500  plane waves:    6412
 k-point  51 :  -0.1429 0.0000 0.2500  plane waves:    6408
 k-point  52 :   0.1429 0.1429 0.2500  plane waves:    6423
 k-point  53 :   0.2857 0.1429 0.2500  plane waves:    6431
 k-point  54 :   0.4286 0.1429 0.2500  plane waves:    6443
 k-point  55 :  -0.4286 0.1429 0.2500  plane waves:    6427
 k-point  56 :  -0.2857 0.1429 0.2500  plane waves:    6428
 k-point  57 :  -0.1429 0.1429 0.2500  plane waves:    6419
 k-point  58 :   0.2857 0.2857 0.2500  plane waves:    6434
 k-point  59 :   0.4286 0.2857 0.2500  plane waves:    6432
 k-point  60 :  -0.4286 0.2857 0.2500  plane waves:    6443
 k-point  61 :  -0.2857 0.2857 0.2500  plane waves:    6453
 k-point  62 :  -0.1429 0.2857 0.2500  plane waves:    6431
 k-point  63 :   0.4286 0.4286 0.2500  plane waves:    6443
 k-point  64 :  -0.4286 0.4286 0.2500  plane waves:    6436
 k-point  65 :  -0.2857 0.4286 0.2500  plane waves:    6452
 k-point  66 :  -0.1429 0.4286 0.2500  plane waves:    6434
 k-point  67 :  -0.4286-0.4286 0.2500  plane waves:    6437
 k-point  68 :  -0.2857-0.4286 0.2500  plane waves:    6435
 k-point  69 :  -0.1429-0.4286 0.2500  plane waves:    6428
 k-point  70 :  -0.2857-0.2857 0.2500  plane waves:    6438
 k-point  71 :  -0.1429-0.2857 0.2500  plane waves:    6409
 k-point  72 :  -0.1429-0.1429 0.2500  plane waves:    6404
 k-point  73 :  -0.0000 0.0000 0.3750  plane waves:    6402
 k-point  74 :   0.1429 0.0000 0.3750  plane waves:    6426
 k-point  75 :   0.2857 0.0000 0.3750  plane waves:    6429
 k-point  76 :   0.4286 0.0000 0.3750  plane waves:    6430
 k-point  77 :  -0.4286-0.0000 0.3750  plane waves:    6420
 k-point  78 :  -0.2857 0.0000 0.3750  plane waves:    6423
 k-point  79 :  -0.1429 0.0000 0.3750  plane waves:    6427
 k-point  80 :   0.1429 0.1429 0.3750  plane waves:    6432
 k-point  81 :   0.2857 0.1429 0.3750  plane waves:    6438
 k-point  82 :   0.4286 0.1429 0.3750  plane waves:    6427
 k-point  83 :  -0.4286 0.1429 0.3750  plane waves:    6433
 k-point  84 :  -0.2857 0.1429 0.3750  plane waves:    6429
 k-point  85 :  -0.1429 0.1429 0.3750  plane waves:    6439
 k-point  86 :   0.2857 0.2857 0.3750  plane waves:    6430
 k-point  87 :   0.4286 0.2857 0.3750  plane waves:    6432
 k-point  88 :  -0.4286 0.2857 0.3750  plane waves:    6444
 k-point  89 :  -0.2857 0.2857 0.3750  plane waves:    6446
 k-point  90 :  -0.1429 0.2857 0.3750  plane waves:    6437
 k-point  91 :   0.4286 0.4286 0.3750  plane waves:    6435
 k-point  92 :  -0.4286 0.4286 0.3750  plane waves:    6440
 k-point  93 :  -0.2857 0.4286 0.3750  plane waves:    6432
 k-point  94 :  -0.1429 0.4286 0.3750  plane waves:    6433
 k-point  95 :  -0.4286-0.4286 0.3750  plane waves:    6435
 k-point  96 :  -0.2857-0.4286 0.3750  plane waves:    6435
 k-point  97 :  -0.1429-0.4286 0.3750  plane waves:    6427
 k-point  98 :  -0.2857-0.2857 0.3750  plane waves:    6430
 k-point  99 :  -0.1429-0.2857 0.3750  plane waves:    6418
 k-point 100 :  -0.1429-0.1429 0.3750  plane waves:    6420
 k-point 101 :  -0.0000-0.0000 0.5000  plane waves:    6426
 k-point 102 :   0.1429 0.0000 0.5000  plane waves:    6423
 k-point 103 :   0.2857 0.0000 0.5000  plane waves:    6422
 k-point 104 :   0.4286 0.0000 0.5000  plane waves:    6430
 k-point 105 :   0.1429 0.1429 0.5000  plane waves:    6440
 k-point 106 :   0.2857 0.1429 0.5000  plane waves:    6433
 k-point 107 :   0.4286 0.1429 0.5000  plane waves:    6423
 k-point 108 :  -0.4286 0.1429 0.5000  plane waves:    6441
 k-point 109 :  -0.2857 0.1429 0.5000  plane waves:    6429
 k-point 110 :  -0.1429 0.1429 0.5000  plane waves:    6432
 k-point 111 :   0.2857 0.2857 0.5000  plane waves:    6430
 k-point 112 :   0.4286 0.2857 0.5000  plane waves:    6425
 k-point 113 :  -0.4286 0.2857 0.5000  plane waves:    6440
 k-point 114 :  -0.2857 0.2857 0.5000  plane waves:    6418
 k-point 115 :   0.4286 0.4286 0.5000  plane waves:    6431
 k-point 116 :  -0.4286 0.4286 0.5000  plane waves:    6440

 maximum and minimum number of plane-waves per node :      3242     3190

 maximum number of plane-waves:      6453
 maximum index in each direction: 
   IXMAX=   13   IYMAX=   13   IZMAX=   13
   IXMIN=  -13   IYMIN=  -13   IZMIN=  -13


 parallel 3D FFT for wavefunctions:
    minimum data exchange during FFTs selected (reduces bandwidth)
 parallel 3D FFT for charge:
    minimum data exchange during FFTs selected (reduces bandwidth)


 total amount of memory used by VASP MPI-rank0   467201. kBytes
=======================================================================

   base      :      30000. kBytes
   nonl-proj :     163598. kBytes
   fftplans  :      17766. kBytes
   grid      :      13358. kBytes
   one-center:        139. kBytes
   wavefun   :     242340. kBytes
 
     INWAV:  cpu time    0.0001: real time    0.0001
 Broyden mixing: mesh for mixing (old mesh)
   NGX = 25   NGY = 25   NGZ = 25
  (NGX  =108   NGY  =108   NGZ  =108)
  gives a total of  15625 points

 initial charge density was supplied:
 charge density of overlapping atoms calculated
 number of electron     128.0000000 magnetization 
 keeping initial charge density in first step


--------------------------------------------------------------------------------------------------------


 Maximum index for augmentation-charges        23106 (set IRDMAX)


--------------------------------------------------------------------------------------------------------


 First call to EWALD:  gamma=   0.307
 Maximum number of real-space cells 3x 3x 3
 Maximum number of reciprocal cells 3x 3x 3

    FEWALD:  cpu time    0.0245: real time    0.0247


--------------------------------------- Iteration      1(   1)  ---------------------------------------


    POTLOK:  cpu time    0.2521: real time    0.2550
    SETDIJ:  cpu time    0.7144: real time    0.7197
    TRIAL :  cpu time   39.1626: real time   39.5235
    CORREC:  cpu time    0.0024: real time    0.0024
    --------------------------------------------
      LOOP:  cpu time   40.2113: real time   40.5878

 eigenvalue-minimisations  : 18960
 total energy-change (2. order) : 0.1350823E+04  (-0.8532023E+04)
 number of electron     128.0000000 magnetization 
 augmentation part      128.0000000 magnetization 

 Free energy of the ion-electron system (eV)
  ---------------------------------------------------
  alpha Z        PSCENC =       630.60386702
  Ewald energy   TEWEN  =    -10364.56464904
  -Hartree energ DENC   =     -2503.86321018
  -exchange      EXHF   =         0.00000000
  -V(xc)+E(xc)   XCENC  =       478.39276565
  PAW double counting   =      9750.04252379    -9644.57956626
  entropy T*S    EENTRO =        -0.00074413
  eigenvalues    EBANDS =       721.88575338
  atomic energy  EATOM  =     12282.90600403
  ---------------------------------------------------
  free energy    TOTEN  =      1350.82274424 eV

  energy without entropy =     1350.82348837  energy(sigma->0) =     1350.82311631


--------------------------------------------------------------------------------------------------------




--------------------------------------- Iteration      1(   2)  ---------------------------------------


    TRIAL :  cpu time   47.7329: real time   49.0573
    CORREC:  cpu time    0.0025: real time    0.0026
    --------------------------------------------
      LOOP:  cpu time   47.7379: real time   49.0629

 eigenvalue-minimisations  : 20538
 total energy-change (2. order) :-0.1497484E+04  (-0.1462442E+04)
 number of electron     128.0000000 magnetization 
 augmentation part      128.0000000 magnetization 

 Free energy of the ion-electron system (eV)
  ---------------------------------------------------
  alpha Z        PSCENC =       630.60386702
  Ewald energy   TEWEN  =    -10364.56464904
  -Hartree energ DENC   =     -2503.86321018
  -exchange      EXHF   =         0.00000000
  -V(xc)+E(xc)   XCENC  =       478.39276565
  PAW double counting   =      9750.04252379    -9644.57956626
  entropy T*S    EENTRO =        -0.00089788
  eigenvalues    EBANDS =      -775.59774288
  atomic energy  EATOM  =     12282.90600403
  ---------------------------------------------------
  free energy    TOTEN  =      -146.66090577 eV

  energy without entropy =     -146.66000789  energy(sigma->0) =     -146.66045683


--------------------------------------------------------------------------------------------------------




--------------------------------------- Iteration      1(   3)  ---------------------------------------


    TRIAL :  cpu time   53.6042: real time   54.6854
    CORREC:  cpu time    0.0025: real time    0.0026
    --------------------------------------------
      LOOP:  cpu time   53.6072: real time   54.6907

 eigenvalue-minimisations  : 23556
 total energy-change (2. order) :-0.8419752E+02  (-0.8242468E+02)
 number of electron     128.0000000 magnetization 
 augmentation part      128.0000000 magnetization 

 Free energy of the ion-electron system (eV)
  ---------------------------------------------------
  alpha Z        PSCENC =       630.60386702
  Ewald energy   TEWEN  =    -10364.56464904
  -Hartree energ DENC   =     -2503.86321018
  -exchange      EXHF   =         0.00000000
  -V(xc)+E(xc)   XCENC  =       478.39276565
  PAW double counting   =      9750.04252379    -9644.57956626
  entropy T*S    EENTRO =        -0.00113591
  eigenvalues    EBANDS =      -859.79502495
  atomic energy  EATOM  =     12282.90600403
  ---------------------------------------------------
  free energy    TOTEN  =      -230.85842586 eV

  energy without entropy =     -230.85728996  energy(sigma->0) =     -230.85785791


--------------------------------------------------------------------------------------------------------




--------------------------------------- Iteration      1(   4)  ---------------------------------------


    TRIAL :  cpu time   51.8452: real time   52.8483
    CORREC:  cpu time    0.0025: real time    0.0025
    --------------------------------------------
      LOOP:  cpu time   51.8501: real time   52.8536

 eigenvalue-minimisations  : 22440
 total energy-change (2. order) :-0.2118572E+01  (-0.2095579E+01)
 number of electron     128.0000000 magnetization 
 augmentation part      128.0000000 magnetization 

 Free energy of the ion-electron system (eV)
  ---------------------------------------------------
  alpha Z        PSCENC =       630.60386702
  Ewald energy   TEWEN  =    -10364.56464904
  -Hartree energ DENC   =     -2503.86321018
  -exchange      EXHF   =         0.00000000
  -V(xc)+E(xc)   XCENC  =       478.39276565
  PAW double counting   =      9750.04252379    -9644.57956626
  entropy T*S    EENTRO =        -0.00164474
  eigenvalues    EBANDS =      -861.91308778
  atomic energy  EATOM  =     12282.90600403
  ---------------------------------------------------
  free energy    TOTEN  =      -232.97699753 eV

  energy without entropy =     -232.97535279  energy(sigma->0) =     -232.97617516


--------------------------------------------------------------------------------------------------------




--------------------------------------- Iteration      1(   5)  ---------------------------------------


    TRIAL :  cpu time   52.0679: real time   53.0234
    CORREC:  cpu time    0.0023: real time    0.0024
    CHARGE:  cpu time    2.9583: real time    2.9800
    --------------------------------------------
      LOOP:  cpu time   55.0309: real time   56.0086

 eigenvalue-minimisations  : 23172
 total energy-change (2. order) :-0.4473492E-01  (-0.4460022E-01)
 number of electron     128.0000001 magnetization 
 augmentation part        9.6167072 magnetization 

 Free energy of the ion-electron system (eV)
  ---------------------------------------------------
  alpha Z        PSCENC =       630.60386702
  Ewald energy   TEWEN  =    -10364.56464904
  -Hartree energ DENC   =     -2503.86321018
  -exchange      EXHF   =         0.00000000
  -V(xc)+E(xc)   XCENC  =       478.39276565
  PAW double counting   =      9750.04252379    -9644.57956626
  entropy T*S    EENTRO =        -0.00163213
  eigenvalues    EBANDS =      -861.95783532
  atomic energy  EATOM  =     12282.90600403
  ---------------------------------------------------
  free energy    TOTEN  =      -233.02173245 eV

  energy without entropy =     -233.02010032  energy(sigma->0) =     -233.02091639


--------------------------------------------------------------------------------------------------------




--------------------------------------- Iteration      1(   6)  ---------------------------------------


    POTLOK:  cpu time    0.1747: real time    0.1759
    SETDIJ:  cpu time    0.7245: real time    0.7301
    TRIAL :  cpu time   34.5824: real time   35.0059
    CORREC:  cpu time   13.2702: real time   13.3755
    CHARGE:  cpu time    4.0797: real time    4.1054
    --------------------------------------------
      LOOP:  cpu time   52.8394: real time   53.4019

 eigenvalue-minimisations  :     0
 total energy-change (2. order) : 0.2537703E+03  (-0.1257254E+03)
 number of electron     128.0000001 magnetization 
 augmentation part       14.0110119 magnetization 

 Free energy of the ion-electron system (eV)
  ---------------------------------------------------
  alpha Z        PSCENC =       630.60386702
  Ewald energy   TEWEN  =    -10364.56464904
  -Hartree energ DENC   =     -2117.74155774
  -exchange      EXHF   =         0.00000000
  -V(xc)+E(xc)   XCENC  =       489.80751916
  PAW double counting   =     25330.65553360   -25290.70525716
  entropy T*S    EENTRO =        -0.00178657
  eigenvalues    EBANDS =      -940.21127318
  atomic energy  EATOM  =     12282.90600403
  ---------------------------------------------------
  free energy    TOTEN  =        20.74855456 eV

  energy without entropy =       20.75034113  energy(sigma->0) =       20.74944785


--------------------------------------------------------------------------------------------------------




--------------------------------------- Iteration      1(   7)  ---------------------------------------


    POTLOK:  cpu time    0.1492: real time    0.1501
    SETDIJ:  cpu time    1.5002: real time    1.5085
    TRIAL :  cpu time   39.8087: real time   40.7435
    CORREC:  cpu time   13.9688: real time   14.2312
    CHARGE:  cpu time    3.6153: real time    3.6402
    --------------------------------------------
      LOOP:  cpu time   59.0433: real time   60.2757

 eigenvalue-minimisations  :     0
 total energy-change (2. order) :-0.1260969E+03  (-0.1727541E+02)
 number of electron     128.0000001 magnetization 
 augmentation part       12.6221346 magnetization 

 Free energy of the ion-electron system (eV)
  ---------------------------------------------------
  alpha Z        PSCENC =       630.60386702
  Ewald energy   TEWEN  =    -10364.56464904
  -Hartree energ DENC   =     -2512.21096073
  -exchange      EXHF   =         0.00000000
  -V(xc)+E(xc)   XCENC  =       503.41597133
  PAW double counting   =     28315.42287567   -28239.06820379
  entropy T*S    EENTRO =        -0.00152419
  eigenvalues    EBANDS =      -721.85149223
  atomic energy  EATOM  =     12282.90600403
  ---------------------------------------------------
  free energy    TOTEN  =      -105.34837431 eV

  energy without entropy =     -105.34685012  energy(sigma->0) =     -105.34761221


--------------------------------------------------------------------------------------------------------




--------------------------------------- Iteration      1(   8)  ---------------------------------------


    POTLOK:  cpu time    0.1457: real time    0.1468
    SETDIJ:  cpu time    1.0421: real time    1.0485
    TRIAL :  cpu time   37.5571: real time   38.1660
    CORREC:  cpu time   12.9475: real time   13.3444
    CHARGE:  cpu time    4.0279: real time    4.0554
    --------------------------------------------
      LOOP:  cpu time   55.7211: real time   56.7632

 eigenvalue-minimisations  :     0
 total energy-change (2. order) :-0.1727409E+02  (-0.5590726E+01)
 number of electron     128.0000001 magnetization 
 augmentation part       12.3969459 magnetization 

 Free energy of the ion-electron system (eV)
  ---------------------------------------------------
  alpha Z        PSCENC =       630.60386702
  Ewald energy   TEWEN  =    -10364.56464904
  -Hartree energ DENC   =     -2424.71780593
  -exchange      EXHF   =         0.00000000
  -V(xc)+E(xc)   XCENC  =       498.01574914
  PAW double counting   =     29044.49450005   -28967.23806607
  entropy T*S    EENTRO =        -0.00228823
  eigenvalues    EBANDS =      -822.12053492
  atomic energy  EATOM  =     12282.90600403
  ---------------------------------------------------
  free energy    TOTEN  =      -122.62245992 eV

  energy without entropy =     -122.62017169  energy(sigma->0) =     -122.62131580


--------------------------------------------------------------------------------------------------------




--------------------------------------- Iteration      1(   9)  ---------------------------------------


    POTLOK:  cpu time    0.1445: real time    0.1454
    SETDIJ:  cpu time    1.0223: real time    1.0286
[...]
     74      15.5190      0.00000
     75      15.8801      0.00000
     76      16.4013      0.00000
     77      16.5459      0.00000
     78      16.9601      0.00000

 k-point   111 :       0.2857    0.2857    0.5000
  band No.  band energies     occupation 
      1     -50.1770      2.00000
      2     -50.1769      2.00000
      3     -49.3102      2.00000
      4     -49.2987      2.00000
      5     -49.2942      2.00000
      6     -49.2849      2.00000
      7     -23.7781      2.00000
      8     -23.7688      2.00000
      9     -23.7687      2.00000
     10     -23.7599      2.00000
     11     -23.5397      2.00000
     12     -23.5241      2.00000
     13     -23.2845      2.00000
     14     -23.2746      2.00000
     15     -23.2662      2.00000
     16     -23.2620      2.00000
     17     -23.1813      2.00000
     18     -23.0749      2.00000
     19     -23.0579      2.00000
     20     -22.9752      2.00000
     21     -22.5803      2.00000
     22     -22.4929      2.00000
     23     -22.4904      2.00000
     24     -22.4217      2.00000
     25      -2.0145      2.00000
     26      -0.6362      2.00000
     27      -0.1702      2.00000
     28       0.7513      2.00000
     29       1.5774      2.00000
     30       3.0623      2.00000
     31       3.2820      2.00000
     32       3.5796      2.00000
     33       3.9624      2.00000
     34       4.5541      2.00000
     35       5.0901      2.00000
     36       5.1471      2.00000
     37       5.7927      2.00000
     38       6.1989      2.00000
     39       6.6816      2.00000
     40       6.7982      2.00000
     41       6.9877      2.00000
     42       7.0247      2.00000
     43       7.7380      2.00000
     44       7.8163      2.00000
     45       8.6098      2.00000
     46       8.6466      2.00000
     47       8.9278      2.00000
     48       8.9868      2.00000
     49       9.2917      2.00000
     50       9.4968      2.00000
     51       9.8708      2.00000
     52      10.0087      2.00000
     53      10.3315      2.00000
     54      10.6264      2.00000
     55      10.9029      2.00000
     56      11.1532      2.00000
     57      11.2256      2.00000
     58      11.7468      2.00000
     59      11.8211      2.00000
     60      12.1849      2.00000
     61      12.2493      2.00000
     62      12.7540      2.00000
     63      13.1073      2.00000
     64      13.3436      2.00000
     65      13.8122      0.00000
     66      13.8128      0.00000
     67      14.0108      0.00000
     68      14.1566      0.00000
     69      14.2920      0.00000
     70      14.7517      0.00000
     71      14.8196      0.00000
     72      15.1723      0.00000
     73      15.3195      0.00000
     74      15.3691      0.00000
     75      15.9572      0.00000
     76      16.3598      0.00000
     77      16.6257      0.00000
     78      17.0099      0.00000

 k-point   112 :       0.4286    0.2857    0.5000
  band No.  band energies     occupation 
      1     -50.1769      2.00000
      2     -50.1769      2.00000
      3     -49.3119      2.00000
      4     -49.2989      2.00000
      5     -49.2938      2.00000
      6     -49.2835      2.00000
      7     -23.7703      2.00000
      8     -23.7666      2.00000
      9     -23.7632      2.00000
     10     -23.7603      2.00000
     11     -23.5290      2.00000
     12     -23.5191      2.00000
     13     -23.3007      2.00000
     14     -23.2805      2.00000
     15     -23.2724      2.00000
     16     -23.2609      2.00000
     17     -23.1960      2.00000
     18     -23.0799      2.00000
     19     -23.0517      2.00000
     20     -22.9661      2.00000
     21     -22.5944      2.00000
     22     -22.4997      2.00000
     23     -22.4805      2.00000
     24     -22.4117      2.00000
     25      -1.9889      2.00000
     26      -0.6756      2.00000
     27       0.1068      2.00000
     28       0.9265      2.00000
     29       1.1980      2.00000
     30       2.5727      2.00000
     31       3.1083      2.00000
     32       3.6873      2.00000
     33       3.7955      2.00000
     34       4.9744      2.00000
     35       5.1668      2.00000
     36       5.3109      2.00000
     37       5.7461      2.00000
     38       6.3447      2.00000
     39       6.5304      2.00000
     40       6.8967      2.00000
     41       7.1741      2.00000
     42       7.2398      2.00000
     43       7.6943      2.00000
     44       8.2425      2.00000
     45       8.3338      2.00000
     46       8.6977      2.00000
     47       8.7727      2.00000
     48       8.9406      2.00000
     49       9.1805      2.00000
     50       9.4274      2.00000
     51       9.9295      2.00000
     52       9.9959      2.00000
     53      10.2966      2.00000
     54      10.5888      2.00000
     55      10.7028      2.00000
     56      11.0150      2.00000
     57      11.1451      2.00000
     58      11.7708      2.00000
     59      11.9313      2.00000
     60      12.3688      2.00000
     61      12.5502      2.00000
     62      12.6820      2.00000
     63      13.0675      2.00000
     64      13.3995      1.99773
     65      13.7571      0.00000
     66      13.9202      0.00000
     67      13.9954      0.00000
     68      14.0992      0.00000
     69      14.3301      0.00000
     70      14.4809      0.00000
     71      14.6819      0.00000
     72      15.1115      0.00000
     73      15.2173      0.00000
     74      15.5459      0.00000
     75      15.8126      0.00000
     76      15.9177      0.00000
     77      16.3425      0.00000
     78      16.9443      0.00000

 k-point   113 :      -0.4286    0.2857    0.5000
  band No.  band energies     occupation 
      1     -50.1770      2.00000
      2     -50.1768      2.00000
      3     -49.3120      2.00000
      4     -49.2986      2.00000
      5     -49.2940      2.00000
      6     -49.2835      2.00000
      7     -23.7676      2.00000
      8     -23.7642      2.00000
      9     -23.7612      2.00000
     10     -23.7580      2.00000
     11     -23.5190      2.00000
     12     -23.5179      2.00000
     13     -23.3114      2.00000
     14     -23.2819      2.00000
     15     -23.2788      2.00000
     16     -23.2605      2.00000
     17     -23.1963      2.00000
     18     -23.0792      2.00000
     19     -23.0524      2.00000
     20     -22.9657      2.00000
     21     -22.5974      2.00000
     22     -22.5000      2.00000
     23     -22.4813      2.00000
     24     -22.4117      2.00000
     25      -1.8628      2.00000
     26      -0.7327      2.00000
     27       0.0299      2.00000
     28       0.9985      2.00000
     29       1.1935      2.00000
     30       2.2908      2.00000
     31       3.0764      2.00000
     32       3.6924      2.00000
     33       3.8346      2.00000
     34       4.9641      2.00000
     35       5.3351      2.00000
     36       5.5321      2.00000
     37       5.7614      2.00000
     38       6.4267      2.00000
     39       6.4811      2.00000
     40       6.8012      2.00000
     41       7.0946      2.00000
     42       7.2714      2.00000
     43       7.5625      2.00000
     44       8.2728      2.00000
     45       8.4420      2.00000
     46       8.6179      2.00000
     47       8.7604      2.00000
     48       8.9816      2.00000
     49       9.1504      2.00000
     50       9.6305      2.00000
     51       9.9109      2.00000
     52      10.1368      2.00000
     53      10.1436      2.00000
     54      10.5354      2.00000
     55      10.7238      2.00000
     56      10.9264      2.00000
     57      11.1036      2.00000
     58      11.9087      2.00000
     59      11.9626      2.00000
     60      12.4240      2.00000
     61      12.6114      2.00000
     62      12.7662      2.00000
     63      13.2775      2.00000
     64      13.4156      1.94400
     65      13.5516      0.00000
     66      13.7570      0.00000
     67      14.0039      0.00000
     68      14.1753      0.00000
     69      14.2583      0.00000
     70      14.3118      0.00000
     71      14.4205      0.00000
     72      14.9612      0.00000
     73      15.2868      0.00000
     74      15.5190      0.00000
     75      15.8505      0.00000
     76      15.9528      0.00000
     77      16.3360      0.00000
     78      16.8783      0.00000

 k-point   114 :      -0.2857    0.2857    0.5000
  band No.  band energies     occupation 
      1     -50.1770      2.00000
      2     -50.1768      2.00000
      3     -49.3104      2.00000
      4     -49.2979      2.00000
      5     -49.2950      2.00000
      6     -49.2848      2.00000
      7     -23.7761      2.00000
      8     -23.7625      2.00000
      9     -23.7600      2.00000
     10     -23.7555      2.00000
     11     -23.5236      2.00000
     12     -23.5166      2.00000
     13     -23.3095      2.00000
     14     -23.2866      2.00000
     15     -23.2717      2.00000
     16     -23.2591      2.00000
     17     -23.1822      2.00000
     18     -23.0706      2.00000
     19     -23.0621      2.00000
     20     -22.9743      2.00000
     21     -22.5876      2.00000
     22     -22.4929      2.00000
     23     -22.4928      2.00000
     24     -22.4215      2.00000
     25      -1.6853      2.00000
     26      -0.7938      2.00000
     27      -0.3894      2.00000
     28       0.9901      2.00000
     29       1.5315      2.00000
     30       2.2927      2.00000
     31       3.2420      2.00000
     32       3.5183      2.00000
     33       4.0951      2.00000
     34       4.7879      2.00000
     35       5.2276      2.00000
     36       5.7403      2.00000
     37       5.8427      2.00000
     38       6.5115      2.00000
     39       6.5559      2.00000
     40       6.6035      2.00000
     41       6.8066      2.00000
     42       6.8981      2.00000
     43       7.5144      2.00000
     44       8.1781      2.00000
     45       8.5453      2.00000
     46       8.5589      2.00000
     47       8.7224      2.00000
     48       9.1002      2.00000
     49       9.2166      2.00000
     50       9.6637      2.00000
     51      10.0721      2.00000
     52      10.3725      2.00000
     53      10.4630      2.00000
     54      10.4688      2.00000
     55      10.7759      2.00000
     56      10.8028      2.00000
     57      11.0244      2.00000
     58      11.7959      2.00000
     59      12.1378      2.00000
     60      12.3102      2.00000
     61      12.4918      2.00000
     62      13.1529      2.00000
     63      13.2964      2.00000
     64      13.3551      2.00000
     65      13.3883      1.99988
     66      13.8277      0.00000
     67      13.8345      0.00000
     68      14.0672      0.00000
     69      14.2734      0.00000
     70      14.2871      0.00000
     71      14.3655      0.00000
     72      14.7671      0.00000
     73      15.0977      0.00000
     74      15.8035      0.00000
     75      15.8792      0.00000
     76      16.1337      0.00000
     77      16.2813      0.00000
     78      16.3671      0.00000

 k-point   115 :       0.4286    0.4286    0.5000
  band No.  band energies     occupation 
      1     -50.1769      2.00000
      2     -50.1768      2.00000
      3     -49.3137      2.00000
      4     -49.2981      2.00000
      5     -49.2943      2.00000
      6     -49.2822      2.00000
      7     -23.7646      2.00000
      8     -23.7622      2.00000
      9     -23.7582      2.00000
     10     -23.7581      2.00000
     11     -23.5182      2.00000
     12     -23.5103      2.00000
     13     -23.3186      2.00000
     14     -23.2865      2.00000
     15     -23.2804      2.00000
     16     -23.2618      2.00000
     17     -23.2104      2.00000
     18     -23.0676      2.00000
     19     -23.0622      2.00000
     20     -22.9578      2.00000
     21     -22.6086      2.00000
     22     -22.4899      2.00000
     23     -22.4871      2.00000
     24     -22.4022      2.00000
     25      -1.9953      2.00000
     26      -0.2219      2.00000
     27       0.0187      2.00000
     28       0.5542      2.00000
     29       1.2673      2.00000
     30       2.1831      2.00000
     31       3.4389      2.00000
     32       3.4560      2.00000
     33       3.5040      2.00000
     34       5.1373      2.00000
     35       5.4453      2.00000
     36       5.5313      2.00000
     37       5.7606      2.00000
     38       6.2100      2.00000
     39       6.4226      2.00000
     40       6.8381      2.00000
     41       7.3894      2.00000
     42       7.4647      2.00000
     43       7.8131      2.00000
     44       8.3327      2.00000
     45       8.6303      2.00000
     46       8.6793      2.00000
     47       8.7253      2.00000
     48       8.9487      2.00000
     49       8.9518      2.00000
     50       9.0087      2.00000
     51       9.9506      2.00000
     52      10.0237      2.00000
     53      10.1359      2.00000
     54      10.6329      2.00000
     55      10.8641      2.00000
     56      10.9442      2.00000
     57      11.0349      2.00000
     58      12.1603      2.00000
     59      12.1957      2.00000
     60      12.4137      2.00000
     61      12.7093      2.00000
     62      12.8906      2.00000
     63      13.0171      2.00000
     64      13.1770      2.00000
     65      13.4149      1.95043
     66      13.5358      0.00000
     67      14.1022      0.00000
     68      14.1947      0.00000
     69      14.2414      0.00000
     70      14.5227      0.00000
     71      14.6432      0.00000
     72      15.0423      0.00000
     73      15.0693      0.00000
     74      15.4145      0.00000
     75      15.6659      0.00000
     76      15.8503      0.00000
     77      16.1423      0.00000
     78      16.1746      0.00000

 k-point   116 :      -0.4286    0.4286    0.5000
  band No.  band energies     occupation 
      1     -50.1769      2.00000
      2     -50.1768      2.00000
      3     -49.3137      2.00000
      4     -49.2980      2.00000
      5     -49.2944      2.00000
      6     -49.2822      2.00000
      7     -23.7621      2.00000
      8     -23.7612      2.00000
      9     -23.7594      2.00000
     10     -23.7562      2.00000
     11     -23.5136      2.00000
     12     -23.5093      2.00000
     13     -23.3237      2.00000
     14     -23.2859      2.00000
     15     -23.2846      2.00000
     16     -23.2619      2.00000
     17     -23.2105      2.00000
     18     -23.0661      2.00000
     19     -23.0638      2.00000
     20     -22.9577      2.00000
     21     -22.6098      2.00000
     22     -22.4899      2.00000
     23     -22.4876      2.00000
     24     -22.4022      2.00000
     25      -1.9458      2.00000
     26      -0.2354      2.00000
     27      -0.0132      2.00000
     28       0.5574      2.00000
     29       1.2833      2.00000
     30       2.0789      2.00000
     31       3.4300      2.00000
     32       3.4759      2.00000
     33       3.4910      2.00000
     34       5.1502      2.00000
     35       5.5234      2.00000
     36       5.6156      2.00000
     37       5.7661      2.00000
     38       6.1376      2.00000
     39       6.6005      2.00000
     40       6.6484      2.00000
     41       7.3839      2.00000
     42       7.4866      2.00000
     43       7.7906      2.00000
     44       8.3289      2.00000
     45       8.5748      2.00000
     46       8.7130      2.00000
     47       8.7517      2.00000
     48       8.9584      2.00000
     49       8.9766      2.00000
     50       9.0041      2.00000
     51       9.8999      2.00000
     52      10.1216      2.00000
     53      10.1867      2.00000
     54      10.4546      2.00000
     55      10.8865      2.00000
     56      11.0129      2.00000
     57      11.0419      2.00000
     58      12.2234      2.00000
     59      12.2754      2.00000
     60      12.3723      2.00000
     61      12.7398      2.00000
     62      12.9271      2.00000
     63      13.0209      2.00000
     64      13.2263      2.00000
     65      13.2865      2.00000
     66      13.4745      0.02441
     67      14.0746      0.00000
     68      14.1405      0.00000
     69      14.1527      0.00000
     70      14.6081      0.00000
     71      14.6933      0.00000
     72      15.0038      0.00000
     73      15.3036      0.00000
     74      15.4218      0.00000
     75      15.4725      0.00000
     76      15.5400      0.00000
     77      16.1175      0.00000
     78      16.6448      0.00000


--------------------------------------------------------------------------------------------------------


 soft charge-density along one line, spin component           1
         0         1         2         3         4         5         6         7         8         9
 total charge-density along one line
 
 pseudopotential strength for first ion, spin component:           1
  6.196   9.389   0.000   0.000  -0.000   0.000   0.000  -0.000
  9.389  14.218   0.000   0.000  -0.000   0.000   0.000  -0.000
  0.000   0.000  -1.967  -0.007  -0.082  -3.293  -0.014  -0.164
  0.000   0.000  -0.007  -1.848  -0.005  -0.014  -3.056  -0.010
 -0.000  -0.000  -0.082  -0.005  -1.911  -0.164  -0.010  -3.182
  0.000   0.000  -3.293  -0.014  -0.164  -5.295  -0.026  -0.318
  0.000   0.000  -0.014  -3.056  -0.010  -0.026  -4.835  -0.018
 -0.000  -0.000  -0.164  -0.010  -3.182  -0.318  -0.018  -5.080
 total augmentation occupancy for first ion, spin component:           1
  4.898  -1.210   0.000   0.000   0.000   0.000   0.000   0.000
 -1.210   0.354   0.000   0.000   0.000   0.000   0.000   0.000
  0.000   0.000   4.543  -0.054  -0.150  -0.823   0.062   0.267
  0.000   0.000  -0.054   4.379  -0.039   0.097  -1.090   0.069
  0.000   0.000  -0.150  -0.039   4.645   0.267   0.044  -1.004
  0.000   0.000  -0.823   0.097   0.267   0.221  -0.023  -0.067
  0.000   0.000   0.062  -1.090   0.044  -0.023   0.286  -0.017
  0.000   0.000   0.267   0.069  -1.004  -0.067  -0.017   0.266


------------------------ aborting loop because EDIFF is reached ----------------------------------------




--------------------------------------------------------------------------------------------------------



  FREE ENERGIE OF THE ION-ELECTRON SYSTEM (eV)
  ---------------------------------------------------
  free  energy   TOTEN  =      -131.32677619 eV

  energy  without entropy=     -131.32473504  energy(sigma->0) =     -131.32575561
 


--------------------------------------------------------------------------------------------------------


    POTLOK:  cpu time    0.9377: real time    0.9451


--------------------------------------------------------------------------------------------------------


 writing wavefunctions
     LOOP+:  cpu time 1987.8680: real time 2012.6237
    4ORBIT:  cpu time    0.0000: real time    0.0000

 total amount of memory used by VASP MPI-rank0   467201. kBytes
=======================================================================

   base      :      30000. kBytes
   nonl-proj :     163598. kBytes
   fftplans  :      17766. kBytes
   grid      :      13358. kBytes
   one-center:        139. kBytes
   wavefun   :     242340. kBytes
 
  
  
 General timing and accounting informations for this job:
 ========================================================
  
                  Total CPU time used (sec):     1999.100
                            User time (sec):     1931.888
                          System time (sec):       67.211
                         Elapsed time (sec):     2032.589
  
                   Maximum memory used (kb):      683464.
                   Average memory used (kb):          N/A
  
                          Minor page faults:      6580248
                          Major page faults:           32
                 Voluntary context switches:        17210
