 vasp.6.2.0 18Jan21 (build Jan 05 2022 15:41:44) complex                        
  
 executed on             LinuxIFC date 2025.05.07  20:11:15
 running on   24 total cores
 distrk:  each k-point on   12 cores,    2 groups
 distr:  one band on NCORE=   2 cores,    6 groups


--------------------------------------------------------------------------------------------------------


 INCAR:
   SYSTEM = routine with relax: pwdword
   ICHARG = 2
   NPAR = 6
   KPAR = 2
   NCORE = 2
   ADDGRID = T
   PREC = Acc
   ENCUT = 600
   METAGGA = R2SCAN
   LASPH = .TRUE.
   LMIXTAU = .FALSE.
   ALGO = A
   EDIFF = 1E-9
   NELM = 100
   NELMIN = 6
   IALGO = 38
   LREAL = F
   NSW = 0
   ISIF = -1
   ISMEAR = 0
   SIGMA = 0.02
   SYMPREC = 1E-4

 POTCAR:    PAW_PBE B 06Sep2000                   
 POTCAR:    PAW_PBE Mo_sv 02Feb2006               
 POTCAR:    PAW_PBE Si 05Jan2001                  
 -----------------------------------------------------------------------------
|                                                                             |
|           W    W    AA    RRRRR   N    N  II  N    N   GGGG   !!!           |
|           W    W   A  A   R    R  NN   N  II  NN   N  G    G  !!!           |
|           W    W  A    A  R    R  N N  N  II  N N  N  G       !!!           |
|           W WW W  AAAAAA  RRRRR   N  N N  II  N  N N  G  GGG   !            |
|           WW  WW  A    A  R   R   N   NN  II  N   NN  G    G                |
|           W    W  A    A  R    R  N    N  II  N    N   GGGG   !!!           |
|                                                                             |
|     For optimal performance we recommend to set                             |
|       NCORE = 2 up to number-of-cores-per-socket                            |
|     NCORE specifies how many cores store one orbital (NPAR=cpu/NCORE).      |
|     This setting can greatly improve the performance of VASP for DFT.       |
|     The default, NCORE=1 might be grossly inefficient on modern             |
|     multi-core architectures or massively parallel machines. Do your        |
|     own testing! More info at https://www.vasp.at/wiki/index.php/NCORE      |
|     Unfortunately you need to use the default for GW and RPA                |
|     calculations (for HF NCORE is supported but not extensively tested      |
|     yet).                                                                   |
|                                                                             |
 -----------------------------------------------------------------------------

 POTCAR:    PAW_PBE B 06Sep2000                   
   VRHFIN =B: s2p1                                                                                  
   LEXCH  = PE                                                                                      
   EATOM  =    71.1703 eV,    5.2309 Ry                                                             
                                                                                                    
   TITEL  = PAW_PBE B 06Sep2000                                                                     
   LULTRA =        F    use ultrasoft PP ?                                                          
   IUNSCR =        1    unscreen: 0-lin 1-nonlin 2-no                                               
   RPACOR =    1.200    partial core radius                                                         
   POMASS =   10.811; ZVAL   =    3.000    mass and valenz                                          
   RCORE  =    1.700    outmost cutoff radius                                                       
   RWIGS  =    1.710; RWIGS  =    0.905    wigner-seitz radius (au A)                               
   ENMAX  =  318.614; ENMIN  =  238.960 eV                                                          
   ICORE  =        2    local potential                                                             
   LCOR   =        T    correct aug charges                                                         
   LPAW   =        T    paw PP                                                                      
   EAUG   =  535.514                                                                                
   DEXC   =    0.000                                                                                
   RMAX   =    1.732    core radius for proj-oper                                                   
   RAUG   =    1.300    factor for augmentation sphere                                              
   RDEP   =    1.757    radius for radial grids                                                     
   RDEPT  =    1.436    core radius for aug-charge                                                  
                                                                                                    
   Atomic configuration                                                                             
    4 entries                                                                                       
     n  l   j            E        occ.                                                              
     1  0  0.50      -180.5896   2.0000                                                             
     2  0  0.50        -9.4431   2.0000                                                             
     2  1  0.50        -3.6068   1.0000                                                             
     3  2  1.50        -4.0817   0.0000                                                             
   Description                                                                                      
     l       E           TYP  RCUT    TYP  RCUT                                                     
     0     -9.4430752     23  1.500                                                                 
     0      0.8675899     23  1.500                                                                 
     1     -3.6067955     23  1.700                                                                 
     1      6.1086146     23  1.700                                                                 
     2     -4.0817478      7  1.700                                                                 
  local pseudopotential read in
  partial core-charges read in
  partial kinetic energy density read in
  atomic valenz-charges read in
  non local Contribution for L=           0  read in
    real space projection operators read in
  non local Contribution for L=           0  read in
    real space projection operators read in
  non local Contribution for L=           1  read in
    real space projection operators read in
  non local Contribution for L=           1  read in
    real space projection operators read in
    PAW grid and wavefunctions read in
 
   number of l-projection  operators is LMAX  =           4
   number of lm-projection operators is LMMAX =           8
 
 POTCAR:    PAW_PBE Mo_sv 02Feb2006               
   VRHFIN =Mo: 4p5s4d                                                                               
   LEXCH  = PE                                                                                      
   EATOM  =  1862.2866 eV,  136.8742 Ry                                                             
                                                                                                    
   TITEL  = PAW_PBE Mo_sv 02Feb2006                                                                 
   LULTRA =        F    use ultrasoft PP ?                                                          
   IUNSCR =        1    unscreen: 0-lin 1-nonlin 2-no                                               
   RPACOR =    2.200    partial core radius                                                         
   POMASS =   95.940; ZVAL   =   14.000    mass and valenz                                          
   RCORE  =    2.500    outmost cutoff radius                                                       
   RWIGS  =    2.750; RWIGS  =    1.455    wigner-seitz radius (au A)                               
   ENMAX  =  242.676; ENMIN  =  182.007 eV                                                          
   ICORE  =        3    local potential                                                             
   LCOR   =        T    correct aug charges                                                         
   LPAW   =        T    paw PP                                                                      
   EAUG   =  446.014                                                                                
   DEXC   =    0.000                                                                                
   RMAX   =    2.563    core radius for proj-oper                                                   
   RAUG   =    1.300    factor for augmentation sphere                                              
   RDEP   =    2.641    radius for radial grids                                                     
   RDEPT  =    2.031    core radius for aug-charge                                                  
                                                                                                    
   Atomic configuration                                                                             
   11 entries                                                                                       
     n  l   j            E        occ.                                                              
     1  0  0.50    -19819.0341   2.0000                                                             
     2  0  0.50     -2799.0127   2.0000                                                             
     2  1  1.50     -2502.0276   6.0000                                                             
     3  0  0.50      -476.4449   2.0000                                                             
     3  1  1.50      -379.1496   6.0000                                                             
     3  2  2.50      -220.9367  10.0000                                                             
     4  0  0.50       -64.3378   2.0000                                                             
     5  0  0.50        -4.0862   1.0000                                                             
     4  1  1.50       -38.4773   6.0000                                                             
     4  2  2.50        -3.7535   5.0000                                                             
     4  3  2.50        -1.3606   0.0000                                                             
   Description                                                                                      
     l       E           TYP  RCUT    TYP  RCUT                                                     
     0    -64.3377829     23  2.100                                                                 
     0     -4.0861640     23  2.400                                                                 
     1    -38.4772993     23  2.100                                                                 
     1     13.6058260     23  2.100                                                                 
     2     -3.7534941     23  2.400                                                                 
     2     -5.1140767     23  2.400                                                                 
     3     -4.0817478     23  2.500                                                                 
  local pseudopotential read in
  partial core-charges read in
  partial kinetic energy density read in
  atomic valenz-charges read in
  non local Contribution for L=           0  read in
    real space projection operators read in
  non local Contribution for L=           0  read in
    real space projection operators read in
  non local Contribution for L=           1  read in
    real space projection operators read in
  non local Contribution for L=           1  read in
    real space projection operators read in
  non local Contribution for L=           2  read in
    real space projection operators read in
  non local Contribution for L=           2  read in
    real space projection operators read in
    PAW grid and wavefunctions read in
 
   number of l-projection  operators is LMAX  =           6
   number of lm-projection operators is LMMAX =          18
 
 POTCAR:    PAW_PBE Si 05Jan2001                  
   VRHFIN =Si: s2p2                                                                                 
   LEXCH  = PE                                                                                      
   EATOM  =   103.0669 eV,    7.5752 Ry                                                             
                                                                                                    
   TITEL  = PAW_PBE Si 05Jan2001                                                                    
   LULTRA =        F    use ultrasoft PP ?                                                          
   IUNSCR =        1    unscreen: 0-lin 1-nonlin 2-no                                               
   RPACOR =    1.500    partial core radius                                                         
   POMASS =   28.085; ZVAL   =    4.000    mass and valenz                                          
   RCORE  =    1.900    outmost cutoff radius                                                       
   RWIGS  =    2.480; RWIGS  =    1.312    wigner-seitz radius (au A)                               
   ENMAX  =  245.345; ENMIN  =  184.009 eV                                                          
   ICORE  =        2    local potential                                                             
   LCOR   =        T    correct aug charges                                                         
   LPAW   =        T    paw PP                                                                      
   EAUG   =  322.069                                                                                
   DEXC   =    0.000                                                                                
   RMAX   =    1.950    core radius for proj-oper                                                   
   RAUG   =    1.300    factor for augmentation sphere                                              
   RDEP   =    1.993    radius for radial grids                                                     
   RDEPT  =    1.837    core radius for aug-charge                                                  
                                                                                                    
   Atomic configuration                                                                             
    6 entries                                                                                       
     n  l   j            E        occ.                                                              
     1  0  0.50     -1785.8828   2.0000                                                             
     2  0  0.50      -139.4969   2.0000                                                             
     2  1  1.50       -95.5546   6.0000                                                             
     3  0  0.50       -10.8127   2.0000                                                             
     3  1  0.50        -4.0811   2.0000                                                             
     3  2  1.50        -4.0817   0.0000                                                             
   Description                                                                                      
     l       E           TYP  RCUT    TYP  RCUT                                                     
     0    -10.8127223     23  1.900                                                                 
     0     -7.6451159     23  1.900                                                                 
     1     -4.0811372     23  1.900                                                                 
     1      2.4879257     23  1.900                                                                 
     2     -4.0817478      7  1.900                                                                 
  local pseudopotential read in
  partial core-charges read in
  partial kinetic energy density read in
  atomic valenz-charges read in
  non local Contribution for L=           0  read in
    real space projection operators read in
  non local Contribution for L=           0  read in
    real space projection operators read in
  non local Contribution for L=           1  read in
    real space projection operators read in
  non local Contribution for L=           1  read in
    real space projection operators read in
    PAW grid and wavefunctions read in
 
   number of l-projection  operators is LMAX  =           4
   number of lm-projection operators is LMMAX =           8
 
  PAW_PBE B 06Sep2000                   :
 energy of atom  1       EATOM=  -71.1703
 kinetic energy error for atom=    0.0007 (will be added to EATOM!!)
  PAW_PBE Mo_sv 02Feb2006               :
 energy of atom  2       EATOM=-1862.2866
 kinetic energy error for atom=    0.0041 (will be added to EATOM!!)
  PAW_PBE Si 05Jan2001                  :
 energy of atom  3       EATOM= -103.0669
 kinetic energy error for atom=    0.0003 (will be added to EATOM!!)
 
 
 POSCAR: EA211
  positions in direct lattice
  No initial velocities read in

 METAGGA = R2SCA    LMAXTAU =  6    LMIXTAU =  F

 exchange correlation table for  LEXCH =        8
   RHO(1)=    0.500       N(1)  =     2000
   RHO(2)=  100.500       N(2)  =     4000
 


--------------------------------------------------------------------------------------------------------


 ion  position               nearest neighbor table
   1  0.344  0.156  0.500-   9 1.73   7 2.26   6 2.26   5 2.41  11 2.41
   2  0.656  0.844  0.500-  10 1.73   6 2.26   7 2.26   5 2.41  11 2.41
   3  0.156  0.656  0.811-   7 1.73   9 2.26  10 2.26  12 2.41   8 2.41
   4  0.844  0.344  0.189-   6 1.73   9 2.26  10 2.26  12 2.41   8 2.41
   5  0.000  0.000  0.500-   9 2.37  10 2.37   1 2.41   2 2.41  13 2.46  14 2.46   8 3.48  12 3.48
                             8 3.48  12 3.48
   6  0.669  0.169  0.838-   4 1.73   2 2.26   1 2.26   8 2.37  12 2.37   7 3.33
   7  0.331  0.831  0.162-   3 1.73   1 2.26   2 2.26   8 2.37  12 2.37   6 3.33
   8  0.000  0.500  0.000-   6 2.37   7 2.37   3 2.41   4 2.41  13 2.46  14 2.46   5 3.48  11 3.48
                             5 3.48  11 3.48
   9  0.169  0.331  0.500-   1 1.73   3 2.26   4 2.26   5 2.37  11 2.37  10 3.33
  10  0.831  0.669  0.500-   2 1.73   3 2.26   4 2.26   5 2.37  11 2.37   9 3.33
  11  0.500  0.500  0.500-   9 2.37  10 2.37   1 2.41   2 2.41  14 2.46  13 2.46   8 3.48  12 3.48
                            12 3.48   8 3.48
  12  0.500  0.000  0.000-   6 2.37   7 2.37   3 2.41   4 2.41  13 2.46  14 2.46   5 3.48  11 3.48
                            11 3.48   5 3.48
  13  0.250  0.250  0.000-  11 2.46   5 2.46  12 2.46   8 2.46
  14  0.750  0.750  0.000-   5 2.46  11 2.46  12 2.46   8 2.46
 
  LATTYP: Found a body centered tetragonal cell.
 ALAT       =     6.9622399552
 C/A-ratio  =     1.2803370826
  
  Lattice vectors:
  
 A1 = (   5.9290357120,   0.0000000000,  -2.9913355438)
 A2 = (  -2.2465404265,   5.4869409133,  -2.9913355438)
 A3 = (   0.0000000000,   0.0000000000,   6.6409000000)


Analysis of symmetry for initial positions (statically):
=====================================================================
 Subroutine PRICEL returns:
 Original cell was already a primitive cell.
 

 Routine SETGRP: Setting up the symmetry group for a 
 body centered tetragonal supercell.


 Subroutine GETGRP returns: Found 16 space group operations
 (whereof  8 operations were pure point group operations)
 out of a pool of 16 trial point group operations.


The static configuration has the point symmetry C_4h.
 The point group associated with its full space group is D_4h.


Analysis of symmetry for dynamics (positions and initial velocities):
=====================================================================
 Subroutine PRICEL returns:
 Original cell was already a primitive cell.
 

 Routine SETGRP: Setting up the symmetry group for a 
 body centered tetragonal supercell.


 Subroutine GETGRP returns: Found 16 space group operations
 (whereof  8 operations were pure point group operations)
 out of a pool of 16 trial point group operations.


The dynamic configuration has the point symmetry C_4h.
 The point group associated with its full space group is D_4h.


 Subroutine INISYM returns: Found 16 space group operations
 (whereof  8 operations are pure point group operations),
 and found     1 'primitive' translations


----------------------------------------------------------------------------------------

                                     Primitive cell                                     

  volume of cell :     216.0435

  direct lattice vectors                    reciprocal lattice vectors
     5.929035712  0.000000000 -2.991335544     0.168661490  0.069055757  0.000000000
    -2.246540426  5.486940913 -2.991335544     0.000000000  0.182250915  0.000000000
     0.000000000  0.000000000  6.640900000     0.075972099  0.113198900  0.150581999

  length of vectors
     6.640900000  6.640900000  6.640900000     0.182250915  0.182250915  0.203127274

  position of ions in fractional coordinates (direct lattice)
     0.344280000  0.155720000  0.500000000
     0.655720000  0.844280000  0.500000000
     0.155720000  0.655720000  0.811440000
     0.844280000  0.344280000  0.188560000
     0.000000000  0.000000000  0.500000000
     0.668850000  0.168850000  0.837700000
     0.331150000  0.831150000  0.162300000
     0.000000000  0.500000000  0.000000000
     0.168850000  0.331150000  0.500000000
     0.831150000  0.668850000  0.500000000
     0.500000000  0.500000000  0.500000000
     0.500000000  0.000000000  0.000000000
     0.250000000  0.250000000  0.000000000
     0.750000000  0.750000000  0.000000000

  ion indices of the primitive-cell ions
   primitive index   ion index
                 1           1
                 2           2
                 3           3
                 4           4
                 5           5
                 6           6
                 7           7
                 8           8
                 9           9
                10          10
                11          11
                12          12
                13          13
                14          14

----------------------------------------------------------------------------------------

 
 
 KPOINTS: EA                                      

Automatic generation of k-mesh.
 Grid dimensions read from file:
 generate k-points for:    7    7    7

 Generating k-lattice:

  Cartesian coordinates                     Fractional coordinates (reciprocal lattice)
     0.024094499  0.009865108  0.000000000     0.142857143 -0.000000000  0.000000000
     0.000000000  0.026035845  0.000000000     0.000000000  0.142857143  0.000000000
     0.010853157  0.016171271  0.021511714    -0.000000000  0.000000000  0.142857143

  Length of vectors
     0.026035845  0.026035845  0.029018182

  Shift w.r.t. Gamma in fractional coordinates (k-lattice)
     0.000000000  0.000000000  0.000000000

 
 Subroutine IBZKPT returns following result:
 ===========================================
 
 Found     40 irreducible k-points:
 
 Following reciprocal coordinates:
            Coordinates               Weight
  0.000000  0.000000  0.000000      1.000000
  0.142857 -0.000000  0.000000      8.000000
  0.285714 -0.000000  0.000000      8.000000
  0.428571  0.000000  0.000000      8.000000
  0.142857  0.142857  0.000000      8.000000
  0.285714  0.142857  0.000000     16.000000
  0.428571  0.142857  0.000000     16.000000
 -0.428571  0.142857  0.000000     16.000000
 -0.285714  0.142857  0.000000     16.000000
 -0.142857  0.142857  0.000000      4.000000
  0.285714  0.285714  0.000000      8.000000
  0.428571  0.285714  0.000000     16.000000
 -0.428571  0.285714  0.000000     16.000000
 -0.285714  0.285714  0.000000      4.000000
  0.428571  0.428571  0.000000      8.000000
 -0.428571  0.428571  0.000000      4.000000
  0.142857  0.142857  0.142857      8.000000
  0.285714  0.142857  0.142857     16.000000
 -0.142857  0.142857  0.142857      4.000000
  0.285714  0.285714  0.142857      8.000000
  0.428571  0.285714  0.142857      8.000000
 -0.285714  0.285714  0.142857      8.000000
 -0.142857  0.285714  0.142857      8.000000
 -0.428571  0.428571  0.142857      8.000000
 -0.285714  0.428571  0.142857     16.000000
 -0.142857  0.428571  0.142857      8.000000
 -0.428571 -0.428571  0.142857      8.000000
 -0.285714 -0.428571  0.142857     16.000000
 -0.142857 -0.428571  0.142857      8.000000
 -0.285714 -0.285714  0.142857      8.000000
 -0.142857 -0.285714  0.142857      8.000000
 -0.142857 -0.142857  0.142857      2.000000
 -0.285714  0.285714  0.285714      4.000000
 -0.428571  0.428571  0.285714      8.000000
 -0.285714  0.428571  0.285714      8.000000
 -0.428571 -0.428571  0.285714      8.000000
 -0.285714 -0.428571  0.285714      8.000000
 -0.285714 -0.285714  0.285714      2.000000
 -0.428571  0.428571  0.428571      4.000000
 -0.428571 -0.428571  0.428571      2.000000
 
 Following cartesian coordinates:
            Coordinates               Weight
  0.000000  0.000000  0.000000      1.000000
  0.024094  0.009865  0.000000      8.000000
  0.048189  0.019730  0.000000      8.000000
  0.072283  0.029595  0.000000      8.000000
  0.024094  0.035901  0.000000      8.000000
  0.048189  0.045766  0.000000     16.000000
  0.072283  0.055631  0.000000     16.000000
 -0.072283 -0.003559  0.000000     16.000000
 -0.048189  0.006306  0.000000     16.000000
 -0.024094  0.016171  0.000000      4.000000
  0.048189  0.071802  0.000000      8.000000
  0.072283  0.081667  0.000000     16.000000
 -0.072283  0.022476  0.000000     16.000000
 -0.048189  0.032341  0.000000      4.000000
  0.072283  0.107703  0.000000      8.000000
 -0.072283  0.048512  0.000000      4.000000
  0.034948  0.052072  0.021512      8.000000
  0.059042  0.061937  0.021512     16.000000
 -0.013241  0.032342  0.021512      4.000000
  0.059042  0.087973  0.021512      8.000000
  0.083137  0.097838  0.021512      8.000000
 -0.037336  0.048513  0.021512      8.000000
 -0.013241  0.058378  0.021512      8.000000
 -0.061430  0.064683  0.021512      8.000000
 -0.037336  0.074549  0.021512     16.000000
 -0.013241  0.084414  0.021512      8.000000
 -0.061430 -0.091532  0.021512      8.000000
 -0.037336 -0.081666  0.021512     16.000000
 -0.013241 -0.071801  0.021512      8.000000
 -0.037336 -0.055631  0.021512      8.000000
 -0.013241 -0.045766  0.021512      8.000000
 -0.013241 -0.019730  0.021512      2.000000
 -0.026483  0.064684  0.043023      4.000000
 -0.050577  0.080855  0.043023      8.000000
 -0.026483  0.090720  0.043023      8.000000
 -0.050577 -0.075360  0.043023      8.000000
 -0.026483 -0.065495  0.043023      8.000000
 -0.026483 -0.039459  0.043023      2.000000
 -0.039724  0.097026  0.064535      4.000000
 -0.039724 -0.059189  0.064535      2.000000
 


--------------------------------------------------------------------------------------------------------




 Dimension of arrays:
   k-points           NKPTS =     40   k-points in BZ     NKDIM =     40   number of bands    NBANDS=     84
   number of dos      NEDOS =    301   number of ions     NIONS =     14
   non local maximal  LDIM  =      6   non local SUM 2l+1 LMDIM =     18
   total plane-waves  NPLWV = 157464
   max r-space proj   IRMAX =      1   max aug-charges    IRDMAX= 255161
   dimension x,y,z NGX =    54 NGY =   54 NGZ =   54
   dimension x,y,z NGXF=   108 NGYF=  108 NGZF=  108
   support grid    NGXF=   216 NGYF=  216 NGZF=  216
   ions per type =               4   8   2
   NGX,Y,Z   is equivalent  to a cutoff of  13.52, 13.52, 13.52 a.u.
   NGXF,Y,Z  is equivalent  to a cutoff of  27.04, 27.04, 27.04 a.u.

 SYSTEM =  routine with relax: pwdword             
 POSCAR =  EA211                                   

 Startparameter for this run:
   NWRITE =      2    write-flag & timer
   PREC   = acc       normal or accurate (medium, high low for compatibility)
   ISTART =      0    job   : 0-new  1-cont  2-samecut
   ICHARG =      2    charge: 1-file 2-atom 10-const
   ISPIN  =      1    spin polarized calculation?
   LNONCOLLINEAR =      F non collinear calculations
   LSORBIT =      F    spin-orbit coupling
   INIWAV =      1    electr: 0-lowe 1-rand  2-diag
   LASPH  =      T    aspherical Exc in radial PAW
   METAGGA=      F    non-selfconsistent MetaGGA calc.

 Electronic Relaxation 1
   ENCUT  =  600.0 eV  44.10 Ry    6.64 a.u.  13.26 13.26 13.26*2*pi/ulx,y,z
   ENINI  =  600.0     initial cutoff
   ENAUG  =  535.5 eV  augmentation charge cutoff
   NELM   =    100;   NELMIN=  6; NELMDL= -5     # of ELM steps 
   EDIFF  = 0.1E-08   stopping-criterion for ELM
   LREAL  =      F    real-space projection
   NLSPLINE    = F    spline interpolate recip. space projectors
   LCOMPAT=      F    compatible to vasp.4.4
   GGA_COMPAT  = T    GGA compatible to vasp.4.4-vasp.4.6
   LMAXPAW     = -100 max onsite density
   LMAXMIX     =    2 max onsite mixed and CHGCAR
   VOSKOWN=      0    Vosko Wilk Nusair interpolation
   ROPT   =    0.00000   0.00000   0.00000
 Ionic relaxation
   EDIFFG = 0.1E-07   stopping-criterion for IOM
   NSW    =      0    number of steps for IOM
   NBLOCK =      1;   KBLOCK =      1    inner block; outer block 
   IBRION =     -1    ionic relax: 0-MD 1-quasi-New 2-CG
   NFREE  =      0    steps in history (QN), initial steepest desc. (CG)
   ISIF   =     -1    stress and relaxation
   IWAVPR =     10    prediction:  0-non 1-charg 2-wave 3-comb
   ISYM   =      2    0-nonsym 1-usesym 2-fastsym
   LCORR  =      T    Harris-Foulkes like correction to forces

   POTIM  = 0.5000    time-step for ionic-motion
   TEIN   =    0.0    initial temperature
   TEBEG  =    0.0;   TEEND  =   0.0 temperature during run
   SMASS  =  -3.00    Nose mass-parameter (am)
   estimated Nose-frequenzy (Omega)   =  0.10E-29 period in steps = 0.13E+47 mass=  -0.101E-26a.u.
   SCALEE = 1.0000    scale energy and forces
   NPACO  =    256;   APACO  = 16.0  distance and # of slots for P.C.
   PSTRESS=    0.0 pullay stress

  Mass of Ions in am
   POMASS =  10.81 95.94 28.09
  Ionic Valenz
   ZVAL   =   3.00 14.00  4.00
  Atomic Wigner-Seitz radii
   RWIGS  =  -1.00 -1.00 -1.00
  virtual crystal weights 
   VCA    =   1.00  1.00  1.00
   NELECT =     132.0000    total number of electrons
   NUPDOWN=      -1.0000    fix difference up-down

 DOS related values:
   EMIN   =  10.00;   EMAX   =-10.00  energy-range for DOS
   EFERMI =   0.00
   ISMEAR =     0;   SIGMA  =   0.02  broadening in eV -4-tet -1-fermi 0-gaus

 Electronic relaxation 2 (details)
   IALGO  =     58    algorithm
   LDIAG  =      T    sub-space diagonalisation (order eigenvalues)
   LSUBROT=      F    optimize rotation matrix (better conditioning)
   TURBO    =      0    0=normal 1=particle mesh
   IRESTART =      0    0=no restart 2=restart with 2 vectors
   NREBOOT  =      0    no. of reboots
   NMIN     =      0    reboot dimension
   EREF     =   0.00    reference energy to select bands
   IMIX   =      4    mixing-type and parameters
     AMIX     =   0.40;   BMIX     =  1.00
     AMIX_MAG =   1.60;   BMIX_MAG =  1.00
     AMIN     =   0.10
     WC   =   100.;   INIMIX=   1;  MIXPRE=   1;  MAXMIX= -45

 Intra band minimization:
   WEIMIN = 0.0000     energy-eigenvalue tresh-hold
   EBREAK =  0.30E-11  absolut break condition
   DEPER  =   0.30     relativ break condition  

   TIME   =   0.40     timestep for ELM

  volume/ion in A,a.u.               =      15.43       104.14
  Fermi-wavevector in a.u.,A,eV,Ry     =   1.389160  2.625132 26.256067  1.929766
  Thomas-Fermi vector in A             =   2.513218
 
 Write flags
   LWAVE        =      T    write WAVECAR
   LDOWNSAMPLE  =      F    k-point downsampling of WAVECAR
   LCHARG       =      T    write CHGCAR
   LVTOT        =      F    write LOCPOT, total local potential
   LVHAR        =      F    write LOCPOT, Hartree potential only
   LELF         =      F    write electronic localiz. function (ELF)
   LORBIT       =      0    0 simple, 1 ext, 2 COOP (PROOUT), +10 PAW based schemes


 Dipole corrections
   LMONO  =      F    monopole corrections only (constant potential shift)
   LDIPOL =      F    correct potential (dipole corrections)
   IDIPOL =      0    1-x, 2-y, 3-z, 4-all directions 
   EPSILON=  1.0000000 bulk dielectric constant

 Exchange correlation treatment:
   GGA     =    --    GGA type
   LEXCH   =     8    internal setting for exchange type
   VOSKOWN=      0    Vosko Wilk Nusair interpolation
   LHFCALC =     F    Hartree Fock is set to
   LHFONE  =     F    Hartree Fock one center treatment
   AEXX    =    0.0000 exact exchange contribution

 Linear response parameters
   LEPSILON=     F    determine dielectric tensor
   LRPA    =     F    only Hartree local field effects (RPA)
   LNABLA  =     F    use nabla operator in PAW spheres
   LVEL    =     F    velocity operator in full k-point grid
   LINTERFAST=   F  fast interpolation
   KINTER  =     0    interpolate to denser k-point grid
   CSHIFT  =0.1000    complex shift for real part using Kramers Kronig
   OMEGAMAX=  -1.0    maximum frequency
   DEG_THRESHOLD= 0.2000000E-02 threshold for treating states as degnerate
   RTIME   =   -0.100 relaxation time in fs
  (WPLASMAI=    0.000 imaginary part of plasma frequency in eV, 0.658/RTIME)
   DFIELD  = 0.0000000 0.0000000 0.0000000 field for delta impulse in time
 
 Orbital magnetization related:
   ORBITALMAG=     F  switch on orbital magnetization
   LCHIMAG   =     F  perturbation theory with respect to B field
   DQ        =  0.001000  dq finite difference perturbation B field
   LLRAUG    =     F  two centre corrections for induced B field



--------------------------------------------------------------------------------------------------------


 Static calculation
 charge density and potential will be updated during run
 non-spin polarized calculation
 Conjugate gradient for all bands (Freysoldt, et al. PRB 79, 241103 (2009))
 preconditioned conjugated gradient                                        
 perform sub-space diagonalisation
    before iterative eigenvector-optimisation
 modified Broyden-mixing scheme, WC =      100.0
 initial mixing is a Kerker type mixing with AMIX =  0.4000 and BMIX =      1.0000
 Hartree-type preconditioning will be used
 using additional bands           18
 reciprocal scheme for non local part
 use partial core corrections
 no Harris-corrections to forces 
 use gradient corrections 
 use of overlap-Matrix (Vanderbilt PP)
 Gauss-broadening in eV      SIGMA  =   0.02


--------------------------------------------------------------------------------------------------------


  energy-cutoff  :      600.00
  volume of cell :      216.04
      direct lattice vectors                 reciprocal lattice vectors
     5.929035712  0.000000000 -2.991335544     0.168661490  0.069055757  0.000000000
    -2.246540426  5.486940913 -2.991335544     0.000000000  0.182250915  0.000000000
     0.000000000  0.000000000  6.640900000     0.075972099  0.113198900  0.150581999

  length of vectors
     6.640900000  6.640900000  6.640900000     0.182250915  0.182250915  0.203127274


 
 k-points in units of 2pi/SCALE and weight: EA                                      
   0.00000000  0.00000000  0.00000000       0.003
   0.02409450  0.00986511  0.00000000       0.023
   0.04818900  0.01973022  0.00000000       0.023
   0.07228350  0.02959532  0.00000000       0.023
   0.02409450  0.03590095  0.00000000       0.023
   0.04818900  0.04576606  0.00000000       0.047
   0.07228350  0.05563117  0.00000000       0.047
  -0.07228350 -0.00355948  0.00000000       0.047
  -0.04818900  0.00630563  0.00000000       0.047
  -0.02409450  0.01617074  0.00000000       0.012
   0.04818900  0.07180191  0.00000000       0.023
   0.07228350  0.08166701  0.00000000       0.047
  -0.07228350  0.02247637  0.00000000       0.047
  -0.04818900  0.03234147  0.00000000       0.012
   0.07228350  0.10770286  0.00000000       0.023
  -0.07228350  0.04851221  0.00000000       0.012
   0.03494766  0.05207222  0.02151171       0.023
   0.05904215  0.06193733  0.02151171       0.047
  -0.01324134  0.03234201  0.02151171       0.012
   0.05904215  0.08797318  0.02151171       0.023
   0.08313665  0.09783829  0.02151171       0.023
  -0.03733584  0.04851275  0.02151171       0.023
  -0.01324134  0.05837785  0.02151171       0.023
  -0.06143034  0.06468348  0.02151171       0.023
  -0.03733584  0.07454859  0.02151171       0.047
  -0.01324134  0.08441370  0.02151171       0.023
  -0.06143034 -0.09153159  0.02151171       0.023
  -0.03733584 -0.08166648  0.02151171       0.047
  -0.01324134 -0.07180137  0.02151171       0.023
  -0.03733584 -0.05563063  0.02151171       0.023
  -0.01324134 -0.04576553  0.02151171       0.023
  -0.01324134 -0.01972968  0.02151171       0.006
  -0.02648268  0.06468402  0.04302343       0.012
  -0.05057718  0.08085475  0.04302343       0.023
  -0.02648268  0.09071986  0.04302343       0.023
  -0.05057718 -0.07536032  0.04302343       0.023
  -0.02648268 -0.06549521  0.04302343       0.023
  -0.02648268 -0.03945936  0.04302343       0.006
  -0.03972402  0.09702603  0.06453514       0.012
  -0.03972402 -0.05918904  0.06453514       0.006
 
 k-points in reciprocal lattice and weights: EA                                      
   0.00000000  0.00000000  0.00000000       0.003
   0.14285714 -0.00000000  0.00000000       0.023
   0.28571429 -0.00000000  0.00000000       0.023
   0.42857143  0.00000000  0.00000000       0.023
   0.14285714  0.14285714  0.00000000       0.023
   0.28571429  0.14285714  0.00000000       0.047
   0.42857143  0.14285714  0.00000000       0.047
  -0.42857143  0.14285714  0.00000000       0.047
  -0.28571429  0.14285714  0.00000000       0.047
  -0.14285714  0.14285714  0.00000000       0.012
   0.28571429  0.28571429  0.00000000       0.023
   0.42857143  0.28571429  0.00000000       0.047
  -0.42857143  0.28571429  0.00000000       0.047
  -0.28571429  0.28571429  0.00000000       0.012
   0.42857143  0.42857143  0.00000000       0.023
  -0.42857143  0.42857143  0.00000000       0.012
   0.14285714  0.14285714  0.14285714       0.023
   0.28571429  0.14285714  0.14285714       0.047
  -0.14285714  0.14285714  0.14285714       0.012
   0.28571429  0.28571429  0.14285714       0.023
   0.42857143  0.28571429  0.14285714       0.023
  -0.28571429  0.28571429  0.14285714       0.023
  -0.14285714  0.28571429  0.14285714       0.023
  -0.42857143  0.42857143  0.14285714       0.023
  -0.28571429  0.42857143  0.14285714       0.047
  -0.14285714  0.42857143  0.14285714       0.023
  -0.42857143 -0.42857143  0.14285714       0.023
  -0.28571429 -0.42857143  0.14285714       0.047
  -0.14285714 -0.42857143  0.14285714       0.023
  -0.28571429 -0.28571429  0.14285714       0.023
  -0.14285714 -0.28571429  0.14285714       0.023
  -0.14285714 -0.14285714  0.14285714       0.006
  -0.28571429  0.28571429  0.28571429       0.012
  -0.42857143  0.42857143  0.28571429       0.023
  -0.28571429  0.42857143  0.28571429       0.023
  -0.42857143 -0.42857143  0.28571429       0.023
  -0.28571429 -0.42857143  0.28571429       0.023
  -0.28571429 -0.28571429  0.28571429       0.006
  -0.42857143  0.42857143  0.42857143       0.012
  -0.42857143 -0.42857143  0.42857143       0.006
 
 position of ions in fractional coordinates (direct lattice) 
   0.34428000  0.15572000  0.50000000
   0.65572000  0.84428000  0.50000000
   0.15572000  0.65572000  0.81144000
   0.84428000  0.34428000  0.18856000
   0.00000000  0.00000000  0.50000000
   0.66885000  0.16885000  0.83770000
   0.33115000  0.83115000  0.16230000
   0.00000000  0.50000000  0.00000000
   0.16885000  0.33115000  0.50000000
   0.83115000  0.66885000  0.50000000
   0.50000000  0.50000000  0.50000000
   0.50000000  0.00000000  0.00000000
   0.25000000  0.25000000  0.00000000
   0.75000000  0.75000000  0.00000000
 
 position of ions in cartesian coordinates  (Angst):
   1.69141714  0.85442644  1.82478223
   1.99107815  4.63251447 -1.16655332
  -0.54983205  3.59789690  2.96140258
   4.23232733  1.88904402 -2.30317367
   0.00000000  0.00000000  3.32045000
   3.58630718  0.92646997  3.05724014
   0.09618810  4.56047094 -2.39901123
  -1.12327021  2.74347046 -1.49566777
   0.25717582  1.81700048  1.82478223
   3.42531947  3.66994043 -1.16655332
   1.84124764  2.74347046  0.32911446
   2.96451786  0.00000000 -1.49566777
   0.92062382  1.37173523 -1.49566777
   2.76187146  4.11520568 -4.48700332
 


--------------------------------------------------------------------------------------------------------


 k-point   1 :   0.0000 0.0000 0.0000  plane waves:    7221
 k-point   2 :   0.1429-0.0000 0.0000  plane waves:    7216
 k-point   3 :   0.2857-0.0000 0.0000  plane waves:    7207
 k-point   4 :   0.4286 0.0000 0.0000  plane waves:    7214
 k-point   5 :   0.1429 0.1429 0.0000  plane waves:    7188
 k-point   6 :   0.2857 0.1429 0.0000  plane waves:    7213
 k-point   7 :   0.4286 0.1429 0.0000  plane waves:    7218
 k-point   8 :  -0.4286 0.1429 0.0000  plane waves:    7215
 k-point   9 :  -0.2857 0.1429 0.0000  plane waves:    7208
 k-point  10 :  -0.1429 0.1429 0.0000  plane waves:    7219
 k-point  11 :   0.2857 0.2857 0.0000  plane waves:    7197
 k-point  12 :   0.4286 0.2857 0.0000  plane waves:    7213
 k-point  13 :  -0.4286 0.2857 0.0000  plane waves:    7216
 k-point  14 :  -0.2857 0.2857 0.0000  plane waves:    7206
 k-point  15 :   0.4286 0.4286 0.0000  plane waves:    7223
 k-point  16 :  -0.4286 0.4286 0.0000  plane waves:    7206
 k-point  17 :   0.1429 0.1429 0.1429  plane waves:    7220
 k-point  18 :   0.2857 0.1429 0.1429  plane waves:    7219
 k-point  19 :  -0.1429 0.1429 0.1429  plane waves:    7230
 k-point  20 :   0.2857 0.2857 0.1429  plane waves:    7221
 k-point  21 :   0.4286 0.2857 0.1429  plane waves:    7215
 k-point  22 :  -0.2857 0.2857 0.1429  plane waves:    7215
 k-point  23 :  -0.1429 0.2857 0.1429  plane waves:    7197
 k-point  24 :  -0.4286 0.4286 0.1429  plane waves:    7210
 k-point  25 :  -0.2857 0.4286 0.1429  plane waves:    7188
 k-point  26 :  -0.1429 0.4286 0.1429  plane waves:    7215
 k-point  27 :  -0.4286-0.4286 0.1429  plane waves:    7230
 k-point  28 :  -0.2857-0.4286 0.1429  plane waves:    7208
 k-point  29 :  -0.1429-0.4286 0.1429  plane waves:    7202
 k-point  30 :  -0.2857-0.2857 0.1429  plane waves:    7204
 k-point  31 :  -0.1429-0.2857 0.1429  plane waves:    7196
 k-point  32 :  -0.1429-0.1429 0.1429  plane waves:    7182
 k-point  33 :  -0.2857 0.2857 0.2857  plane waves:    7178
 k-point  34 :  -0.4286 0.4286 0.2857  plane waves:    7212
 k-point  35 :  -0.2857 0.4286 0.2857  plane waves:    7211
 k-point  36 :  -0.4286-0.4286 0.2857  plane waves:    7214
 k-point  37 :  -0.2857-0.4286 0.2857  plane waves:    7208
 k-point  38 :  -0.2857-0.2857 0.2857  plane waves:    7212
 k-point  39 :  -0.4286 0.4286 0.4286  plane waves:    7196
 k-point  40 :  -0.4286-0.4286 0.4286  plane waves:    7178

 maximum and minimum number of plane-waves per node :      3631     3581

 maximum number of plane-waves:      7230
 maximum index in each direction: 
   IXMAX=   13   IYMAX=   13   IZMAX=   13
   IXMIN=  -13   IYMIN=  -13   IZMIN=  -13


 parallel 3D FFT for wavefunctions:
    minimum data exchange during FFTs selected (reduces bandwidth)
 parallel 3D FFT for charge:
    minimum data exchange during FFTs selected (reduces bandwidth)


 total amount of memory used by VASP MPI-rank0   225198. kBytes
=======================================================================

   base      :      30000. kBytes
   nonl-proj :      63644. kBytes
   fftplans  :      17774. kBytes
   grid      :      13358. kBytes
   one-center:        108. kBytes
   wavefun   :     100314. kBytes
 
     INWAV:  cpu time    0.0001: real time    0.0001
 Broyden mixing: mesh for mixing (old mesh)
   NGX = 27   NGY = 27   NGZ = 27
  (NGX  =108   NGY  =108   NGZ  =108)
  gives a total of  19683 points

 initial charge density was supplied:
 charge density of overlapping atoms calculated
 number of electron     132.0000000 magnetization 
 keeping initial charge density in first step


--------------------------------------------------------------------------------------------------------


 Maximum index for augmentation-charges        20831 (set IRDMAX)


--------------------------------------------------------------------------------------------------------


 First call to EWALD:  gamma=   0.295
 Maximum number of real-space cells 3x 3x 3
 Maximum number of reciprocal cells 3x 3x 3

    FEWALD:  cpu time    0.0061: real time    0.0062


--------------------------------------- Iteration      1(   1)  ---------------------------------------


    POTLOK:  cpu time    0.1931: real time    0.1963
    SETDIJ:  cpu time    0.6326: real time    0.6376
    TRIAL :  cpu time   15.0373: real time   15.1912
    CORREC:  cpu time    0.0011: real time    0.0011
    --------------------------------------------
      LOOP:  cpu time   15.9100: real time   16.0769

 eigenvalue-minimisations  :  6936
 total energy-change (2. order) : 0.1481941E+04  (-0.9048977E+04)
 number of electron     132.0000000 magnetization 
 augmentation part      132.0000000 magnetization 

 Free energy of the ion-electron system (eV)
  ---------------------------------------------------
  alpha Z        PSCENC =       709.73838265
  Ewald energy   TEWEN  =    -11499.29620779
  -Hartree energ DENC   =     -3770.97011219
  -exchange      EXHF   =         0.00000000
  -V(xc)+E(xc)   XCENC  =       635.04512803
  PAW double counting   =     12222.79056693   -12176.19405220
  entropy T*S    EENTRO =        -0.00074733
  eigenvalues    EBANDS =       -28.24337042
  atomic energy  EATOM  =     15389.07168825
  ---------------------------------------------------
  free energy    TOTEN  =      1481.94127593 eV

  energy without entropy =     1481.94202326  energy(sigma->0) =     1481.94164959


--------------------------------------------------------------------------------------------------------




--------------------------------------- Iteration      1(   2)  ---------------------------------------


    TRIAL :  cpu time   15.2252: real time   15.3773
    CORREC:  cpu time    0.0010: real time    0.0010
    --------------------------------------------
      LOOP:  cpu time   15.2284: real time   15.3816

 eigenvalue-minimisations  :  7212
 total energy-change (2. order) :-0.1703151E+04  (-0.1656689E+04)
 number of electron     132.0000000 magnetization 
 augmentation part      132.0000000 magnetization 

 Free energy of the ion-electron system (eV)
  ---------------------------------------------------
  alpha Z        PSCENC =       709.73838265
  Ewald energy   TEWEN  =    -11499.29620779
  -Hartree energ DENC   =     -3770.97011219
  -exchange      EXHF   =         0.00000000
  -V(xc)+E(xc)   XCENC  =       635.04512803
  PAW double counting   =     12222.79056693   -12176.19405220
  entropy T*S    EENTRO =        -0.00210689
  eigenvalues    EBANDS =     -1731.39291026
  atomic energy  EATOM  =     15389.07168825
  ---------------------------------------------------
  free energy    TOTEN  =      -221.20962347 eV

  energy without entropy =     -221.20751658  energy(sigma->0) =     -221.20857003


--------------------------------------------------------------------------------------------------------




--------------------------------------- Iteration      1(   3)  ---------------------------------------


    TRIAL :  cpu time   16.9610: real time   17.1307
    CORREC:  cpu time    0.0010: real time    0.0010
    --------------------------------------------
      LOOP:  cpu time   16.9644: real time   17.1349

 eigenvalue-minimisations  :  8916
 total energy-change (2. order) :-0.7242123E+02  (-0.6992099E+02)
 number of electron     132.0000000 magnetization 
 augmentation part      132.0000000 magnetization 

 Free energy of the ion-electron system (eV)
  ---------------------------------------------------
  alpha Z        PSCENC =       709.73838265
  Ewald energy   TEWEN  =    -11499.29620779
  -Hartree energ DENC   =     -3770.97011219
  -exchange      EXHF   =         0.00000000
  -V(xc)+E(xc)   XCENC  =       635.04512803
  PAW double counting   =     12222.79056693   -12176.19405220
  entropy T*S    EENTRO =        -0.00234319
  eigenvalues    EBANDS =     -1803.81390825
  atomic energy  EATOM  =     15389.07168825
  ---------------------------------------------------
  free energy    TOTEN  =      -293.63085777 eV

  energy without entropy =     -293.62851458  energy(sigma->0) =     -293.62968617


--------------------------------------------------------------------------------------------------------




--------------------------------------- Iteration      1(   4)  ---------------------------------------


    TRIAL :  cpu time   16.3283: real time   16.4944
    CORREC:  cpu time    0.0010: real time    0.0010
    --------------------------------------------
      LOOP:  cpu time   16.3305: real time   16.4983

 eigenvalue-minimisations  :  8184
 total energy-change (2. order) :-0.1773650E+01  (-0.1754817E+01)
 number of electron     132.0000000 magnetization 
 augmentation part      132.0000000 magnetization 

 Free energy of the ion-electron system (eV)
  ---------------------------------------------------
  alpha Z        PSCENC =       709.73838265
  Ewald energy   TEWEN  =    -11499.29620779
  -Hartree energ DENC   =     -3770.97011219
  -exchange      EXHF   =         0.00000000
  -V(xc)+E(xc)   XCENC  =       635.04512803
  PAW double counting   =     12222.79056693   -12176.19405220
  entropy T*S    EENTRO =        -0.00237530
  eigenvalues    EBANDS =     -1805.58752639
  atomic energy  EATOM  =     15389.07168825
  ---------------------------------------------------
  free energy    TOTEN  =      -295.40450801 eV

  energy without entropy =     -295.40213271  energy(sigma->0) =     -295.40332036


--------------------------------------------------------------------------------------------------------




--------------------------------------- Iteration      1(   5)  ---------------------------------------


    TRIAL :  cpu time   15.8714: real time   16.0314
    CORREC:  cpu time    0.0010: real time    0.0010
    CHARGE:  cpu time    1.3095: real time    1.3216
    --------------------------------------------
      LOOP:  cpu time   17.1840: real time   17.3568

 eigenvalue-minimisations  :  8064
 total energy-change (2. order) :-0.3427991E-01  (-0.3424290E-01)
 number of electron     132.0000009 magnetization 
 augmentation part       17.0148290 magnetization 

 Free energy of the ion-electron system (eV)
  ---------------------------------------------------
  alpha Z        PSCENC =       709.73838265
  Ewald energy   TEWEN  =    -11499.29620779
  -Hartree energ DENC   =     -3770.97011219
  -exchange      EXHF   =         0.00000000
  -V(xc)+E(xc)   XCENC  =       635.04512803
  PAW double counting   =     12222.79056693   -12176.19405220
  entropy T*S    EENTRO =        -0.00238397
  eigenvalues    EBANDS =     -1805.62179763
  atomic energy  EATOM  =     15389.07168825
  ---------------------------------------------------
  free energy    TOTEN  =      -295.43878792 eV

  energy without entropy =     -295.43640395  energy(sigma->0) =     -295.43759593


--------------------------------------------------------------------------------------------------------




--------------------------------------- Iteration      1(   6)  ---------------------------------------


    POTLOK:  cpu time    0.1563: real time    0.1573
    SETDIJ:  cpu time    0.6503: real time    0.6552
    TRIAL :  cpu time   11.4941: real time   11.6327
    CORREC:  cpu time    4.8646: real time    4.9076
    CHARGE:  cpu time    1.3170: real time    1.3284
    --------------------------------------------
      LOOP:  cpu time   18.4843: real time   18.6845

 eigenvalue-minimisations  :     0
 total energy-change (2. order) : 0.9180040E+02  (-0.2475694E+02)
 number of electron     132.0000011 magnetization 
 augmentation part       19.3562056 magnetization 

 Free energy of the ion-electron system (eV)
  ---------------------------------------------------
  alpha Z        PSCENC =       709.73838265
  Ewald energy   TEWEN  =    -11499.29620779
  -Hartree energ DENC   =     -3366.42364575
  -exchange      EXHF   =         0.00000000
  -V(xc)+E(xc)   XCENC  =       637.09597156
  PAW double counting   =     18732.96310046   -18738.46889783
  entropy T*S    EENTRO =        -0.00267178
  eigenvalues    EBANDS =     -2068.31639805
  atomic energy  EATOM  =     15389.07168825
  ---------------------------------------------------
  free energy    TOTEN  =      -203.63839047 eV

  energy without entropy =     -203.63571869  energy(sigma->0) =     -203.63705458


--------------------------------------------------------------------------------------------------------




--------------------------------------- Iteration      1(   7)  ---------------------------------------


    POTLOK:  cpu time    0.1458: real time    0.1471
    SETDIJ:  cpu time    0.6532: real time    0.6583
    TRIAL :  cpu time   12.0534: real time   12.1670
    CORREC:  cpu time    5.3061: real time    5.3501
    CHARGE:  cpu time    1.3888: real time    1.4000
    --------------------------------------------
      LOOP:  cpu time   19.5582: real time   19.7346

 eigenvalue-minimisations  :     0
 total energy-change (2. order) :-0.2525840E+02  (-0.4630712E+01)
 number of electron     132.0000012 magnetization 
 augmentation part       19.3318238 magnetization 

 Free energy of the ion-electron system (eV)
  ---------------------------------------------------
  alpha Z        PSCENC =       709.73838265
  Ewald energy   TEWEN  =    -11499.29620779
  -Hartree energ DENC   =     -3624.53248454
  -exchange      EXHF   =         0.00000000
  -V(xc)+E(xc)   XCENC  =       648.69423682
  PAW double counting   =     17626.86058709   -17612.64728193
  entropy T*S    EENTRO =        -0.00216467
  eigenvalues    EBANDS =     -1866.78303840
  atomic energy  EATOM  =     15389.07168825
  ---------------------------------------------------
  free energy    TOTEN  =      -228.89678963 eV

  energy without entropy =     -228.89462496  energy(sigma->0) =     -228.89570729


--------------------------------------------------------------------------------------------------------




--------------------------------------- Iteration      1(   8)  ---------------------------------------


    POTLOK:  cpu time    0.1521: real time    0.1531
    SETDIJ:  cpu time    0.6363: real time    0.6410
    TRIAL :  cpu time   13.8402: real time   13.9685
    CORREC:  cpu time    5.1186: real time    5.1642
    CHARGE:  cpu time    1.5304: real time    1.5433
    --------------------------------------------
      LOOP:  cpu time   21.2899: real time   21.4828

 eigenvalue-minimisations  :     0
 total energy-change (2. order) :-0.4628917E+01  (-0.1019041E+01)
 number of electron     132.0000011 magnetization 
 augmentation part       19.2601969 magnetization 

 Free energy of the ion-electron system (eV)
  ---------------------------------------------------
  alpha Z        PSCENC =       709.73838265
  Ewald energy   TEWEN  =    -11499.29620779
  -Hartree energ DENC   =     -3656.69821452
  -exchange      EXHF   =         0.00000000
  -V(xc)+E(xc)   XCENC  =       649.89803932
  PAW double counting   =     17173.77503303   -17154.63364555
  entropy T*S    EENTRO =        -0.00243174
  eigenvalues    EBANDS =     -1845.37861775
  atomic energy  EATOM  =     15389.07168825
  ---------------------------------------------------
  free energy    TOTEN  =      -233.52570702 eV

  energy without entropy =     -233.52327528  energy(sigma->0) =     -233.52449115


--------------------------------------------------------------------------------------------------------




--------------------------------------- Iteration      1(   9)  ---------------------------------------


    POTLOK:  cpu time    0.1502: real time    0.1513
    SETDIJ:  cpu time    0.6327: real time    0.6375
    TRIAL :  cpu time   13.0517: real time   13.1719
    CORREC:  cpu time    4.7474: real time    4.7888
    CHARGE:  cpu time    1.4576: real time    1.4691
    --------------------------------------------
      LOOP:  cpu time   20.1649: real time   20.3450

 eigenvalue-minimisations  :     0
 total energy-change (2. order) :-0.1018901E+01  (-0.4431936E+00)
 number of electron     132.0000010 magnetization 
 augmentation part       19.2343936 magnetization 

 Free energy of the ion-electron system (eV)
  ---------------------------------------------------
  alpha Z        PSCENC =       709.73838265
  Ewald energy   TEWEN  =    -11499.29620779
  -Hartree energ DENC   =     -3654.81238053
  -exchange      EXHF   =         0.00000000
  -V(xc)+E(xc)   XCENC  =       649.75570897
  PAW double counting   =     17026.74191359   -17005.25428359
  entropy T*S    EENTRO =        -0.00248532
  eigenvalues    EBANDS =     -1850.48699794
  atomic energy  EATOM  =     15389.07168825
  ---------------------------------------------------
  free energy    TOTEN  =      -234.54460812 eV

  energy without entropy =     -234.54212281  energy(sigma->0) =     -234.54336546


--------------------------------------------------------------------------------------------------------




--------------------------------------- Iteration      1(  10)  ---------------------------------------


    POTLOK:  cpu time    0.1405: real time    0.1415
    SETDIJ:  cpu time    0.6494: real time    0.6549
    TRIAL :  cpu time   12.4590: real time   12.5723
    CORREC:  cpu time    4.8131: real time    4.8564
    CHARGE:  cpu time    1.3743: real time    1.3867
    --------------------------------------------
      LOOP:  cpu time   19.4386: real time   19.6149

 eigenvalue-minimisations  :     0
 total energy-change (2. order) :-0.4429113E+00  (-0.1638763E+00)
 number of electron     132.0000010 magnetization 
 augmentation part       19.2763177 magnetization 

 Free energy of the ion-electron system (eV)
  ---------------------------------------------------
  alpha Z        PSCENC =       709.73838265
  Ewald energy   TEWEN  =    -11499.29620779
  -Hartree energ DENC   =     -3657.44626475
  -exchange      EXHF   =         0.00000000
  -V(xc)+E(xc)   XCENC  =       649.92408973
  PAW double counting   =     16942.99568119   -16919.55492662
  entropy T*S    EENTRO =        -0.00238335
  eigenvalues    EBANDS =     -1850.41747679
  atomic energy  EATOM  =     15389.07168825
  ---------------------------------------------------
  free energy    TOTEN  =      -234.98751944 eV

  energy without entropy =     -234.98513609  energy(sigma->0) =     -234.98632777


--------------------------------------------------------------------------------------------------------




--------------------------------------- Iteration      1(  11)  ---------------------------------------


    POTLOK:  cpu time    0.1414: real time    0.1424
    SETDIJ:  cpu time    0.6466: real time    0.6518
    TRIAL :  cpu time   12.1092: real time   12.2260
    CORREC:  cpu time    4.7146: real time    4.7555
    CHARGE:  cpu time    1.3629: real time    1.3746
    --------------------------------------------
      LOOP:  cpu time   18.9858: real time   19.1621

 eigenvalue-minimisations  :     0
 total energy-change (2. order) :-0.1639326E+00  (-0.5843022E-01)
 number of electron     132.0000010 magnetization 
 augmentation part       19.2859090 magnetization 

 Free energy of the ion-electron system (eV)
  ---------------------------------------------------
  alpha Z        PSCENC =       709.73838265
  Ewald energy   TEWEN  =    -11499.29620779
  -Hartree energ DENC   =     -3665.66843035
  -exchange      EXHF   =         0.00000000
  -V(xc)+E(xc)   XCENC  =       650.34444586
  PAW double counting   =     16917.60270299   -16893.01237053
  entropy T*S    EENTRO =        -0.00227478
  eigenvalues    EBANDS =     -1843.92927981
  atomic energy  EATOM  =     15389.07168825
  ---------------------------------------------------
  free energy    TOTEN  =      -235.15145208 eV

  energy without entropy =     -235.14917730  energy(sigma->0) =     -235.15031469


--------------------------------------------------------------------------------------------------------




--------------------------------------- Iteration      1(  12)  ---------------------------------------


    POTLOK:  cpu time    0.1540: real time    0.1552
    SETDIJ:  cpu time    0.6726: real time    0.6779
    TRIAL :  cpu time   12.9150: real time   13.0311
    CORREC:  cpu time    4.5759: real time    4.6169
    CHARGE:  cpu time    1.2470: real time    1.2589
    --------------------------------------------
      LOOP:  cpu time   19.5671: real time   19.7434

 eigenvalue-minimisations  :     0
 total energy-change (2. order) :-0.5840918E-01  (-0.2569412E-01)
 number of electron     132.0000010 magnetization 
 augmentation part       19.2637759 magnetization 

 Free energy of the ion-electron system (eV)
  ---------------------------------------------------
  alpha Z        PSCENC =       709.73838265
  Ewald energy   TEWEN  =    -11499.29620779
  -Hartree energ DENC   =     -3666.16241673
  -exchange      EXHF   =         0.00000000
  -V(xc)+E(xc)   XCENC  =       650.40082421
  PAW double counting   =     16945.90414149   -16921.19537488
  entropy T*S    EENTRO =        -0.00231707
  eigenvalues    EBANDS =     -1843.66862369
  atomic energy  EATOM  =     15389.07168825
  ---------------------------------------------------
  free energy    TOTEN  =      -235.20986126 eV

  energy without entropy =     -235.20754419  energy(sigma->0) =     -235.20870273


--------------------------------------------------------------------------------------------------------




--------------------------------------- Iteration      1(  13)  ---------------------------------------


    POTLOK:  cpu time    0.1471: real time    0.1481
    SETDIJ:  cpu time    0.6232: real time    0.6279
    TRIAL :  cpu time   13.3347: real time   13.4584
    CORREC:  cpu time    4.7518: real time    4.7936
    CHARGE:  cpu time    1.3663: real time    1.3772
    --------------------------------------------
      LOOP:  cpu time   20.2253: real time   20.4084

 eigenvalue-minimisations  :     0
 total energy-change (2. order) :-0.2567767E-01  (-0.1104254E-01)
 number of electron     132.0000009 magnetization 
 augmentation part       19.2716253 magnetization 

 Free energy of the ion-electron system (eV)
  ---------------------------------------------------
  alpha Z        PSCENC =       709.73838265
  Ewald energy   TEWEN  =    -11499.29620779
  -Hartree energ DENC   =     -3663.59942443
  -exchange      EXHF   =         0.00000000
  -V(xc)+E(xc)   XCENC  =       650.28808945
  PAW double counting   =     16990.05858342   -16965.65296549
  entropy T*S    EENTRO =        -0.00239256
  eigenvalues    EBANDS =     -1845.84136793
  atomic energy  EATOM  =     15389.07168825
  ---------------------------------------------------
  free energy    TOTEN  =      -235.23553893 eV

  energy without entropy =     -235.23314638  energy(sigma->0) =     -235.23434266


--------------------------------------------------------------------------------------------------------




--------------------------------------- Iteration      1(  14)  ---------------------------------------


    POTLOK:  cpu time    0.1467: real time    0.1477
    SETDIJ:  cpu time    0.6406: real time    0.6454
    TRIAL :  cpu time   13.2528: real time   13.3761
    CORREC:  cpu time    4.5380: real time    4.5795
    CHARGE:  cpu time    1.5922: real time    1.6046
    --------------------------------------------
      LOOP:  cpu time   20.3170: real time   20.5025

 eigenvalue-minimisations  :     0
 total energy-change (2. order) :-0.1101839E-01  (-0.4988260E-02)
 number of electron     132.0000009 magnetization 
 augmentation part       19.2742049 magnetization 

 Free energy of the ion-electron system (eV)
  ---------------------------------------------------
  alpha Z        PSCENC =       709.73838265
  Ewald energy   TEWEN  =    -11499.29620779
  -Hartree energ DENC   =     -3664.93444977
  -exchange      EXHF   =         0.00000000
  -V(xc)+E(xc)   XCENC  =       650.34130356
  PAW double counting   =     17014.94181708   -16990.53911454
  entropy T*S    EENTRO =        -0.00243445
  eigenvalues    EBANDS =     -1844.56758421
  atomic energy  EATOM  =     15389.07168825
  ---------------------------------------------------
  free energy    TOTEN  =      -235.24655732 eV

  energy without entropy =     -235.24412287  energy(sigma->0) =     -235.24534010


--------------------------------------------------------------------------------------------------------




--------------------------------------- Iteration      1(  15)  ---------------------------------------


    POTLOK:  cpu time    0.1457: real time    0.1467
    SETDIJ:  cpu time    0.6534: real time    0.6595
    TRIAL :  cpu time   11.0193: real time   11.1344
    CORREC:  cpu time    5.0028: real time    5.0494
    CHARGE:  cpu time    1.7064: real time    1.7210
    --------------------------------------------
      LOOP:  cpu time   18.5533: real time   18.7371

 eigenvalue-minimisations  :     0
 total energy-change (2. order) :-0.4980351E-02  (-0.1899396E-02)
 number of electron     132.0000009 magnetization 
 augmentation part       19.2695506 magnetization 

 Free energy of the ion-electron system (eV)
  ---------------------------------------------------
  alpha Z        PSCENC =       709.73838265
  Ewald energy   TEWEN  =    -11499.29620779
  -Hartree energ DENC   =     -3664.92181253
  -exchange      EXHF   =         0.00000000
  -V(xc)+E(xc)   XCENC  =       650.34023451
  PAW double counting   =     17017.51170073   -16993.07412748
  entropy T*S    EENTRO =        -0.00245096
  eigenvalues    EBANDS =     -1844.61896156
  atomic energy  EATOM  =     15389.07168825
  ---------------------------------------------------
  free energy    TOTEN  =      -235.25153767 eV

  energy without entropy =     -235.24908672  energy(sigma->0) =     -235.25031220


--------------------------------------------------------------------------------------------------------




--------------------------------------- Iteration      1(  16)  ---------------------------------------


    POTLOK:  cpu time    0.2863: real time    0.2881
    SETDIJ:  cpu time    0.4632: real time    0.4667
    TRIAL :  cpu time   12.5057: real time   12.6208
    CORREC:  cpu time    4.8488: real time    4.8907
    CHARGE:  cpu time    1.3084: real time    1.3197
    --------------------------------------------
      LOOP:  cpu time   19.4215: real time   19.5959

 eigenvalue-minimisations  :     0
 total energy-change (2. order) :-0.1901245E-02  (-0.6699768E-03)
 number of electron     132.0000009 magnetization 
 augmentation part       19.2721616 magnetization 

 Free energy of the ion-electron system (eV)
  ---------------------------------------------------
  alpha Z        PSCENC =       709.73838265
  Ewald energy   TEWEN  =    -11499.29620779
  -Hartree energ DENC   =     -3663.96384797
  -exchange      EXHF   =         0.00000000
  -V(xc)+E(xc)   XCENC  =       650.29845322
  PAW double counting   =     17010.50537108   -16986.08891903
  entropy T*S    EENTRO =        -0.00243995
  eigenvalues    EBANDS =     -1845.51590837
  atomic energy  EATOM  =     15389.07168825
  ---------------------------------------------------
  free energy    TOTEN  =      -235.25343892 eV

  energy without entropy =     -235.25099897  energy(sigma->0) =     -235.25221894


--------------------------------------------------------------------------------------------------------




--------------------------------------- Iteration      1(  17)  ---------------------------------------


    POTLOK:  cpu time    0.1399: real time    0.1408
    SETDIJ:  cpu time    0.6340: real time    0.6388
    TRIAL :  cpu time   13.0069: real time   13.1239
    CORREC:  cpu time    5.4566: real time    5.5060
    CHARGE:  cpu time    1.4078: real time    1.4188
    --------------------------------------------
      LOOP:  cpu time   20.6527: real time   20.8369

 eigenvalue-minimisations  :     0
 total energy-change (2. order) :-0.6690277E-03  (-0.2662584E-03)
 number of electron     132.0000009 magnetization 
 augmentation part       19.2738022 magnetization 

 Free energy of the ion-electron system (eV)
  ---------------------------------------------------
  alpha Z        PSCENC =       709.73838265
  Ewald energy   TEWEN  =    -11499.29620779
  -Hartree energ DENC   =     -3664.21644508
  -exchange      EXHF   =         0.00000000
  -V(xc)+E(xc)   XCENC  =       650.31238774
  PAW double counting   =     17005.63412907   -16981.19506358
  entropy T*S    EENTRO =        -0.00243454
  eigenvalues    EBANDS =     -1845.30053925
  atomic energy  EATOM  =     15389.07168825
  ---------------------------------------------------
  free energy    TOTEN  =      -235.25410795 eV

  energy without entropy =     -235.25167341  energy(sigma->0) =     -235.25289068


--------------------------------------------------------------------------------------------------------




--------------------------------------- Iteration      1(  18)  ---------------------------------------


    POTLOK:  cpu time    0.1409: real time    0.1419
    SETDIJ:  cpu time    0.7050: real time    0.7107
    TRIAL :  cpu time   13.0794: real time   13.2094
    CORREC:  cpu time    5.1299: real time    5.1769
    CHARGE:  cpu time    1.4359: real time    1.4489
    --------------------------------------------
      LOOP:  cpu time   20.4916: real time   20.6895

 eigenvalue-minimisations  :     0
 total energy-change (2. order) :-0.2653259E-03  (-0.1185691E-03)
 number of electron     132.0000009 magnetization 
 augmentation part       19.2728451 magnetization 

 Free energy of the ion-electron system (eV)
  ---------------------------------------------------
  alpha Z        PSCENC =       709.73838265
  Ewald energy   TEWEN  =    -11499.29620779
  -Hartree energ DENC   =     -3664.46255553
  -exchange      EXHF   =         0.00000000
  -V(xc)+E(xc)   XCENC  =       650.32205493
  PAW double counting   =     17003.81132928   -16979.37168032
  entropy T*S    EENTRO =        -0.00242192
  eigenvalues    EBANDS =     -1845.06495021
  atomic energy  EATOM  =     15389.07168825
  ---------------------------------------------------
  free energy    TOTEN  =      -235.25437327 eV

  energy without entropy =     -235.25195136  energy(sigma->0) =     -235.25316231


--------------------------------------------------------------------------------------------------------




--------------------------------------- Iteration      1(  19)  ---------------------------------------


    POTLOK:  cpu time    0.1384: real time    0.1395
    SETDIJ:  cpu time    0.6123: real time    0.6180
    TRIAL :  cpu time   12.6017: real time   12.7282
    CORREC:  cpu time    4.8485: real time    4.8892
    CHARGE:  cpu time    1.5268: real time    1.5396
    --------------------------------------------
      LOOP:  cpu time   19.7324: real time   19.9198

 eigenvalue-minimisations  :     0
 total energy-change (2. order) :-0.1184897E-03  (-0.4843142E-04)
 number of electron     132.0000009 magnetization 
 augmentation part       19.2721577 magnetization 

 Free energy of the ion-electron system (eV)
  ---------------------------------------------------
  alpha Z        PSCENC =       709.73838265
  Ewald energy   TEWEN  =    -11499.29620779
  -Hartree energ DENC   =     -3664.32147287
  -exchange      EXHF   =         0.00000000
  -V(xc)+E(xc)   XCENC  =       650.31483915
  PAW double counting   =     17004.92167544   -16980.50381956
  entropy T*S    EENTRO =        -0.00241436
  eigenvalues    EBANDS =     -1845.17715512
  atomic energy  EATOM  =     15389.07168825
  ---------------------------------------------------
  free energy    TOTEN  =      -235.25449176 eV

  energy without entropy =     -235.25207741  energy(sigma->0) =     -235.25328458


--------------------------------------------------------------------------------------------------------




--------------------------------------- Iteration      1(  20)  ---------------------------------------


    POTLOK:  cpu time    0.1448: real time    0.1460
    SETDIJ:  cpu time    0.7165: real time    0.7217
    TRIAL :  cpu time   12.4923: real time   12.6113
    CORREC:  cpu time    4.8045: real time    4.8483
    CHARGE:  cpu time    1.4436: real time    1.4563
    --------------------------------------------
      LOOP:  cpu time   19.6070: real time   19.7902

 eigenvalue-minimisations  :     0
 total energy-change (2. order) :-0.4872213E-04  (-0.1911296E-04)
 number of electron     132.0000009 magnetization 
 augmentation part       19.2726642 magnetization 

 Free energy of the ion-electron system (eV)
  ---------------------------------------------------
  alpha Z        PSCENC =       709.73838265
  Ewald energy   TEWEN  =    -11499.29620779
  -Hartree energ DENC   =     -3664.25529944
  -exchange      EXHF   =         0.00000000
  -V(xc)+E(xc)   XCENC  =       650.31100508
  PAW double counting   =     17006.25023777   -16981.84325766
  entropy T*S    EENTRO =        -0.00240853
  eigenvalues    EBANDS =     -1845.22867499
  atomic energy  EATOM  =     15389.07168825
  ---------------------------------------------------
  free energy    TOTEN  =      -235.25454049 eV

  energy without entropy =     -235.25213196  energy(sigma->0) =     -235.25333622


--------------------------------------------------------------------------------------------------------




--------------------------------------- Iteration      1(  21)  ---------------------------------------


    POTLOK:  cpu time    0.1412: real time    0.1423
    SETDIJ:  cpu time    0.8320: real time    0.8377
    TRIAL :  cpu time   13.4776: real time   13.6058
    CORREC:  cpu time    5.4460: real time    5.4928
    CHARGE:  cpu time    1.4230: real time    1.4362
    --------------------------------------------
      LOOP:  cpu time   21.3270: real time   21.5225

 eigenvalue-minimisations  :     0
 total energy-change (2. order) :-0.1889903E-04  (-0.6286797E-05)
 number of electron     132.0000009 magnetization 
 augmentation part       19.2725942 magnetization 

 Free energy of the ion-electron system (eV)
  ---------------------------------------------------
  alpha Z        PSCENC =       709.73838265
  Ewald energy   TEWEN  =    -11499.29620779
  -Hartree energ DENC   =     -3664.36478196
  -exchange      EXHF   =         0.00000000
  -V(xc)+E(xc)   XCENC  =       650.31608798
  PAW double counting   =     17006.70016804   -16982.28651896
  entropy T*S    EENTRO =        -0.00240714
  eigenvalues    EBANDS =     -1845.13096906
  atomic energy  EATOM  =     15389.07168825
  ---------------------------------------------------
  free energy    TOTEN  =      -235.25455938 eV

  energy without entropy =     -235.25215225  energy(sigma->0) =     -235.25335581


--------------------------------------------------------------------------------------------------------




--------------------------------------- Iteration      1(  22)  ---------------------------------------


    POTLOK:  cpu time    0.1434: real time    0.1444
    SETDIJ:  cpu time    0.7268: real time    0.7329
    TRIAL :  cpu time   13.8631: real time   13.9919
    CORREC:  cpu time    4.8492: real time    4.8930
    CHARGE:  cpu time    1.5769: real time    1.5904
    --------------------------------------------
      LOOP:  cpu time   21.1629: real time   21.3564

 eigenvalue-minimisations  :     0
 total energy-change (2. order) :-0.6286362E-05  (-0.2819713E-05)
 number of electron     132.0000009 magnetization 
 augmentation part       19.2724274 magnetization 

 Free energy of the ion-electron system (eV)
  ---------------------------------------------------
  alpha Z        PSCENC =       709.73838265
  Ewald energy   TEWEN  =    -11499.29620779
  -Hartree energ DENC   =     -3664.36500343
  -exchange      EXHF   =         0.00000000
  -V(xc)+E(xc)   XCENC  =       650.31597918
  PAW double counting   =     17006.49079052   -16982.07627930
  entropy T*S    EENTRO =        -0.00240628
  eigenvalues    EBANDS =     -1845.13150861
  atomic energy  EATOM  =     15389.07168825
  ---------------------------------------------------
  free energy    TOTEN  =      -235.25456567 eV

  energy without entropy =     -235.25215939  energy(sigma->0) =     -235.25336253


--------------------------------------------------------------------------------------------------------




--------------------------------------- Iteration      1(  23)  ---------------------------------------


    POTLOK:  cpu time    0.1463: real time    0.1474
    SETDIJ:  cpu time    0.6337: real time    0.6384
    TRIAL :  cpu time   11.9605: real time   12.0759
    CORREC:  cpu time    4.4672: real time    4.5074
    CHARGE:  cpu time    1.5451: real time    1.5578
    --------------------------------------------
      LOOP:  cpu time   18.7539: real time   18.9289

 eigenvalue-minimisations  :     0
 total energy-change (2. order) :-0.2843763E-05  (-0.1600071E-05)
 number of electron     132.0000009 magnetization 
 augmentation part       19.2725033 magnetization 

 Free energy of the ion-electron system (eV)
  ---------------------------------------------------
  alpha Z        PSCENC =       709.73838265
  Ewald energy   TEWEN  =    -11499.29620779
  -Hartree energ DENC   =     -3664.33537398
  -exchange      EXHF   =         0.00000000
  -V(xc)+E(xc)   XCENC  =       650.31471471
  PAW double counting   =     17006.18031399   -16981.76649444
  entropy T*S    EENTRO =        -0.00240646
  eigenvalues    EBANDS =     -1845.15918563
  atomic energy  EATOM  =     15389.07168825
  ---------------------------------------------------
  free energy    TOTEN  =      -235.25456851 eV

  energy without entropy =     -235.25216206  energy(sigma->0) =     -235.25336529


--------------------------------------------------------------------------------------------------------




--------------------------------------- Iteration      1(  24)  ---------------------------------------


    POTLOK:  cpu time    0.1455: real time    0.1464
    SETDIJ:  cpu time    0.7633: real time    0.7692
    TRIAL :  cpu time   11.6896: real time   11.8042
    CORREC:  cpu time    4.6703: real time    4.7145
    CHARGE:  cpu time    1.3587: real time    1.3707
    --------------------------------------------
      LOOP:  cpu time   18.6285: real time   18.8068

 eigenvalue-minimisations  :     0
 total energy-change (2. order) :-0.1518616E-05  (-0.6248014E-06)
 number of electron     132.0000009 magnetization 
 augmentation part       19.2725295 magnetization 

 Free energy of the ion-electron system (eV)
  ---------------------------------------------------
  alpha Z        PSCENC =       709.73838265
  Ewald energy   TEWEN  =    -11499.29620779
  -Hartree energ DENC   =     -3664.34554417
  -exchange      EXHF   =         0.00000000
  -V(xc)+E(xc)   XCENC  =       650.31518964
[...]
     29     -27.0240      2.00000
     30     -27.0096      2.00000
     31     -26.0522      2.00000
     32     -26.0508      2.00000
     33      -0.4193      2.00000
     34       0.0329      2.00000
     35       0.2975      2.00000
     36       1.0458      2.00000
     37       1.1346      2.00000
     38       2.4229      2.00000
     39       2.9745      2.00000
     40       3.6911      2.00000
     41       3.7499      2.00000
     42       3.8956      2.00000
     43       4.1280      2.00000
     44       4.3399      2.00000
     45       4.3976      2.00000
     46       4.5577      2.00000
     47       4.7101      2.00000
     48       4.7387      2.00000
     49       4.9205      2.00000
     50       4.9244      2.00000
     51       5.2192      2.00000
     52       5.2252      2.00000
     53       5.7956      2.00000
     54       5.8238      2.00000
     55       6.6345      2.00000
     56       6.9207      2.00000
     57       6.9708      2.00000
     58       7.0951      2.00000
     59       7.2353      2.00000
     60       7.4314      2.00000
     61       7.7038      2.00000
     62       7.7724      2.00000
     63       8.2417      2.00000
     64       8.2753      2.00000
     65       8.3548      2.00000
     66       8.5889      2.00000
     67       8.8832      0.00000
     68       9.0083      0.00000
     69       9.0774      0.00000
     70       9.3909      0.00000
     71       9.5903      0.00000
     72       9.7858      0.00000
     73       9.9026      0.00000
     74      10.2318      0.00000
     75      10.4898      0.00000
     76      10.5719      0.00000
     77      10.7842      0.00000
     78      10.7904      0.00000
     79      11.3646      0.00000
     80      11.5255      0.00000
     81      11.8342      0.00000
     82      11.9804      0.00000
     83      11.9973      0.00000
     84      12.3397      0.00000

 k-point    36 :      -0.4286   -0.4286    0.2857
  band No.  band energies     occupation 
      1     -54.2199      2.00000
      2     -54.2195      2.00000
      3     -54.0483      2.00000
      4     -54.0371      2.00000
      5     -53.8407      2.00000
      6     -53.8358      2.00000
      7     -53.6432      2.00000
      8     -53.6425      2.00000
      9     -29.0179      2.00000
     10     -29.0172      2.00000
     11     -28.3487      2.00000
     12     -28.3196      2.00000
     13     -27.6629      2.00000
     14     -27.6398      2.00000
     15     -27.6286      2.00000
     16     -27.6165      2.00000
     17     -27.5988      2.00000
     18     -27.4833      2.00000
     19     -27.4456      2.00000
     20     -27.4441      2.00000
     21     -27.3331      2.00000
     22     -27.3321      2.00000
     23     -27.3055      2.00000
     24     -27.2485      2.00000
     25     -27.2019      2.00000
     26     -27.2010      2.00000
     27     -27.0992      2.00000
     28     -27.0494      2.00000
     29     -27.0291      2.00000
     30     -27.0114      2.00000
     31     -26.0515      2.00000
     32     -26.0507      2.00000
     33      -0.5442      2.00000
     34       0.1878      2.00000
     35       0.4485      2.00000
     36       0.7817      2.00000
     37       1.2414      2.00000
     38       2.4788      2.00000
     39       2.9368      2.00000
     40       3.5166      2.00000
     41       3.8241      2.00000
     42       3.8457      2.00000
     43       4.0772      2.00000
     44       4.2235      2.00000
     45       4.5124      2.00000
     46       4.6141      2.00000
     47       4.6255      2.00000
     48       4.6980      2.00000
     49       4.8625      2.00000
     50       4.9672      2.00000
     51       5.2996      2.00000
     52       5.3699      2.00000
     53       5.5932      2.00000
     54       5.7252      2.00000
     55       6.7368      2.00000
     56       6.8658      2.00000
     57       7.0844      2.00000
     58       7.2153      2.00000
     59       7.2253      2.00000
     60       7.5521      2.00000
     61       7.6472      2.00000
     62       7.9087      2.00000
     63       8.0734      2.00000
     64       8.3373      2.00000
     65       8.4883      2.00000
     66       8.6167      1.99999
     67       8.9428      0.00000
     68       8.9530      0.00000
     69       9.1752      0.00000
     70       9.5592      0.00000
     71       9.6004      0.00000
     72       9.8006      0.00000
     73       9.9287      0.00000
     74      10.2400      0.00000
     75      10.4060      0.00000
     76      10.4787      0.00000
     77      10.6004      0.00000
     78      10.8124      0.00000
     79      11.5791      0.00000
     80      11.6821      0.00000
     81      11.8310      0.00000
     82      11.9052      0.00000
     83      12.0733      0.00000
     84      12.2157      0.00000

 k-point    37 :      -0.2857   -0.4286    0.2857
  band No.  band energies     occupation 
      1     -54.2009      2.00000
      2     -54.2002      2.00000
      3     -54.0923      2.00000
      4     -54.0803      2.00000
      5     -53.7952      2.00000
      6     -53.7903      2.00000
      7     -53.6639      2.00000
      8     -53.6637      2.00000
      9     -28.9321      2.00000
     10     -28.9311      2.00000
     11     -28.4692      2.00000
     12     -28.4608      2.00000
     13     -27.7443      2.00000
     14     -27.6885      2.00000
     15     -27.6635      2.00000
     16     -27.6624      2.00000
     17     -27.6058      2.00000
     18     -27.4670      2.00000
     19     -27.4643      2.00000
     20     -27.4580      2.00000
     21     -27.3133      2.00000
     22     -27.3095      2.00000
     23     -27.2775      2.00000
     24     -27.2328      2.00000
     25     -27.1773      2.00000
     26     -27.1744      2.00000
     27     -27.1160      2.00000
     28     -27.0613      2.00000
     29     -26.8062      2.00000
     30     -26.8016      2.00000
     31     -26.1602      2.00000
     32     -26.1599      2.00000
     33      -0.8232      2.00000
     34       0.2824      2.00000
     35       0.6004      2.00000
     36       1.0669      2.00000
     37       1.1433      2.00000
     38       2.3396      2.00000
     39       3.1194      2.00000
     40       3.6747      2.00000
     41       3.7415      2.00000
     42       3.7706      2.00000
     43       4.0157      2.00000
     44       4.2919      2.00000
     45       4.4467      2.00000
     46       4.5603      2.00000
     47       4.6128      2.00000
     48       4.7478      2.00000
     49       4.8083      2.00000
     50       5.0866      2.00000
     51       5.3946      2.00000
     52       5.4704      2.00000
     53       5.5915      2.00000
     54       5.7745      2.00000
     55       6.4520      2.00000
     56       6.6784      2.00000
     57       6.7028      2.00000
     58       6.9586      2.00000
     59       7.1781      2.00000
     60       7.4333      2.00000
     61       7.7154      2.00000
     62       7.8381      2.00000
     63       8.2530      2.00000
     64       8.3155      2.00000
     65       8.4361      2.00000
     66       8.9963      0.00000
     67       9.0018      0.00000
     68       9.0572      0.00000
     69       9.2993      0.00000
     70       9.4047      0.00000
     71      10.0112      0.00000
     72      10.0401      0.00000
     73      10.0716      0.00000
     74      10.3737      0.00000
     75      10.5017      0.00000
     76      10.5969      0.00000
     77      10.6701      0.00000
     78      10.6965      0.00000
     79      11.3642      0.00000
     80      11.5627      0.00000
     81      11.6015      0.00000
     82      11.6568      0.00000
     83      12.0991      0.00000
     84      12.1850      0.00000

 k-point    38 :      -0.2857   -0.2857    0.2857
  band No.  band energies     occupation 
      1     -54.1701      2.00000
      2     -54.1701      2.00000
      3     -54.1386      2.00000
      4     -54.1256      2.00000
      5     -53.7465      2.00000
      6     -53.7419      2.00000
      7     -53.6971      2.00000
      8     -53.6970      2.00000
      9     -28.7961      2.00000
     10     -28.7961      2.00000
     11     -28.6403      2.00000
     12     -28.6328      2.00000
     13     -27.7856      2.00000
     14     -27.7127      2.00000
     15     -27.6886      2.00000
     16     -27.6884      2.00000
     17     -27.5868      2.00000
     18     -27.4843      2.00000
     19     -27.4841      2.00000
     20     -27.4433      2.00000
     21     -27.2960      2.00000
     22     -27.2814      2.00000
     23     -27.2813      2.00000
     24     -27.2457      2.00000
     25     -27.1454      2.00000
     26     -27.1454      2.00000
     27     -27.1416      2.00000
     28     -27.0808      2.00000
     29     -26.5595      2.00000
     30     -26.5589      2.00000
     31     -26.3312      2.00000
     32     -26.3312      2.00000
     33      -1.1165      2.00000
     34       0.3585      2.00000
     35       1.0092      2.00000
     36       1.1433      2.00000
     37       1.1434      2.00000
     38       2.2280      2.00000
     39       3.2581      2.00000
     40       3.7067      2.00000
     41       3.7970      2.00000
     42       3.7970      2.00000
     43       3.8406      2.00000
     44       4.2136      2.00000
     45       4.2137      2.00000
     46       4.2914      2.00000
     47       4.7583      2.00000
     48       4.8972      2.00000
     49       4.8972      2.00000
     50       5.2463      2.00000
     51       5.6580      2.00000
     52       5.6580      2.00000
     53       5.6971      2.00000
     54       5.7089      2.00000
     55       5.8973      2.00000
     56       6.4133      2.00000
     57       6.4134      2.00000
     58       6.9238      2.00000
     59       7.3253      2.00000
     60       7.3253      2.00000
     61       7.9715      2.00000
     62       8.0627      2.00000
     63       8.0627      2.00000
     64       8.2286      2.00000
     65       8.4326      2.00000
     66       8.9811      0.00000
     67       8.9811      0.00000
     68       9.1701      0.00000
     69       9.3163      0.00000
     70       9.5764      0.00000
     71      10.0407      0.00000
     72      10.0407      0.00000
     73      10.4732      0.00000
     74      10.4934      0.00000
     75      10.7250      0.00000
     76      10.7257      0.00000
     77      10.8921      0.00000
     78      10.8924      0.00000
     79      11.0358      0.00000
     80      11.0511      0.00000
     81      11.3162      0.00000
     82      11.5313      0.00000
     83      11.7255      0.00000
     84      12.0763      0.00000

 k-point    39 :      -0.4286    0.4286    0.4286
  band No.  band energies     occupation 
      1     -54.2264      2.00000
      2     -54.2257      2.00000
      3     -54.0273      2.00000
      4     -54.0154      2.00000
      5     -53.8631      2.00000
      6     -53.8580      2.00000
      7     -53.6355      2.00000
      8     -53.6354      2.00000
      9     -29.0473      2.00000
     10     -29.0461      2.00000
     11     -28.3094      2.00000
     12     -28.2678      2.00000
     13     -27.6355      2.00000
     14     -27.6328      2.00000
     15     -27.6252      2.00000
     16     -27.5163      2.00000
     17     -27.5034      2.00000
     18     -27.4840      2.00000
     19     -27.4450      2.00000
     20     -27.4385      2.00000
     21     -27.4103      2.00000
     22     -27.3386      2.00000
     23     -27.3337      2.00000
     24     -27.3065      2.00000
     25     -27.2148      2.00000
     26     -27.2116      2.00000
     27     -27.1144      2.00000
     28     -27.0950      2.00000
     29     -27.0897      2.00000
     30     -27.0430      2.00000
     31     -26.0137      2.00000
     32     -26.0133      2.00000
     33      -0.4923      2.00000
     34       0.0445      2.00000
     35       0.5120      2.00000
     36       0.9593      2.00000
     37       1.0785      2.00000
     38       2.6530      2.00000
     39       2.7583      2.00000
     40       3.5957      2.00000
     41       3.6456      2.00000
     42       3.8109      2.00000
     43       3.9406      2.00000
     44       4.2399      2.00000
     45       4.5004      2.00000
     46       4.6365      2.00000
     47       4.6585      2.00000
     48       4.8105      2.00000
     49       4.9128      2.00000
     50       4.9340      2.00000
     51       5.2444      2.00000
     52       5.2990      2.00000
     53       5.4807      2.00000
     54       5.5827      2.00000
     55       6.8340      2.00000
     56       6.9345      2.00000
     57       7.3192      2.00000
     58       7.3229      2.00000
     59       7.6707      2.00000
     60       7.6945      2.00000
     61       7.8254      2.00000
     62       7.9973      2.00000
     63       8.2769      2.00000
     64       8.3484      2.00000
     65       8.4157      2.00000
     66       8.4637      2.00000
     67       8.5882      2.00000
     68       9.0678      0.00000
     69       9.1121      0.00000
     70       9.3925      0.00000
     71       9.5847      0.00000
     72       9.5871      0.00000
     73       9.7990      0.00000
     74      10.1970      0.00000
     75      10.2958      0.00000
     76      10.3784      0.00000
     77      10.5717      0.00000
     78      10.7078      0.00000
     79      11.7935      0.00000
     80      11.8084      0.00000
     81      11.8427      0.00000
     82      12.1210      0.00000
     83      12.3018      0.00000
     84      12.5168      0.00000

 k-point    40 :      -0.4286   -0.4286    0.4286
  band No.  band energies     occupation 
      1     -54.2195      2.00000
      2     -54.2195      2.00000
      3     -54.0490      2.00000
      4     -54.0365      2.00000
      5     -53.8414      2.00000
      6     -53.8360      2.00000
      7     -53.6425      2.00000
      8     -53.6424      2.00000
      9     -29.0173      2.00000
     10     -29.0172      2.00000
     11     -28.3529      2.00000
     12     -28.3212      2.00000
     13     -27.6406      2.00000
     14     -27.6403      2.00000
     15     -27.6379      2.00000
     16     -27.6239      2.00000
     17     -27.6020      2.00000
     18     -27.4759      2.00000
     19     -27.4470      2.00000
     20     -27.4468      2.00000
     21     -27.3294      2.00000
     22     -27.3293      2.00000
     23     -27.3087      2.00000
     24     -27.2446      2.00000
     25     -27.2024      2.00000
     26     -27.2024      2.00000
     27     -27.1015      2.00000
     28     -27.0460      2.00000
     29     -27.0330      2.00000
     30     -27.0144      2.00000
     31     -26.0507      2.00000
     32     -26.0507      2.00000
     33      -0.6686      2.00000
     34       0.0776      2.00000
     35       0.9180      2.00000
     36       0.9339      2.00000
     37       0.9339      2.00000
     38       2.5258      2.00000
     39       2.8918      2.00000
     40       3.6610      2.00000
     41       3.6610      2.00000
     42       3.7181      2.00000
     43       3.7714      2.00000
     44       4.3383      2.00000
     45       4.5222      2.00000
     46       4.6718      2.00000
     47       4.6719      2.00000
     48       4.7556      2.00000
     49       4.7556      2.00000
     50       5.1246      2.00000
     51       5.3008      2.00000
     52       5.3008      2.00000
     53       5.3867      2.00000
     54       5.5468      2.00000
     55       6.8251      2.00000
     56       6.8251      2.00000
     57       7.1408      2.00000
     58       7.5031      2.00000
     59       7.5032      2.00000
     60       7.5400      2.00000
     61       7.6916      2.00000
     62       8.2443      2.00000
     63       8.2759      2.00000
     64       8.2759      2.00000
     65       8.3734      2.00000
     66       8.5663      2.00000
     67       9.0655      0.00000
     68       9.0656      0.00000
     69       9.2365      0.00000
     70       9.3528      0.00000
     71       9.6249      0.00000
     72       9.8686      0.00000
     73       9.8686      0.00000
     74      10.1757      0.00000
     75      10.2549      0.00000
     76      10.2550      0.00000
     77      10.6445      0.00000
     78      10.6445      0.00000
     79      11.5732      0.00000
     80      11.6783      0.00000
     81      11.7525      0.00000
     82      11.9421      0.00000
     83      12.2413      0.00000
     84      12.4218      0.00000


--------------------------------------------------------------------------------------------------------


 soft charge-density along one line, spin component           1
         0         1         2         3         4         5         6         7         8         9
 total charge-density along one line
 
 pseudopotential strength for first ion, spin component:           1
  6.009   9.105   0.001   0.000  -0.001  -0.002   0.000   0.002
  9.105  13.787   0.001   0.000  -0.001  -0.003   0.000   0.004
  0.001   0.001  -1.962   0.000   0.014  -3.273   0.001   0.027
  0.000   0.000   0.000  -1.953   0.000   0.001  -3.255   0.001
 -0.001  -0.001   0.014   0.000  -1.974   0.027   0.001  -3.295
 -0.002  -0.003  -3.273   0.001   0.027  -5.246   0.002   0.050
  0.000   0.000   0.001  -3.255   0.001   0.002  -5.212   0.001
  0.002   0.004   0.027   0.001  -3.295   0.050   0.001  -5.287
 total augmentation occupancy for first ion, spin component:           1
  3.770  -0.918   0.416  -0.000  -0.620  -0.155   0.000   0.231
 -0.918   0.264  -0.148   0.000   0.221   0.069   0.000  -0.102
  0.416  -0.148   2.844  -0.058  -0.507  -0.756   0.019   0.169
 -0.000  -0.000  -0.058   2.490  -0.039   0.019  -0.638   0.013
 -0.620   0.221  -0.507  -0.039   3.259   0.169   0.013  -0.894
 -0.155   0.069  -0.756   0.019   0.169   0.217  -0.006  -0.072
  0.000  -0.000   0.019  -0.638   0.013  -0.006   0.168  -0.004
  0.231  -0.102   0.169   0.013  -0.894  -0.072  -0.004   0.276


------------------------ aborting loop because EDIFF is reached ----------------------------------------




--------------------------------------------------------------------------------------------------------



  FREE ENERGIE OF THE ION-ELECTRON SYSTEM (eV)
  ---------------------------------------------------
  free  energy   TOTEN  =      -235.25457091 eV

  energy  without entropy=     -235.25216376  energy(sigma->0) =     -235.25336733
 


--------------------------------------------------------------------------------------------------------


    POTLOK:  cpu time    0.9417: real time    0.9496


--------------------------------------------------------------------------------------------------------


 writing wavefunctions
     LOOP+:  cpu time  747.8835: real time  755.5124
    4ORBIT:  cpu time    0.0000: real time    0.0000

 total amount of memory used by VASP MPI-rank0   225198. kBytes
=======================================================================

   base      :      30000. kBytes
   nonl-proj :      63644. kBytes
   fftplans  :      17774. kBytes
   grid      :      13358. kBytes
   one-center:        108. kBytes
   wavefun   :     100314. kBytes
 
  
  
 General timing and accounting informations for this job:
 ========================================================
  
                  Total CPU time used (sec):      752.114
                            User time (sec):      746.625
                          System time (sec):        5.489
                         Elapsed time (sec):      760.647
  
                   Maximum memory used (kb):      437576.
                   Average memory used (kb):          N/A
  
                          Minor page faults:      1087193
                          Major page faults:           13
                 Voluntary context switches:         7266
