<?xml version="1.0" encoding="ISO-8859-1"?>
<modeling>
 <generator>
  <i name="program" type="string">vasp </i>
  <i name="version" type="string">6.2.0  </i>
  <i name="subversion" type="string">18Jan21 (build Jan 05 2022 15:41:44) complex                          parallel </i>
  <i name="platform" type="string">LinuxIFC </i>
  <i name="date" type="string">2025 05 07 </i>
  <i name="time" type="string">21:28:49 </i>
 </generator>
 <incar>
  <i type="string" name="SYSTEM">routine with relax: pwdword</i>
  <i type="string" name="PREC">Acc</i>
  <i type="int" name="IALGO">    38</i>
  <i type="string" name="ALGO">A</i>
  <i type="logical" name="ADDGRID"> T  </i>
  <i type="int" name="ICHARG">     2</i>
  <i type="int" name="NELM">   100</i>
  <i type="int" name="NELMIN">     6</i>
  <i name="EDIFF">      0.00000000</i>
  <i type="int" name="NSW">     0</i>
  <i type="int" name="ISIF">    -1</i>
  <i name="ENCUT">    600.00000000</i>
  <i type="logical" name="LREAL"> F  </i>
  <i type="int" name="ISMEAR">     0</i>
  <i name="SIGMA">      0.02000000</i>
  <i type="logical" name="LASPH"> T  </i>
  <i type="string" name="METAGGA">R2SCAN</i>
  <i type="logical" name="LMIXTAU"> F  </i>
 </incar>
 <primitive_cell>
  <structure name="primitive_cell" >
   <crystal>
    <varray name="basis" >
     <v>       2.60514200      -4.51223900       0.00000000 </v>
     <v>       2.60514200       4.51223900       0.00000000 </v>
     <v>       0.00000000       0.00000000       4.84001900 </v>
    </varray>
    <i name="volume">    113.78907255 </i>
    <varray name="rec_basis" >
     <v>       0.19192812      -0.11080973       0.00000000 </v>
     <v>       0.19192812       0.11080973       0.00000000 </v>
     <v>       0.00000000       0.00000000       0.20661076 </v>
    </varray>
   </crystal>
   <varray name="positions" >
    <v>       0.66666700       0.33333300       0.25000000 </v>
    <v>       0.33333300       0.66666700       0.75000000 </v>
    <v>       0.82542100       0.17457900       0.75000000 </v>
    <v>       0.34915800       0.17457900       0.75000000 </v>
    <v>       0.82542100       0.65084200       0.75000000 </v>
    <v>       0.17457900       0.82542100       0.25000000 </v>
    <v>       0.65084200       0.82542100       0.25000000 </v>
    <v>       0.17457900       0.34915800       0.25000000 </v>
   </varray>
  </structure>
  <varray name="primitive_index" >
   <v type="int" >        1 </v>
   <v type="int" >        2 </v>
   <v type="int" >        3 </v>
   <v type="int" >        4 </v>
   <v type="int" >        5 </v>
   <v type="int" >        6 </v>
   <v type="int" >        7 </v>
   <v type="int" >        8 </v>
  </varray>
 </primitive_cell>
 <kpoints>
  <generation param="Gamma">
   <v type="int" name="divisions">       8        8        7 </v>
   <v name="usershift">      0.00000000       0.00000000       0.00000000 </v>
   <v name="genvec1">      0.12500000       0.00000000       0.00000000 </v>
   <v name="genvec2">      0.00000000       0.12500000       0.00000000 </v>
   <v name="genvec3">      0.00000000       0.00000000       0.14285714 </v>
   <v name="shift">      0.00000000       0.00000000       0.00000000 </v>
  </generation>
  <varray name="kpointlist" >
   <v>       0.00000000       0.00000000       0.00000000 </v>
   <v>       0.12500000      -0.00000000       0.00000000 </v>
   <v>       0.25000000      -0.00000000       0.00000000 </v>
   <v>       0.37500000       0.00000000       0.00000000 </v>
   <v>       0.50000000      -0.00000000       0.00000000 </v>
   <v>       0.12500000       0.12500000       0.00000000 </v>
   <v>       0.25000000       0.12500000       0.00000000 </v>
   <v>       0.37500000       0.12500000       0.00000000 </v>
   <v>       0.25000000       0.25000000       0.00000000 </v>
   <v>       0.37500000       0.25000000       0.00000000 </v>
   <v>       0.00000000       0.00000000       0.14285714 </v>
   <v>       0.12500000      -0.00000000       0.14285714 </v>
   <v>       0.25000000      -0.00000000       0.14285714 </v>
   <v>       0.37500000       0.00000000       0.14285714 </v>
   <v>       0.50000000      -0.00000000       0.14285714 </v>
   <v>       0.12500000       0.12500000       0.14285714 </v>
   <v>       0.25000000       0.12500000       0.14285714 </v>
   <v>       0.37500000       0.12500000       0.14285714 </v>
   <v>       0.25000000       0.25000000       0.14285714 </v>
   <v>       0.37500000       0.25000000       0.14285714 </v>
   <v>       0.00000000       0.00000000       0.28571429 </v>
   <v>       0.12500000      -0.00000000       0.28571429 </v>
   <v>       0.25000000      -0.00000000       0.28571429 </v>
   <v>       0.37500000       0.00000000       0.28571429 </v>
   <v>       0.50000000      -0.00000000       0.28571429 </v>
   <v>       0.12500000       0.12500000       0.28571429 </v>
   <v>       0.25000000       0.12500000       0.28571429 </v>
   <v>       0.37500000       0.12500000       0.28571429 </v>
   <v>       0.25000000       0.25000000       0.28571429 </v>
   <v>       0.37500000       0.25000000       0.28571429 </v>
   <v>       0.00000000       0.00000000       0.42857143 </v>
   <v>       0.12500000      -0.00000000       0.42857143 </v>
   <v>       0.25000000      -0.00000000       0.42857143 </v>
   <v>       0.37500000       0.00000000       0.42857143 </v>
   <v>       0.50000000      -0.00000000       0.42857143 </v>
   <v>       0.12500000       0.12500000       0.42857143 </v>
   <v>       0.25000000       0.12500000       0.42857143 </v>
   <v>       0.37500000       0.12500000       0.42857143 </v>
   <v>       0.25000000       0.25000000       0.42857143 </v>
   <v>       0.37500000       0.25000000       0.42857143 </v>
  </varray>
  <varray name="weights" >
   <v>       0.00223214 </v>
   <v>       0.01339286 </v>
   <v>       0.01339286 </v>
   <v>       0.01339286 </v>
   <v>       0.00669643 </v>
   <v>       0.01339286 </v>
   <v>       0.02678571 </v>
   <v>       0.02678571 </v>
   <v>       0.01339286 </v>
   <v>       0.01339286 </v>
   <v>       0.00446429 </v>
   <v>       0.02678571 </v>
   <v>       0.02678571 </v>
   <v>       0.02678571 </v>
   <v>       0.01339286 </v>
   <v>       0.02678571 </v>
   <v>       0.05357143 </v>
   <v>       0.05357143 </v>
   <v>       0.02678571 </v>
   <v>       0.02678571 </v>
   <v>       0.00446429 </v>
   <v>       0.02678571 </v>
   <v>       0.02678571 </v>
   <v>       0.02678571 </v>
   <v>       0.01339286 </v>
   <v>       0.02678571 </v>
   <v>       0.05357143 </v>
   <v>       0.05357143 </v>
   <v>       0.02678571 </v>
   <v>       0.02678571 </v>
   <v>       0.00446429 </v>
   <v>       0.02678571 </v>
   <v>       0.02678571 </v>
   <v>       0.02678571 </v>
   <v>       0.01339286 </v>
   <v>       0.02678571 </v>
   <v>       0.05357143 </v>
   <v>       0.05357143 </v>
   <v>       0.02678571 </v>
   <v>       0.02678571 </v>
  </varray>
 </kpoints>
 <parameters>
  <separator name="general" >
   <i type="string" name="SYSTEM">routine with relax: pwdword</i>
   <i type="logical" name="LCOMPAT"> F  </i>
  </separator>
  <separator name="electronic" >
   <i type="string" name="PREC">acc</i>
   <i name="ENMAX">    600.00000000</i>
   <i name="ENAUG">    446.01400000</i>
   <i name="EDIFF">      0.00000000</i>
   <i type="int" name="IALGO">    58</i>
   <i type="int" name="IWAVPR">    10</i>
   <i type="int" name="NBANDS">    36</i>
   <i type="int" name="NBANDSLOW">    -1</i>
   <i type="int" name="NBANDSHIGH">    -1</i>
   <i name="NELECT">     52.00000000</i>
   <i type="int" name="TURBO">     0</i>
   <i type="int" name="IRESTART">     0</i>
   <i type="int" name="NREBOOT">     0</i>
   <i type="int" name="NMIN">     0</i>
   <i name="EREF">      0.00000000</i>
   <separator name="electronic smearing" >
    <i type="int" name="ISMEAR">     0</i>
    <i name="SIGMA">      0.02000000</i>
    <i name="KSPACING">      0.50000000</i>
    <i type="logical" name="KGAMMA"> T  </i>
    <i type="logical" name="KBLOWUP"> T  </i>
   </separator>
   <separator name="electronic projectors" >
    <i type="logical" name="LREAL"> F  </i>
    <v name="ROPT">      0.00000000      0.00000000</v>
    <i type="int" name="LMAXPAW">  -100</i>
    <i type="int" name="LMAXMIX">     2</i>
    <i type="logical" name="NLSPLINE"> F  </i>
   </separator>
   <separator name="electronic startup" >
    <i type="int" name="ISTART">     0</i>
    <i type="int" name="ICHARG">     2</i>
    <i type="int" name="INIWAV">     1</i>
   </separator>
   <separator name="electronic spin" >
    <i type="int" name="ISPIN">     1</i>
    <i type="logical" name="LNONCOLLINEAR"> F  </i>
    <v name="MAGMOM">      1.00000000      1.00000000      1.00000000      1.00000000      1.00000000      1.00000000      1.00000000      1.00000000</v>
    <i name="NUPDOWN">     -1.00000000</i>
    <i type="logical" name="LSORBIT"> F  </i>
    <v name="SAXIS">      0.00000000      0.00000000      1.00000000</v>
    <i type="logical" name="LSPIRAL"> F  </i>
    <v name="QSPIRAL">      0.00000000      0.00000000      0.00000000</v>
    <i type="logical" name="LZEROZ"> F  </i>
   </separator>
   <separator name="electronic exchange-correlation" >
    <i type="logical" name="LASPH"> T  </i>
    <i type="logical" name="LMETAGGA"> F  </i>
   </separator>
   <separator name="electronic convergence" >
    <i type="int" name="NELM">   100</i>
    <i type="int" name="NELMDL">    -5</i>
    <i type="int" name="NELMIN">     6</i>
    <i name="ENINI">    600.00000000</i>
    <separator name="electronic convergence detail" >
     <i type="logical" name="LDIAG"> T  </i>
     <i type="logical" name="LSUBROT"> F  </i>
     <i name="WEIMIN">      0.00000000</i>
     <i name="EBREAK">      0.00000000</i>
     <i name="DEPER">      0.30000000</i>
     <i type="int" name="NRMM">     4</i>
     <i name="TIME">      0.40000000</i>
    </separator>
   </separator>
   <separator name="electronic mixer" >
    <i name="AMIX">      0.40000000</i>
    <i name="BMIX">      1.00000000</i>
    <i name="AMIN">      0.10000000</i>
    <i name="AMIX_MAG">      1.60000000</i>
    <i name="BMIX_MAG">      1.00000000</i>
    <separator name="electronic mixer details" >
     <i type="int" name="IMIX">     4</i>
     <i type="logical" name="MIXFIRST"> F  </i>
     <i type="int" name="MAXMIX">   -45</i>
     <i name="WC">    100.00000000</i>
     <i type="int" name="INIMIX">     1</i>
     <i type="int" name="MIXPRE">     1</i>
     <i type="int" name="MREMOVE">     5</i>
    </separator>
   </separator>
   <separator name="electronic dipolcorrection" >
    <i type="logical" name="LDIPOL"> F  </i>
    <i type="logical" name="LMONO"> F  </i>
    <i type="int" name="IDIPOL">     0</i>
    <i name="EPSILON">      1.00000000</i>
    <v name="DIPOL">   -100.00000000   -100.00000000   -100.00000000</v>
    <i name="EFIELD">      0.00000000</i>
   </separator>
  </separator>
  <separator name="grids" >
   <i type="int" name="NGX">    42</i>
   <i type="int" name="NGY">    42</i>
   <i type="int" name="NGZ">    40</i>
   <i type="int" name="NGXF">    84</i>
   <i type="int" name="NGYF">    84</i>
   <i type="int" name="NGZF">    80</i>
   <i type="logical" name="ADDGRID"> T  </i>
  </separator>
  <separator name="ionic" >
   <i type="int" name="NSW">     0</i>
   <i type="int" name="IBRION">    -1</i>
   <i type="int" name="MDALGO">     0</i>
   <i type="int" name="ISIF">    -1</i>
   <i name="PSTRESS">      0.00000000</i>
   <i name="EDIFFG">      0.00000001</i>
   <i type="int" name="NFREE">     0</i>
   <i name="POTIM">      0.50000000</i>
   <i name="SMASS">     -3.00000000</i>
   <i name="SCALEE">      1.00000000</i>
  </separator>
  <separator name="ionic md" >
   <i name="TEBEG">      0.00010000</i>
   <i name="TEEND">      0.00010000</i>
   <i type="int" name="NBLOCK">     1</i>
   <i type="int" name="KBLOCK">     1</i>
   <i type="int" name="NPACO">   256</i>
   <i name="APACO">     16.00000000</i>
  </separator>
  <separator name="symmetry" >
   <i type="int" name="ISYM">     2</i>
   <i name="SYMPREC">      0.00001000</i>
  </separator>
  <separator name="dos" >
   <i type="int" name="LORBIT">     0</i>
   <v name="RWIGS">     -1.00000000     -1.00000000</v>
   <i type="int" name="NEDOS">   301</i>
   <i name="EMIN">     10.00000000</i>
   <i name="EMAX">    -10.00000000</i>
   <i name="EFERMI">      0.00000000</i>
  </separator>
  <separator name="writing" >
   <i type="int" name="NWRITE">     2</i>
   <i type="logical" name="LWAVE"> T  </i>
   <i type="logical" name="LDOWNSAMPLE"> F  </i>
   <i type="logical" name="LCHARG"> T  </i>
   <i type="logical" name="LPARD"> F  </i>
   <i type="logical" name="LVTOT"> F  </i>
   <i type="logical" name="LVHAR"> F  </i>
   <i type="logical" name="LELF"> F  </i>
   <i type="logical" name="LOPTICS"> F  </i>
   <v name="STM">      0.00000000      0.00000000      0.00000000      0.00000000      0.00000000      0.00000000      0.00000000</v>
  </separator>
  <separator name="performance" >
   <i type="int" name="NPAR">     6</i>
   <i type="int" name="NSIM">     4</i>
   <i type="int" name="NBLK">    -1</i>
   <i type="logical" name="LPLANE"> T  </i>
   <i type="logical" name="LSCALAPACK"> T  </i>
   <i type="logical" name="LSCAAWARE"> F  </i>
   <i type="logical" name="LSCALU"> F  </i>
   <i type="logical" name="LASYNC"> F  </i>
   <i type="logical" name="LORBITALREAL"> F  </i>
  </separator>
  <separator name="miscellaneous" >
   <i type="int" name="IDIOT">     3</i>
   <i type="int" name="PHON_NSTRUCT">    -1</i>
   <i type="logical" name="LMUSIC"> F  </i>
   <v name="POMASS">     95.94000000     28.08500000</v>
   <v name="DARWINR">      0.00000000      0.00000000</v>
   <v name="DARWINV">      1.00000000      1.00000000</v>
   <i type="logical" name="LCORR"> T  </i>
  </separator>
  <i type="logical" name="GGA_COMPAT"> T  </i>
  <i type="logical" name="LBERRY"> F  </i>
  <i type="int" name="ICORELEVEL">     0</i>
  <i type="logical" name="LDAU"> F  </i>
  <i type="int" name="I_CONSTRAINED_M">     0</i>
  <separator name="electronic exchange-correlation" >
   <i type="string" name="GGA">--</i>
   <i type="int" name="VOSKOWN">     0</i>
   <i type="logical" name="LHFCALC"> F  </i>
   <i type="string" name="PRECFOCK"></i>
   <i type="logical" name="LSYMGRAD"> F  </i>
   <i type="logical" name="LHFONE"> F  </i>
   <i type="logical" name="LRHFCALC"> F  </i>
   <i type="logical" name="LTHOMAS"> F  </i>
   <i type="logical" name="LMODELHF"> F  </i>
   <i type="logical" name="LFOCKACE"> F  </i>
   <i name="ENCUT4O">     -1.00000000</i>
   <i type="int" name="EXXOEP">     0</i>
   <i type="int" name="FOURORBIT">     0</i>
   <i name="AEXX">      0.00000000</i>
   <i name="HFALPHA">      0.00000000</i>
   <i name="MCALPHA">      0.00000000</i>
   <i name="ALDAX">      1.00000000</i>
   <i name="AGGAX">      1.00000000</i>
   <i name="ALDAC">      1.00000000</i>
   <i name="AGGAC">      1.00000000</i>
   <i type="int" name="NKREDX">     1</i>
   <i type="int" name="NKREDY">     1</i>
   <i type="int" name="NKREDZ">     1</i>
   <i type="logical" name="SHIFTRED"> F  </i>
   <i type="logical" name="ODDONLY"> F  </i>
   <i type="logical" name="EVENONLY"> F  </i>
   <i type="int" name="LMAXFOCK">     0</i>
   <i type="int" name="NMAXFOCKAE">     0</i>
   <i type="logical" name="LFOCKAEDFT"> F  </i>
   <i name="HFSCREEN">      0.00000000</i>
   <i name="HFSCREENC">      0.00000000</i>
   <i type="int" name="NBANDSGWLOW">     0</i>
  </separator>
  <separator name="vdW DFT" >
   <i type="logical" name="LUSE_VDW"> F  </i>
   <i name="Zab_VDW">     -0.84910000</i>
   <i name="PARAM1">      0.12340000</i>
   <i name="PARAM2">      1.00000000</i>
   <i name="PARAM3">      0.00000000</i>
  </separator>
  <separator name="model GW" >
   <i type="int" name="MODEL_GW">     0</i>
   <i name="MODEL_EPS0">      8.53418044</i>
   <i name="MODEL_ALPHA">      1.00000000</i>
  </separator>
  <separator name="linear response parameters" >
   <i type="logical" name="LEPSILON"> F  </i>
   <i type="logical" name="LRPA"> F  </i>
   <i type="logical" name="LNABLA"> F  </i>
   <i type="logical" name="LVEL"> F  </i>
   <i type="int" name="KINTER">     0</i>
   <i name="CSHIFT">      0.10000000</i>
   <i name="OMEGAMAX">     -1.00000000</i>
   <i name="DEG_THRESHOLD">      0.00200000</i>
   <i name="RTIME">     -0.10000000</i>
   <i name="WPLASMAI">      0.00000000</i>
   <v name="DFIELD">      0.00000000      0.00000000      0.00000000</v>
   <v name="WPLASMA">      0.00000000      0.00000000      0.00000000      0.00000000      0.00000000      0.00000000      0.00000000      0.00000000      0.00000000</v>
  </separator>
  <separator name="orbital magnetization" >
   <i type="logical" name="NUCIND"> F  </i>
   <v name="MAGPOS">      0.00000000      0.00000000      0.00000000</v>
   <i type="logical" name="LNICSALL"> T  </i>
   <i type="logical" name="ORBITALMAG"> F  </i>
   <i type="logical" name="LMAGBLOCH"> F  </i>
   <i type="logical" name="LCHIMAG"> F  </i>
   <i type="logical" name="LGAUGE"> T  </i>
   <i type="int" name="MAGATOM">     0</i>
   <v name="MAGDIPOL">      0.00000000      0.00000000      0.00000000</v>
   <v name="AVECCONST">      0.00000000      0.00000000      0.00000000</v>
  </separator>
  <separator name="response functions" >
   <i type="logical" name="LFINITE_TEMPERATURE"> F  </i>
   <i type="logical" name="LADDER"> F  </i>
   <i type="logical" name="LRPAFORCE"> F  </i>
   <i type="logical" name="LFXC"> F  </i>
   <i type="logical" name="LHARTREE"> T  </i>
   <i type="int" name="IBSE">     0</i>
   <v type="int" name="KPOINT">    -1     0     0     0</v>
   <i type="logical" name="LTCTC"> F  </i>
   <i type="logical" name="LTCTE"> F  </i>
   <i type="logical" name="LTETE"> F  </i>
   <i type="logical" name="LTRIPLET"> F  </i>
   <i type="logical" name="LFXCEPS"> F  </i>
   <i type="logical" name="LFXHEG"> F  </i>
   <i type="int" name="NATURALO">     2</i>
   <i type="logical" name="LHOLEGF"> F  </i>
   <i type="logical" name="L2ORDER"> F  </i>
   <i type="logical" name="LDMP1"> F  </i>
   <i type="logical" name="LMP2LT"> F  </i>
   <i type="logical" name="LSMP2LT"> F  </i>
   <i type="logical" name="LGWLF"> F  </i>
   <i name="ENCUTGW">     -2.00000000</i>
   <i name="ENCUTGWSOFT">     -2.00000000</i>
   <i name="ENCUTLF">     -1.00000000</i>
   <i type="logical" name="LESF_SPLINES"> F  </i>
   <i type="int" name="LMAXMP2">    -1</i>
   <i name="SCISSOR">      0.00000000</i>
   <i type="int" name="NOMEGA">     0</i>
   <i type="int" name="NOMEGAR">     0</i>
   <i type="int" name="NBANDSGW">    -1</i>
   <i type="int" name="NBANDSO">    -1</i>
   <i type="int" name="NBANDSV">    -1</i>
   <i type="int" name="NELM">   100</i>
   <i type="int" name="NELMHF">     1</i>
   <i type="int" name="DIM">     3</i>
   <i type="int" name="IESPILON">     4</i>
   <i type="int" name="ANTIRES">     0</i>
   <i name="OMEGAMAX">    -30.00000000</i>
   <i name="OMEGAMIN">    -30.00000000</i>
   <i name="OMEGATL">   -200.00000000</i>
   <i type="int" name="OMEGAGRID">     0</i>
   <i name="CSHIFT">     -0.10000000</i>
   <i type="logical" name="LSELFENERGY"> F  </i>
   <i type="logical" name="LSPECTRAL"> F  </i>
   <i type="logical" name="LSPECTRALGW"> F  </i>
   <i type="logical" name="LSINGLES"> F  </i>
   <i type="logical" name="LFERMIGW"> F  </i>
   <i type="logical" name="ODDONLYGW"> F  </i>
   <i type="logical" name="EVENONLYGW"> F  </i>
   <i type="int" name="NKREDLFX">     1</i>
   <i type="int" name="NKREDLFY">     1</i>
   <i type="int" name="NKREDLFZ">     1</i>
   <i type="int" name="MAXMEM">  2800</i>
   <i type="int" name="TELESCOPE">     0</i>
   <i type="int" name="NTAUPAR">    -1</i>
   <i type="int" name="NOMEGAPAR">    -1</i>
   <i name="DAMP_NEWTON">      0.80000001</i>
   <i name="LAMBDA">      1.00000000</i>
  </separator>
  <separator name="External order field" >
   <i name="OFIELD_KAPPA">      0.00000000</i>
   <v name="OFIELD_K">      0.00000000      0.00000000      0.00000000</v>
   <i name="OFIELD_Q6_NEAR">      0.00000000</i>
   <i name="OFIELD_Q6_FAR">      0.00000000</i>
   <i name="OFIELD_A">      0.00000000</i>
  </separator>
 </parameters>
 <atominfo>
  <atoms>       8 </atoms>
  <types>       2 </types>
  <array name="atoms" >
   <dimension dim="1">ion</dimension>
   <field type="string">element</field>
   <field type="int">atomtype</field>
   <set>
    <rc><c>Mo</c><c>   1</c></rc>
    <rc><c>Mo</c><c>   1</c></rc>
    <rc><c>Si</c><c>   2</c></rc>
    <rc><c>Si</c><c>   2</c></rc>
    <rc><c>Si</c><c>   2</c></rc>
    <rc><c>Si</c><c>   2</c></rc>
    <rc><c>Si</c><c>   2</c></rc>
    <rc><c>Si</c><c>   2</c></rc>
   </set>
  </array>
  <array name="atomtypes" >
   <dimension dim="1">type</dimension>
   <field type="int">atomspertype</field>
   <field type="string">element</field>
   <field>mass</field>
   <field>valence</field>
   <field type="string">pseudopotential</field>
   <set>
    <rc><c>   2</c><c>Mo</c><c>     95.94000000</c><c>     14.00000000</c><c>  PAW_PBE Mo_sv 02Feb2006               </c></rc>
    <rc><c>   6</c><c>Si</c><c>     28.08500000</c><c>      4.00000000</c><c>  PAW_PBE Si 05Jan2001                  </c></rc>
   </set>
  </array>
 </atominfo>
 <structure name="initialpos" >
  <crystal>
   <varray name="basis" >
    <v>       2.60514200      -4.51223900       0.00000000 </v>
    <v>       2.60514200       4.51223900       0.00000000 </v>
    <v>       0.00000000       0.00000000       4.84001900 </v>
   </varray>
   <i name="volume">    113.78907255 </i>
   <varray name="rec_basis" >
    <v>       0.19192812      -0.11080973       0.00000000 </v>
    <v>       0.19192812       0.11080973       0.00000000 </v>
    <v>       0.00000000       0.00000000       0.20661076 </v>
   </varray>
  </crystal>
  <varray name="positions" >
   <v>       0.66666700       0.33333300       0.25000000 </v>
   <v>       0.33333300       0.66666700       0.75000000 </v>
   <v>       0.82542100       0.17457900       0.75000000 </v>
   <v>       0.34915800       0.17457900       0.75000000 </v>
   <v>       0.82542100       0.65084200       0.75000000 </v>
   <v>       0.17457900       0.82542100       0.25000000 </v>
   <v>       0.65084200       0.82542100       0.25000000 </v>
   <v>       0.17457900       0.34915800       0.25000000 </v>
  </varray>
 </structure>
 <calculation>
  <scstep>
   <time name="total">    2.58    2.61</time>
   <energy>
    <i name="alphaZ">    143.38441958 </i>
    <i name="ewald">  -3505.02801393 </i>
    <i name="hartreedc">  -1039.05435326 </i>
    <i name="XCdc">    127.39443537 </i>
    <i name="pawpsdc">   3471.89043361 </i>
    <i name="pawaedc">  -3399.76892389 </i>
    <i name="eentropy">     -0.00082323 </i>
    <i name="bandstr">    163.83156535 </i>
    <i name="atom">   4342.96439884 </i>
    <i name="e_fr_energy">    305.61313844 </i>
    <i name="e_wo_entrp">    305.61396167 </i>
    <i name="e_0_energy">    305.61355005 </i>
   </energy>
  </scstep>
  <scstep>
   <time name="total">    2.11    2.38</time>
   <energy>
    <i name="e_fr_energy">   -104.33604383 </i>
    <i name="e_wo_entrp">   -104.33565842 </i>
    <i name="e_0_energy">   -104.33585112 </i>
   </energy>
  </scstep>
  <scstep>
   <time name="total">    2.27    2.28</time>
   <energy>
    <i name="e_fr_energy">   -117.52901772 </i>
    <i name="e_wo_entrp">   -117.52826314 </i>
    <i name="e_0_energy">   -117.52864043 </i>
   </energy>
  </scstep>
  <scstep>
   <time name="total">    2.06    2.08</time>
   <energy>
    <i name="e_fr_energy">   -117.68408327 </i>
    <i name="e_wo_entrp">   -117.68334550 </i>
    <i name="e_0_energy">   -117.68371438 </i>
   </energy>
  </scstep>
  <scstep>
   <time name="total">    2.60    2.62</time>
   <energy>
    <i name="e_fr_energy">   -117.68647671 </i>
    <i name="e_wo_entrp">   -117.68573894 </i>
    <i name="e_0_energy">   -117.68610783 </i>
   </energy>
  </scstep>
  <scstep>
   <time name="total">    3.68    3.70</time>
   <energy>
    <i name="e_fr_energy">    -97.73578335 </i>
    <i name="e_wo_entrp">    -97.73550813 </i>
    <i name="e_0_energy">    -97.73564574 </i>
   </energy>
  </scstep>
  <scstep>
   <time name="total">    3.65    3.68</time>
   <energy>
    <i name="e_fr_energy">   -101.29524924 </i>
    <i name="e_wo_entrp">   -101.29500261 </i>
    <i name="e_0_energy">   -101.29512592 </i>
   </energy>
  </scstep>
  <scstep>
   <time name="total">    3.71    3.74</time>
   <energy>
    <i name="e_fr_energy">   -101.80301773 </i>
    <i name="e_wo_entrp">   -101.80276057 </i>
    <i name="e_0_energy">   -101.80288915 </i>
   </energy>
  </scstep>
  <scstep>
   <time name="total">    3.68    3.70</time>
   <energy>
    <i name="e_fr_energy">   -101.92662199 </i>
    <i name="e_wo_entrp">   -101.92633897 </i>
    <i name="e_0_energy">   -101.92648048 </i>
   </energy>
  </scstep>
  <scstep>
   <time name="total">    3.66    3.69</time>
   <energy>
    <i name="e_fr_energy">   -101.95807792 </i>
    <i name="e_wo_entrp">   -101.95775586 </i>
    <i name="e_0_energy">   -101.95791689 </i>
   </energy>
  </scstep>
  <scstep>
   <time name="total">    3.65    3.67</time>
   <energy>
    <i name="e_fr_energy">   -101.96920734 </i>
    <i name="e_wo_entrp">   -101.96886896 </i>
    <i name="e_0_energy">   -101.96903815 </i>
   </energy>
  </scstep>
  <scstep>
   <time name="total">    3.67    3.70</time>
   <energy>
    <i name="e_fr_energy">   -101.97288569 </i>
    <i name="e_wo_entrp">   -101.97255542 </i>
    <i name="e_0_energy">   -101.97272055 </i>
   </energy>
  </scstep>
  <scstep>
   <time name="total">    3.72    3.74</time>
   <energy>
    <i name="e_fr_energy">   -101.97417762 </i>
    <i name="e_wo_entrp">   -101.97385483 </i>
    <i name="e_0_energy">   -101.97401623 </i>
   </energy>
  </scstep>
  <scstep>
   <time name="total">    3.71    3.74</time>
   <energy>
    <i name="e_fr_energy">   -101.97452713 </i>
    <i name="e_wo_entrp">   -101.97421025 </i>
    <i name="e_0_energy">   -101.97436869 </i>
   </energy>
  </scstep>
  <scstep>
   <time name="total">    3.65    3.68</time>
   <energy>
    <i name="e_fr_energy">   -101.97463855 </i>
    <i name="e_wo_entrp">   -101.97432420 </i>
    <i name="e_0_energy">   -101.97448138 </i>
   </energy>
  </scstep>
  <scstep>
   <time name="total">    3.73    3.75</time>
   <energy>
    <i name="e_fr_energy">   -101.97466426 </i>
    <i name="e_wo_entrp">   -101.97435128 </i>
    <i name="e_0_energy">   -101.97450777 </i>
   </energy>
  </scstep>
  <scstep>
   <time name="total">    3.65    3.67</time>
   <energy>
    <i name="e_fr_energy">   -101.97467155 </i>
    <i name="e_wo_entrp">   -101.97435935 </i>
    <i name="e_0_energy">   -101.97451545 </i>
   </energy>
  </scstep>
  <scstep>
   <time name="total">    3.69    3.71</time>
   <energy>
    <i name="e_fr_energy">   -101.97467292 </i>
    <i name="e_wo_entrp">   -101.97436088 </i>
    <i name="e_0_energy">   -101.97451690 </i>
   </energy>
  </scstep>
  <scstep>
   <time name="total">    3.70    3.72</time>
   <energy>
    <i name="e_fr_energy">   -101.97467335 </i>
    <i name="e_wo_entrp">   -101.97436147 </i>
    <i name="e_0_energy">   -101.97451741 </i>
   </energy>
  </scstep>
  <scstep>
   <time name="total">    3.82    3.85</time>
   <energy>
    <i name="e_fr_energy">   -101.97467341 </i>
    <i name="e_wo_entrp">   -101.97436163 </i>
    <i name="e_0_energy">   -101.97451752 </i>
   </energy>
  </scstep>
  <scstep>
   <time name="total">    3.65    3.68</time>
   <energy>
    <i name="e_fr_energy">   -101.97467346 </i>
    <i name="e_wo_entrp">   -101.97436166 </i>
    <i name="e_0_energy">   -101.97451756 </i>
   </energy>
  </scstep>
  <scstep>
   <time name="total">    3.66    3.68</time>
   <energy>
    <i name="e_fr_energy">   -101.97467350 </i>
    <i name="e_wo_entrp">   -101.97436172 </i>
    <i name="e_0_energy">   -101.97451761 </i>
   </energy>
  </scstep>
  <scstep>
   <time name="total">    3.63    3.66</time>
   <energy>
    <i name="e_fr_energy">   -101.97467351 </i>
    <i name="e_wo_entrp">   -101.97436174 </i>
    <i name="e_0_energy">   -101.97451762 </i>
   </energy>
  </scstep>
  <scstep>
   <time name="total">    3.59    3.61</time>
   <energy>
    <i name="e_fr_energy">   -101.97467351 </i>
    <i name="e_wo_entrp">   -101.97436174 </i>
    <i name="e_0_energy">   -101.97451762 </i>
   </energy>
  </scstep>
  <scstep>
   <time name="total">    3.59    3.61</time>
   <energy>
    <i name="e_fr_energy">   -101.97467351 </i>
    <i name="e_wo_entrp">   -101.97436174 </i>
    <i name="e_0_energy">   -101.97451763 </i>
   </energy>
  </scstep>
  <scstep>
   <time name="total">    3.64    3.67</time>
   <energy>
    <i name="e_fr_energy">   -101.97467351 </i>
    <i name="e_wo_entrp">   -101.97436174 </i>
    <i name="e_0_energy">   -101.97451763 </i>
   </energy>
  </scstep>
  <scstep>
   <time name="total">    4.14    4.17</time>
   <energy>
    <i name="alphaZ">    143.38441958 </i>
    <i name="ewald">  -3505.02801393 </i>
    <i name="hartreedc">   -999.41443192 </i>
    <i name="XCdc">    132.78042135 </i>
    <i name="pawpsdc">   7316.07245245 </i>
    <i name="pawaedc">  -7249.17980069 </i>
    <i name="eentropy">     -0.00031177 </i>
    <i name="bandstr">   -283.55380742 </i>
    <i name="atom">   4342.96439884 </i>
    <i name="e_fr_energy">   -101.97467352 </i>
    <i name="e_wo_entrp">   -101.97436174 </i>
    <i name="e_0_energy">   -101.97451763 </i>
   </energy>
  </scstep>
  <structure>
   <crystal>
    <varray name="basis" >
     <v>       2.60514200      -4.51223900       0.00000000 </v>
     <v>       2.60514200       4.51223900       0.00000000 </v>
     <v>       0.00000000       0.00000000       4.84001900 </v>
    </varray>
    <i name="volume">    113.78907255 </i>
    <varray name="rec_basis" >
     <v>       0.19192812      -0.11080973       0.00000000 </v>
     <v>       0.19192812       0.11080973       0.00000000 </v>
     <v>       0.00000000       0.00000000       0.20661076 </v>
    </varray>
   </crystal>
   <varray name="positions" >
    <v>       0.66666700       0.33333300       0.25000000 </v>
    <v>       0.33333300       0.66666700       0.75000000 </v>
    <v>       0.82542100       0.17457900       0.75000000 </v>
    <v>       0.34915800       0.17457900       0.75000000 </v>
    <v>       0.82542100       0.65084200       0.75000000 </v>
    <v>       0.17457900       0.82542100       0.25000000 </v>
    <v>       0.65084200       0.82542100       0.25000000 </v>
    <v>       0.17457900       0.34915800       0.25000000 </v>
   </varray>
  </structure>
  <varray name="forces" >
   <v>       0.00000000       0.00000000       0.00000000 </v>
   <v>       0.00000000       0.00000000       0.00000000 </v>
   <v>       0.00000000       0.00000000       0.00000000 </v>
   <v>       0.00000000       0.00000000       0.00000000 </v>
   <v>       0.00000000       0.00000000       0.00000000 </v>
   <v>       0.00000000       0.00000000       0.00000000 </v>
   <v>       0.00000000       0.00000000       0.00000000 </v>
   <v>       0.00000000       0.00000000       0.00000000 </v>
  </varray>
  <varray name="stress" >
   <v>       0.00000000       0.00000000       0.00000000 </v>
   <v>       0.00000000       0.00000000       0.00000000 </v>
   <v>       0.00000000       0.00000000       0.00000000 </v>
  </varray>
  <energy>
   <i name="e_fr_energy">   -101.97467352 </i>
   <i name="e_wo_entrp">   -101.97436174 </i>
   <i name="e_0_energy">   -101.97451763 </i>
  </energy>
  <time name="totalsc">   94.12   95.30</time>
  <eigenvalues>
   <array>
    <dimension dim="1">band</dimension>
    <dimension dim="2">kpoint</dimension>
    <dimension dim="3">spin</dimension>
    <field>eigene</field>
    <field>occ</field>
    <set>
     <set comment="spin 1">
      <set comment="kpoint 1">
       <r>  -51.3419    1.0000 </r>
       <r>  -51.3370    1.0000 </r>
       <r>  -24.8460    1.0000 </r>
       <r>  -24.8460    1.0000 </r>
       <r>  -24.8157    1.0000 </r>
       <r>  -24.8157    1.0000 </r>
       <r>  -24.7820    1.0000 </r>
       <r>  -24.7404    1.0000 </r>
       <r>   -3.0869    1.0000 </r>
       <r>    0.7717    1.0000 </r>
       <r>    3.1099    1.0000 </r>
       <r>    3.1100    1.0000 </r>
       <r>    3.8867    1.0000 </r>
       <r>    4.4421    1.0000 </r>
       <r>    4.4421    1.0000 </r>
       <r>    4.6528    1.0000 </r>
       <r>    6.1929    1.0000 </r>
       <r>    7.8633    1.0000 </r>
       <r>    7.8634    1.0000 </r>
       <r>    8.4181    1.0000 </r>
       <r>    8.4182    1.0000 </r>
       <r>    8.7969    1.0000 </r>
       <r>    8.7970    1.0000 </r>
       <r>    9.4559    1.0000 </r>
       <r>    9.4560    1.0000 </r>
       <r>   10.6589    1.0000 </r>
       <r>   12.9536    0.0000 </r>
       <r>   13.0290    0.0000 </r>
       <r>   13.3894    0.0000 </r>
       <r>   13.3894    0.0000 </r>
       <r>   13.5684    0.0000 </r>
       <r>   13.5684    0.0000 </r>
       <r>   13.7365    0.0000 </r>
       <r>   14.1348    0.0000 </r>
       <r>   14.1348    0.0000 </r>
       <r>   14.5529    0.0000 </r>
      </set>
      <set comment="kpoint 2">
       <r>  -51.3417    1.0000 </r>
       <r>  -51.3372    1.0000 </r>
       <r>  -24.8470    1.0000 </r>
       <r>  -24.8459    1.0000 </r>
       <r>  -24.8169    1.0000 </r>
       <r>  -24.8151    1.0000 </r>
       <r>  -24.7806    1.0000 </r>
       <r>  -24.7418    1.0000 </r>
       <r>   -2.9598    1.0000 </r>
       <r>    0.7876    1.0000 </r>
       <r>    2.2256    1.0000 </r>
       <r>    3.0235    1.0000 </r>
       <r>    4.0632    1.0000 </r>
       <r>    4.6721    1.0000 </r>
       <r>    4.6880    1.0000 </r>
       <r>    4.9077    1.0000 </r>
       <r>    6.6396    1.0000 </r>
       <r>    7.4198    1.0000 </r>
       <r>    7.4506    1.0000 </r>
       <r>    8.5729    1.0000 </r>
       <r>    8.7396    1.0000 </r>
       <r>    8.7720    1.0000 </r>
       <r>    8.9161    1.0000 </r>
       <r>    8.9534    1.0000 </r>
       <r>    9.3157    1.0000 </r>
       <r>   11.2165    1.0000 </r>
       <r>   12.8428    0.0000 </r>
       <r>   12.8746    0.0000 </r>
       <r>   13.0470    0.0000 </r>
       <r>   13.0502    0.0000 </r>
       <r>   13.3637    0.0000 </r>
       <r>   13.8529    0.0000 </r>
       <r>   14.1482    0.0000 </r>
       <r>   14.2541    0.0000 </r>
       <r>   14.7609    0.0000 </r>
       <r>   15.0820    0.0000 </r>
      </set>
      <set comment="kpoint 3">
       <r>  -51.3412    1.0000 </r>
       <r>  -51.3376    1.0000 </r>
       <r>  -24.8492    1.0000 </r>
       <r>  -24.8456    1.0000 </r>
       <r>  -24.8199    1.0000 </r>
       <r>  -24.8136    1.0000 </r>
       <r>  -24.7767    1.0000 </r>
       <r>  -24.7456    1.0000 </r>
       <r>   -2.5846    1.0000 </r>
       <r>    0.6132    1.0000 </r>
       <r>    1.3325    1.0000 </r>
       <r>    2.8740    1.0000 </r>
       <r>    3.7343    1.0000 </r>
       <r>    4.7856    1.0000 </r>
       <r>    5.2424    1.0000 </r>
       <r>    5.9527    1.0000 </r>
       <r>    6.8170    1.0000 </r>
       <r>    6.8720    1.0000 </r>
       <r>    7.0013    1.0000 </r>
       <r>    7.9292    1.0000 </r>
       <r>    8.6191    1.0000 </r>
       <r>    8.9339    1.0000 </r>
       <r>    9.0101    1.0000 </r>
       <r>    9.6260    1.0000 </r>
       <r>    9.7267    1.0000 </r>
       <r>   11.6413    0.0000 </r>
       <r>   12.3123    0.0000 </r>
       <r>   12.3693    0.0000 </r>
       <r>   12.7213    0.0000 </r>
       <r>   13.2455    0.0000 </r>
       <r>   13.5461    0.0000 </r>
       <r>   14.1298    0.0000 </r>
       <r>   14.1898    0.0000 </r>
       <r>   14.3946    0.0000 </r>
       <r>   15.3118    0.0000 </r>
       <r>   16.2308    0.0000 </r>
      </set>
      <set comment="kpoint 4">
       <r>  -51.3406    1.0000 </r>
       <r>  -51.3382    1.0000 </r>
       <r>  -24.8512    1.0000 </r>
       <r>  -24.8450    1.0000 </r>
       <r>  -24.8231    1.0000 </r>
       <r>  -24.8124    1.0000 </r>
       <r>  -24.7713    1.0000 </r>
       <r>  -24.7509    1.0000 </r>
       <r>   -1.9808    1.0000 </r>
       <r>   -0.2371    1.0000 </r>
       <r>    1.1442    1.0000 </r>
       <r>    2.7669    1.0000 </r>
       <r>    3.7761    1.0000 </r>
       <r>    4.9111    1.0000 </r>
       <r>    5.9005    1.0000 </r>
       <r>    6.0123    1.0000 </r>
       <r>    6.2270    1.0000 </r>
       <r>    6.4594    1.0000 </r>
       <r>    6.7181    1.0000 </r>
       <r>    7.9267    1.0000 </r>
       <r>    8.7819    1.0000 </r>
       <r>    8.8962    1.0000 </r>
       <r>   10.0798    1.0000 </r>
       <r>   10.2942    1.0000 </r>
       <r>   10.3863    1.0000 </r>
       <r>   11.7437    0.0000 </r>
       <r>   11.8950    0.0000 </r>
       <r>   12.0931    0.0000 </r>
       <r>   12.4704    0.0000 </r>
       <r>   12.7865    0.0000 </r>
       <r>   13.6294    0.0000 </r>
       <r>   13.9565    0.0000 </r>
       <r>   14.2553    0.0000 </r>
       <r>   14.4122    0.0000 </r>
       <r>   14.8960    0.0000 </r>
       <r>   16.3899    0.0000 </r>
      </set>
      <set comment="kpoint 5">
       <r>  -51.3402    1.0000 </r>
       <r>  -51.3386    1.0000 </r>
       <r>  -24.8520    1.0000 </r>
       <r>  -24.8447    1.0000 </r>
       <r>  -24.8245    1.0000 </r>
       <r>  -24.8119    1.0000 </r>
       <r>  -24.7680    1.0000 </r>
       <r>  -24.7542    1.0000 </r>
       <r>   -1.2403    1.0000 </r>
       <r>   -1.1149    1.0000 </r>
       <r>    1.1232    1.0000 </r>
       <r>    2.7299    1.0000 </r>
       <r>    3.9650    1.0000 </r>
       <r>    4.9773    1.0000 </r>
       <r>    5.3786    1.0000 </r>
       <r>    6.1783    1.0000 </r>
       <r>    6.2953    1.0000 </r>
       <r>    6.6222    1.0000 </r>
       <r>    6.7146    1.0000 </r>
       <r>    7.1996    1.0000 </r>
       <r>    8.7561    1.0000 </r>
       <r>   10.1026    1.0000 </r>
       <r>   10.5644    1.0000 </r>
       <r>   10.6555    1.0000 </r>
       <r>   10.6588    1.0000 </r>
       <r>   11.5908    0.0000 </r>
       <r>   11.6386    0.0000 </r>
       <r>   12.0236    0.0000 </r>
       <r>   12.0537    0.0000 </r>
       <r>   12.3471    0.0000 </r>
       <r>   13.5069    0.0000 </r>
       <r>   13.6545    0.0000 </r>
       <r>   14.2964    0.0000 </r>
       <r>   14.5379    0.0000 </r>
       <r>   15.2638    0.0000 </r>
       <r>   15.5012    0.0000 </r>
      </set>
      <set comment="kpoint 6">
       <r>  -51.3414    1.0000 </r>
       <r>  -51.3375    1.0000 </r>
       <r>  -24.8489    1.0000 </r>
       <r>  -24.8453    1.0000 </r>
       <r>  -24.8192    1.0000 </r>
       <r>  -24.8140    1.0000 </r>
       <r>  -24.7779    1.0000 </r>
       <r>  -24.7444    1.0000 </r>
       <r>   -2.7086    1.0000 </r>
       <r>    0.7602    1.0000 </r>
       <r>    1.4635    1.0000 </r>
       <r>    2.7883    1.0000 </r>
       <r>    4.3264    1.0000 </r>
       <r>    4.4695    1.0000 </r>
       <r>    4.7548    1.0000 </r>
       <r>    5.9478    1.0000 </r>
       <r>    6.9141    1.0000 </r>
       <r>    7.0422    1.0000 </r>
       <r>    7.0699    1.0000 </r>
       <r>    7.9586    1.0000 </r>
       <r>    8.7021    1.0000 </r>
       <r>    8.7226    1.0000 </r>
       <r>    9.1203    1.0000 </r>
       <r>    9.4516    1.0000 </r>
       <r>    9.5115    1.0000 </r>
       <r>   11.5119    0.0020 </r>
       <r>   12.5442    0.0000 </r>
       <r>   12.5705    0.0000 </r>
       <r>   12.7161    0.0000 </r>
       <r>   13.1165    0.0000 </r>
       <r>   13.3932    0.0000 </r>
       <r>   14.2032    0.0000 </r>
       <r>   14.2124    0.0000 </r>
       <r>   14.4408    0.0000 </r>
       <r>   15.2825    0.0000 </r>
       <r>   15.7621    0.0000 </r>
      </set>
      <set comment="kpoint 7">
       <r>  -51.3408    1.0000 </r>
       <r>  -51.3380    1.0000 </r>
       <r>  -24.8517    1.0000 </r>
       <r>  -24.8438    1.0000 </r>
       <r>  -24.8228    1.0000 </r>
       <r>  -24.8125    1.0000 </r>
       <r>  -24.7731    1.0000 </r>
       <r>  -24.7491    1.0000 </r>
       <r>   -2.2191    1.0000 </r>
       <r>    0.2989    1.0000 </r>
       <r>    0.8681    1.0000 </r>
       <r>    2.7585    1.0000 </r>
       <r>    4.1262    1.0000 </r>
       <r>    4.8702    1.0000 </r>
       <r>    5.0700    1.0000 </r>
       <r>    6.3066    1.0000 </r>
       <r>    6.6107    1.0000 </r>
       <r>    6.6161    1.0000 </r>
       <r>    6.7451    1.0000 </r>
       <r>    8.1352    1.0000 </r>
       <r>    8.4570    1.0000 </r>
       <r>    8.8471    1.0000 </r>
       <r>    9.6752    1.0000 </r>
       <r>   10.1043    1.0000 </r>
       <r>   10.2001    1.0000 </r>
       <r>   11.4025    1.0000 </r>
       <r>   12.1039    0.0000 </r>
       <r>   12.4303    0.0000 </r>
       <r>   12.5565    0.0000 </r>
       <r>   12.9312    0.0000 </r>
       <r>   13.6543    0.0000 </r>
       <r>   14.0800    0.0000 </r>
       <r>   14.3133    0.0000 </r>
       <r>   14.4826    0.0000 </r>
       <r>   14.9930    0.0000 </r>
       <r>   15.8586    0.0000 </r>
      </set>
      <set comment="kpoint 8">
       <r>  -51.3402    1.0000 </r>
       <r>  -51.3386    1.0000 </r>
       <r>  -24.8535    1.0000 </r>
       <r>  -24.8423    1.0000 </r>
       <r>  -24.8258    1.0000 </r>
       <r>  -24.8116    1.0000 </r>
       <r>  -24.7680    1.0000 </r>
       <r>  -24.7542    1.0000 </r>
       <r>   -1.5198    1.0000 </r>
       <r>   -0.6384    1.0000 </r>
       <r>    0.7447    1.0000 </r>
       <r>    2.9394    1.0000 </r>
       <r>    4.0136    1.0000 </r>
       <r>    4.9767    1.0000 </r>
       <r>    5.5325    1.0000 </r>
       <r>    5.7116    1.0000 </r>
       <r>    6.3347    1.0000 </r>
       <r>    6.5736    1.0000 </r>
       <r>    6.6377    1.0000 </r>
       <r>    7.8294    1.0000 </r>
       <r>    8.6258    1.0000 </r>
       <r>    9.7431    1.0000 </r>
       <r>   10.5834    1.0000 </r>
       <r>   10.6685    1.0000 </r>
       <r>   10.7056    1.0000 </r>
       <r>   11.4439    0.9732 </r>
       <r>   11.6944    0.0000 </r>
       <r>   12.1201    0.0000 </r>
       <r>   12.1975    0.0000 </r>
       <r>   12.5826    0.0000 </r>
       <r>   13.1641    0.0000 </r>
       <r>   13.7306    0.0000 </r>
       <r>   14.3937    0.0000 </r>
       <r>   14.4308    0.0000 </r>
       <r>   15.0235    0.0000 </r>
       <r>   15.7508    0.0000 </r>
      </set>
      <set comment="kpoint 9">
       <r>  -51.3402    1.0000 </r>
       <r>  -51.3386    1.0000 </r>
       <r>  -24.8546    1.0000 </r>
       <r>  -24.8400    1.0000 </r>
       <r>  -24.8272    1.0000 </r>
       <r>  -24.8114    1.0000 </r>
       <r>  -24.7680    1.0000 </r>
       <r>  -24.7542    1.0000 </r>
       <r>   -1.6333    1.0000 </r>
       <r>   -0.0065    1.0000 </r>
       <r>    0.0873    1.0000 </r>
       <r>    3.0557    1.0000 </r>
       <r>    4.3780    1.0000 </r>
       <r>    4.8147    1.0000 </r>
       <r>    4.9761    1.0000 </r>
       <r>    6.0587    1.0000 </r>
       <r>    6.4049    1.0000 </r>
       <r>    6.4942    1.0000 </r>
       <r>    6.6432    1.0000 </r>
       <r>    8.0761    1.0000 </r>
       <r>    8.6431    1.0000 </r>
       <r>    9.4005    1.0000 </r>
       <r>   10.6413    1.0000 </r>
       <r>   10.6801    1.0000 </r>
       <r>   10.7541    1.0000 </r>
       <r>   11.2549    1.0000 </r>
       <r>   11.8569    0.0000 </r>
       <r>   11.9458    0.0000 </r>
       <r>   12.5113    0.0000 </r>
       <r>   12.5122    0.0000 </r>
       <r>   13.3181    0.0000 </r>
       <r>   13.6692    0.0000 </r>
       <r>   14.5301    0.0000 </r>
       <r>   14.5832    0.0000 </r>
       <r>   14.7360    0.0000 </r>
       <r>   15.0470    0.0000 </r>
      </set>
      <set comment="kpoint 10">
       <r>  -51.3397    1.0000 </r>
       <r>  -51.3390    1.0000 </r>
       <r>  -24.8558    1.0000 </r>
       <r>  -24.8371    1.0000 </r>
       <r>  -24.8304    1.0000 </r>
       <r>  -24.8110    1.0000 </r>
       <r>  -24.7640    1.0000 </r>
       <r>  -24.7582    1.0000 </r>
       <r>   -0.9396    1.0000 </r>
       <r>   -0.7777    1.0000 </r>
       <r>   -0.0416    1.0000 </r>
       <r>    3.4410    1.0000 </r>
       <r>    4.0118    1.0000 </r>
       <r>    4.8837    1.0000 </r>
       <r>    5.0302    1.0000 </r>
       <r>    5.9365    1.0000 </r>
       <r>    6.3058    1.0000 </r>
       <r>    6.4065    1.0000 </r>
       <r>    6.9091    1.0000 </r>
       <r>    7.6776    1.0000 </r>
       <r>    8.5929    1.0000 </r>
       <r>   10.6895    1.0000 </r>
       <r>   10.7713    1.0000 </r>
       <r>   11.0471    1.0000 </r>
       <r>   11.1566    1.0000 </r>
       <r>   11.4711    0.5032 </r>
       <r>   11.5960    0.0000 </r>
       <r>   11.6764    0.0000 </r>
       <r>   11.7424    0.0000 </r>
       <r>   12.2213    0.0000 </r>
       <r>   13.1634    0.0000 </r>
       <r>   13.7971    0.0000 </r>
       <r>   14.0571    0.0000 </r>
       <r>   14.3813    0.0000 </r>
       <r>   14.8317    0.0000 </r>
       <r>   14.9763    0.0000 </r>
      </set>
      <set comment="kpoint 11">
       <r>  -51.3417    1.0000 </r>
       <r>  -51.3373    1.0000 </r>
       <r>  -24.8444    1.0000 </r>
       <r>  -24.8444    1.0000 </r>
       <r>  -24.8172    1.0000 </r>
       <r>  -24.8172    1.0000 </r>
       <r>  -24.7808    1.0000 </r>
       <r>  -24.7433    1.0000 </r>
       <r>   -2.9485    1.0000 </r>
       <r>    0.5017    1.0000 </r>
       <r>    3.1878    1.0000 </r>
       <r>    3.1879    1.0000 </r>
       <r>    4.0081    1.0000 </r>
       <r>    4.4096    1.0000 </r>
       <r>    4.4097    1.0000 </r>
       <r>    4.4819    1.0000 </r>
       <r>    6.7364    1.0000 </r>
       <r>    7.4957    1.0000 </r>
       <r>    7.4957    1.0000 </r>
       <r>    7.6832    1.0000 </r>
       <r>    7.6833    1.0000 </r>
       <r>    9.5509    1.0000 </r>
       <r>    9.5510    1.0000 </r>
       <r>    9.9268    1.0000 </r>
       <r>    9.9269    1.0000 </r>
       <r>   10.4306    1.0000 </r>
       <r>   12.0364    0.0000 </r>
       <r>   12.5221    0.0000 </r>
       <r>   13.0205    0.0000 </r>
       <r>   13.4526    0.0000 </r>
       <r>   13.4526    0.0000 </r>
       <r>   13.5851    0.0000 </r>
       <r>   13.5851    0.0000 </r>
       <r>   14.4038    0.0000 </r>
       <r>   14.4038    0.0000 </r>
       <r>   16.0949    0.0000 </r>
      </set>
      <set comment="kpoint 12">
       <r>  -51.3415    1.0000 </r>
       <r>  -51.3374    1.0000 </r>
       <r>  -24.8453    1.0000 </r>
       <r>  -24.8447    1.0000 </r>
       <r>  -24.8185    1.0000 </r>
       <r>  -24.8166    1.0000 </r>
       <r>  -24.7793    1.0000 </r>
       <r>  -24.7443    1.0000 </r>
       <r>   -2.8221    1.0000 </r>
       <r>    0.5546    1.0000 </r>
       <r>    2.3133    1.0000 </r>
       <r>    3.1023    1.0000 </r>
       <r>    3.7135    1.0000 </r>
       <r>    4.6190    1.0000 </r>
       <r>    4.8366    1.0000 </r>
       <r>    5.2129    1.0000 </r>
       <r>    6.8630    1.0000 </r>
       <r>    6.9658    1.0000 </r>
       <r>    7.0970    1.0000 </r>
       <r>    7.9084    1.0000 </r>
       <r>    8.0703    1.0000 </r>
       <r>    9.2138    1.0000 </r>
       <r>    9.6199    1.0000 </r>
       <r>    9.7215    1.0000 </r>
       <r>    9.8549    1.0000 </r>
       <r>   10.8266    1.0000 </r>
       <r>   12.3347    0.0000 </r>
       <r>   12.5756    0.0000 </r>
       <r>   12.9009    0.0000 </r>
       <r>   13.0707    0.0000 </r>
       <r>   13.3610    0.0000 </r>
       <r>   13.7535    0.0000 </r>
       <r>   14.1153    0.0000 </r>
       <r>   14.5161    0.0000 </r>
       <r>   14.6044    0.0000 </r>
       <r>   16.1174    0.0000 </r>
      </set>
      <set comment="kpoint 13">
       <r>  -51.3410    1.0000 </r>
       <r>  -51.3378    1.0000 </r>
       <r>  -24.8474    1.0000 </r>
       <r>  -24.8450    1.0000 </r>
       <r>  -24.8219    1.0000 </r>
       <r>  -24.8153    1.0000 </r>
       <r>  -24.7751    1.0000 </r>
       <r>  -24.7473    1.0000 </r>
       <r>   -2.4492    1.0000 </r>
       <r>    0.5646    1.0000 </r>
       <r>    1.3318    1.0000 </r>
       <r>    2.9555    1.0000 </r>
       <r>    3.1839    1.0000 </r>
       <r>    5.1082    1.0000 </r>
       <r>    5.3473    1.0000 </r>
       <r>    6.0176    1.0000 </r>
       <r>    6.1577    1.0000 </r>
       <r>    6.7410    1.0000 </r>
       <r>    7.1597    1.0000 </r>
       <r>    8.1732    1.0000 </r>
       <r>    8.2749    1.0000 </r>
       <r>    8.8516    1.0000 </r>
       <r>    9.5045    1.0000 </r>
       <r>   10.0154    1.0000 </r>
       <r>   10.1462    1.0000 </r>
       <r>   11.0682    1.0000 </r>
       <r>   12.3085    0.0000 </r>
       <r>   12.3207    0.0000 </r>
       <r>   12.5253    0.0000 </r>
       <r>   13.3177    0.0000 </r>
       <r>   13.8008    0.0000 </r>
       <r>   13.9052    0.0000 </r>
       <r>   14.5301    0.0000 </r>
       <r>   14.7040    0.0000 </r>
       <r>   14.9835    0.0000 </r>
       <r>   15.6488    0.0000 </r>
      </set>
      <set comment="kpoint 14">
       <r>  -51.3405    1.0000 </r>
       <r>  -51.3383    1.0000 </r>
       <r>  -24.8493    1.0000 </r>
       <r>  -24.8452    1.0000 </r>
       <r>  -24.8255    1.0000 </r>
       <r>  -24.8142    1.0000 </r>
       <r>  -24.7698    1.0000 </r>
       <r>  -24.7514    1.0000 </r>
       <r>   -1.8494    1.0000 </r>
       <r>   -0.1292    1.0000 </r>
       <r>    1.1112    1.0000 </r>
       <r>    2.8507    1.0000 </r>
       <r>    2.9875    1.0000 </r>
       <r>    5.1819    1.0000 </r>
       <r>    5.6277    1.0000 </r>
       <r>    5.6302    1.0000 </r>
       <r>    6.3314    1.0000 </r>
       <r>    6.6249    1.0000 </r>
       <r>    7.1240    1.0000 </r>
       <r>    8.0064    1.0000 </r>
       <r>    8.8801    1.0000 </r>
       <r>    9.2515    1.0000 </r>
       <r>    9.7397    1.0000 </r>
       <r>   10.4762    1.0000 </r>
       <r>   10.6278    1.0000 </r>
       <r>   11.1707    1.0000 </r>
       <r>   12.0066    0.0000 </r>
       <r>   12.0300    0.0000 </r>
       <r>   12.4620    0.0000 </r>
       <r>   13.1342    0.0000 </r>
       <r>   13.6587    0.0000 </r>
       <r>   13.9368    0.0000 </r>
       <r>   13.9937    0.0000 </r>
       <r>   14.6530    0.0000 </r>
       <r>   15.2136    0.0000 </r>
       <r>   15.8474    0.0000 </r>
      </set>
      <set comment="kpoint 15">
       <r>  -51.3401    1.0000 </r>
       <r>  -51.3386    1.0000 </r>
       <r>  -24.8500    1.0000 </r>
       <r>  -24.8451    1.0000 </r>
       <r>  -24.8271    1.0000 </r>
       <r>  -24.8138    1.0000 </r>
       <r>  -24.7667    1.0000 </r>
       <r>  -24.7541    1.0000 </r>
       <r>   -1.1189    1.0000 </r>
       <r>   -0.9856    1.0000 </r>
       <r>    1.1326    1.0000 </r>
       <r>    2.8146    1.0000 </r>
       <r>    3.0026    1.0000 </r>
       <r>    4.8232    1.0000 </r>
       <r>    5.6834    1.0000 </r>
       <r>    5.8335    1.0000 </r>
       <r>    6.3919    1.0000 </r>
       <r>    6.7644    1.0000 </r>
       <r>    6.8611    1.0000 </r>
       <r>    7.6543    1.0000 </r>
       <r>    9.1786    1.0000 </r>
       <r>    9.9780    1.0000 </r>
       <r>   10.2440    1.0000 </r>
       <r>   10.7239    1.0000 </r>
       <r>   10.9266    1.0000 </r>
       <r>   10.9878    1.0000 </r>
       <r>   11.5998    0.0000 </r>
       <r>   11.8965    0.0000 </r>
       <r>   12.3378    0.0000 </r>
       <r>   12.7267    0.0000 </r>
       <r>   13.6747    0.0000 </r>
       <r>   13.6975    0.0000 </r>
       <r>   14.1945    0.0000 </r>
       <r>   14.3516    0.0000 </r>
       <r>   14.7585    0.0000 </r>
       <r>   16.1104    0.0000 </r>
      </set>
      <set comment="kpoint 16">
       <r>  -51.3412    1.0000 </r>
       <r>  -51.3376    1.0000 </r>
       <r>  -24.8471    1.0000 </r>
       <r>  -24.8445    1.0000 </r>
       <r>  -24.8210    1.0000 </r>
       <r>  -24.8156    1.0000 </r>
       <r>  -24.7764    1.0000 </r>
       <r>  -24.7463    1.0000 </r>
       <r>   -2.5724    1.0000 </r>
       <r>    0.6141    1.0000 </r>
       <r>    1.5673    1.0000 </r>
       <r>    2.6701    1.0000 </r>
       <r>    3.8415    1.0000 </r>
       <r>    4.4421    1.0000 </r>
       <r>    5.5013    1.0000 </r>
       <r>    5.9977    1.0000 </r>
       <r>    6.4674    1.0000 </r>
       <r>    6.5267    1.0000 </r>
       <r>    7.1077    1.0000 </r>
       <r>    8.1096    1.0000 </r>
       <r>    8.4020    1.0000 </r>
       <r>    8.7981    1.0000 </r>
       <r>    9.4552    1.0000 </r>
       <r>    9.8959    1.0000 </r>
       <r>   10.0699    1.0000 </r>
       <r>   11.0490    1.0000 </r>
       <r>   12.1402    0.0000 </r>
       <r>   12.3949    0.0000 </r>
       <r>   13.0813    0.0000 </r>
       <r>   13.0953    0.0000 </r>
       <r>   13.4425    0.0000 </r>
       <r>   13.9901    0.0000 </r>
       <r>   14.3470    0.0000 </r>
       <r>   14.7940    0.0000 </r>
       <r>   15.2502    0.0000 </r>
       <r>   15.3137    0.0000 </r>
      </set>
      <set comment="kpoint 17">
       <r>  -51.3407    1.0000 </r>
       <r>  -51.3381    1.0000 </r>
       <r>  -24.8497    1.0000 </r>
       <r>  -24.8438    1.0000 </r>
       <r>  -24.8249    1.0000 </r>
       <r>  -24.8144    1.0000 </r>
       <r>  -24.7716    1.0000 </r>
       <r>  -24.7500    1.0000 </r>
       <r>   -2.0860    1.0000 </r>
       <r>    0.3659    1.0000 </r>
       <r>    0.8994    1.0000 </r>
       <r>    2.4974    1.0000 </r>
       <r>    3.6453    1.0000 </r>
       <r>    4.7136    1.0000 </r>
       <r>    5.7226    1.0000 </r>
       <r>    5.8884    1.0000 </r>
       <r>    6.3136    1.0000 </r>
       <r>    6.6271    1.0000 </r>
       <r>    7.1330    1.0000 </r>
       <r>    8.3495    1.0000 </r>
       <r>    8.5214    1.0000 </r>
       <r>    8.9848    1.0000 </r>
       <r>    9.5546    1.0000 </r>
       <r>   10.2422    1.0000 </r>
       <r>   10.5219    1.0000 </r>
       <r>   11.1825    1.0000 </r>
       <r>   11.7026    0.0000 </r>
       <r>   12.2042    0.0000 </r>
       <r>   12.9262    0.0000 </r>
       <r>   13.1598    0.0000 </r>
       <r>   13.7128    0.0000 </r>
       <r>   13.9181    0.0000 </r>
       <r>   14.2233    0.0000 </r>
       <r>   14.9558    0.0000 </r>
       <r>   15.1361    0.0000 </r>
       <r>   15.7738    0.0000 </r>
      </set>
      <set comment="kpoint 18">
       <r>  -51.3401    1.0000 </r>
       <r>  -51.3386    1.0000 </r>
       <r>  -24.8514    1.0000 </r>
       <r>  -24.8428    1.0000 </r>
       <r>  -24.8281    1.0000 </r>
       <r>  -24.8136    1.0000 </r>
       <r>  -24.7667    1.0000 </r>
       <r>  -24.7541    1.0000 </r>
       <r>   -1.3921    1.0000 </r>
       <r>   -0.5192    1.0000 </r>
       <r>    0.8007    1.0000 </r>
       <r>    2.7645    1.0000 </r>
       <r>    3.2450    1.0000 </r>
       <r>    4.8769    1.0000 </r>
       <r>    5.2186    1.0000 </r>
       <r>    6.1744    1.0000 </r>
       <r>    6.5223    1.0000 </r>
       <r>    6.5779    1.0000 </r>
       <r>    7.0199    1.0000 </r>
       <r>    7.8325    1.0000 </r>
       <r>    8.9528    1.0000 </r>
       <r>    9.7738    1.0000 </r>
       <r>   10.3001    1.0000 </r>
       <r>   10.6023    1.0000 </r>
       <r>   10.9643    1.0000 </r>
       <r>   11.0559    1.0000 </r>
       <r>   11.6149    0.0000 </r>
       <r>   11.8520    0.0000 </r>
       <r>   12.4896    0.0000 </r>
       <r>   13.0077    0.0000 </r>
       <r>   13.3074    0.0000 </r>
       <r>   13.7608    0.0000 </r>
       <r>   13.9365    0.0000 </r>
       <r>   14.5430    0.0000 </r>
       <r>   15.0233    0.0000 </r>
       <r>   15.9394    0.0000 </r>
      </set>
      <set comment="kpoint 19">
       <r>  -51.3401    1.0000 </r>
       <r>  -51.3386    1.0000 </r>
       <r>  -24.8524    1.0000 </r>
       <r>  -24.8409    1.0000 </r>
       <r>  -24.8292    1.0000 </r>
       <r>  -24.8135    1.0000 </r>
       <r>  -24.7666    1.0000 </r>
       <r>  -24.7542    1.0000 </r>
       <r>   -1.5045    1.0000 </r>
       <r>    0.1080    1.0000 </r>
       <r>    0.1735    1.0000 </r>
       <r>    2.6653    1.0000 </r>
       <r>    3.8313    1.0000 </r>
       <r>    4.1211    1.0000 </r>
       <r>    5.8996    1.0000 </r>
       <r>    5.9612    1.0000 </r>
       <r>    6.2801    1.0000 </r>
       <r>    6.6945    1.0000 </r>
       <r>    7.0839    1.0000 </r>
       <r>    8.2325    1.0000 </r>
       <r>    8.6212    1.0000 </r>
       <r>    9.5813    1.0000 </r>
       <r>   10.2687    1.0000 </r>
       <r>   10.3891    1.0000 </r>
       <r>   11.0682    1.0000 </r>
       <r>   11.2904    1.0000 </r>
       <r>   11.4953    0.0442 </r>
       <r>   12.0429    0.0000 </r>
       <r>   12.4566    0.0000 </r>
       <r>   12.7981    0.0000 </r>
       <r>   13.6335    0.0000 </r>
       <r>   13.6772    0.0000 </r>
       <r>   14.0991    0.0000 </r>
       <r>   14.4298    0.0000 </r>
       <r>   15.0440    0.0000 </r>
       <r>   15.6818    0.0000 </r>
      </set>
      <set comment="kpoint 20">
       <r>  -51.3397    1.0000 </r>
       <r>  -51.3390    1.0000 </r>
       <r>  -24.8535    1.0000 </r>
       <r>  -24.8384    1.0000 </r>
       <r>  -24.8323    1.0000 </r>
       <r>  -24.8131    1.0000 </r>
       <r>  -24.7628    1.0000 </r>
       <r>  -24.7576    1.0000 </r>
       <r>   -0.8199    1.0000 </r>
       <r>   -0.6540    1.0000 </r>
       <r>    0.0635    1.0000 </r>
       <r>    3.2283    1.0000 </r>
       <r>    3.2636    1.0000 </r>
       <r>    4.0137    1.0000 </r>
       <r>    5.7925    1.0000 </r>
       <r>    6.3165    1.0000 </r>
       <r>    6.3415    1.0000 </r>
       <r>    6.5297    1.0000 </r>
       <r>    7.3292    1.0000 </r>
       <r>    7.7889    1.0000 </r>
       <r>    8.5370    1.0000 </r>
       <r>   10.5225    1.0000 </r>
       <r>   10.5360    1.0000 </r>
       <r>   10.7737    1.0000 </r>
       <r>   11.0042    1.0000 </r>
       <r>   11.3391    1.0000 </r>
       <r>   11.6682    0.0000 </r>
       <r>   11.8623    0.0000 </r>
       <r>   12.1050    0.0000 </r>
       <r>   12.2902    0.0000 </r>
       <r>   13.4434    0.0000 </r>
       <r>   13.7123    0.0000 </r>
       <r>   13.9641    0.0000 </r>
       <r>   14.2916    0.0000 </r>
       <r>   14.3298    0.0000 </r>
       <r>   15.9401    0.0000 </r>
      </set>
      <set comment="kpoint 21">
       <r>  -51.3410    1.0000 </r>
       <r>  -51.3379    1.0000 </r>
       <r>  -24.8401    1.0000 </r>
       <r>  -24.8401    1.0000 </r>
       <r>  -24.8212    1.0000 </r>
       <r>  -24.8212    1.0000 </r>
       <r>  -24.7769    1.0000 </r>
       <r>  -24.7510    1.0000 </r>
       <r>   -2.5428    1.0000 </r>
       <r>   -0.2065    1.0000 </r>
       <r>    3.4092    1.0000 </r>
       <r>    3.4092    1.0000 </r>
       <r>    4.2943    1.0000 </r>
       <r>    4.2943    1.0000 </r>
       <r>    4.3367    1.0000 </r>
       <r>    4.5393    1.0000 </r>
       <r>    6.9590    1.0000 </r>
       <r>    6.9590    1.0000 </r>
       <r>    6.9770    1.0000 </r>
       <r>    6.9770    1.0000 </r>
       <r>    7.3688    1.0000 </r>
       <r>    9.3236    1.0000 </r>
       <r>   10.3250    1.0000 </r>
       <r>   10.3250    1.0000 </r>
       <r>   10.6543    1.0000 </r>
       <r>   10.6543    1.0000 </r>
       <r>   11.6384    0.0000 </r>
       <r>   12.0673    0.0000 </r>
       <r>   12.8514    0.0000 </r>
       <r>   13.6446    0.0000 </r>
       <r>   13.6446    0.0000 </r>
       <r>   13.6887    0.0000 </r>
       <r>   13.6887    0.0000 </r>
       <r>   15.1057    0.0000 </r>
       <r>   15.1058    0.0000 </r>
       <r>   16.4333    0.0000 </r>
      </set>
      <set comment="kpoint 22">
       <r>  -51.3408    1.0000 </r>
       <r>  -51.3380    1.0000 </r>
       <r>  -24.8411    1.0000 </r>
       <r>  -24.8408    1.0000 </r>
       <r>  -24.8229    1.0000 </r>
       <r>  -24.8209    1.0000 </r>
       <r>  -24.7752    1.0000 </r>
       <r>  -24.7511    1.0000 </r>
       <r>   -2.4186    1.0000 </r>
       <r>   -0.1095    1.0000 </r>
       <r>    2.5718    1.0000 </r>
       <r>    3.3306    1.0000 </r>
       <r>    3.4746    1.0000 </r>
       <r>    4.4291    1.0000 </r>
       <r>    5.1388    1.0000 </r>
       <r>    5.4616    1.0000 </r>
       <r>    6.3427    1.0000 </r>
       <r>    6.6669    1.0000 </r>
       <r>    6.9243    1.0000 </r>
       <r>    7.3552    1.0000 </r>
       <r>    7.6485    1.0000 </r>
       <r>    9.2808    1.0000 </r>
       <r>   10.3233    1.0000 </r>
       <r>   10.3644    1.0000 </r>
       <r>   10.5336    1.0000 </r>
       <r>   10.6217    1.0000 </r>
       <r>   12.1853    0.0000 </r>
       <r>   12.3840    0.0000 </r>
       <r>   12.8807    0.0000 </r>
       <r>   13.0900    0.0000 </r>
       <r>   13.4930    0.0000 </r>
       <r>   13.7404    0.0000 </r>
       <r>   14.0209    0.0000 </r>
       <r>   15.2302    0.0000 </r>
       <r>   15.3427    0.0000 </r>
       <r>   16.0008    0.0000 </r>
      </set>
      <set comment="kpoint 23">
       <r>  -51.3405    1.0000 </r>
       <r>  -51.3382    1.0000 </r>
       <r>  -24.8431    1.0000 </r>
       <r>  -24.8423    1.0000 </r>
       <r>  -24.8271    1.0000 </r>
       <r>  -24.8201    1.0000 </r>
       <r>  -24.7709    1.0000 </r>
       <r>  -24.7517    1.0000 </r>
       <r>   -2.0526    1.0000 </r>
       <r>    0.1439    1.0000 </r>
       <r>    1.4919    1.0000 </r>
       <r>    2.7134    1.0000 </r>
       <r>    3.1973    1.0000 </r>
       <r>    4.6792    1.0000 </r>
       <r>    5.2911    1.0000 </r>
       <r>    5.7292    1.0000 </r>
       <r>    6.5700    1.0000 </r>
       <r>    6.6467    1.0000 </r>
       <r>    7.0308    1.0000 </r>
       <r>    7.6779    1.0000 </r>
       <r>    8.2474    1.0000 </r>
       <r>    9.0676    1.0000 </r>
       <r>   10.2262    1.0000 </r>
       <r>   10.4898    1.0000 </r>
       <r>   10.5179    1.0000 </r>
       <r>   10.8447    1.0000 </r>
       <r>   12.2484    0.0000 </r>
       <r>   12.3809    0.0000 </r>
       <r>   12.7333    0.0000 </r>
       <r>   13.4931    0.0000 </r>
       <r>   13.5699    0.0000 </r>
       <r>   14.0023    0.0000 </r>
       <r>   14.3695    0.0000 </r>
       <r>   14.7951    0.0000 </r>
       <r>   15.2109    0.0000 </r>
       <r>   16.2160    0.0000 </r>
      </set>
      <set comment="kpoint 24">
       <r>  -51.3401    1.0000 </r>
       <r>  -51.3386    1.0000 </r>
       <r>  -24.8448    1.0000 </r>
       <r>  -24.8437    1.0000 </r>
       <r>  -24.8313    1.0000 </r>
       <r>  -24.8195    1.0000 </r>
       <r>  -24.7660    1.0000 </r>
       <r>  -24.7532    1.0000 </r>
       <r>   -1.4653    1.0000 </r>
       <r>    0.1206    1.0000 </r>
       <r>    0.8776    1.0000 </r>
       <r>    2.1229    1.0000 </r>
       <r>    3.1026    1.0000 </r>
       <r>    4.5761    1.0000 </r>
       <r>    4.8475    1.0000 </r>
       <r>    5.5859    1.0000 </r>
       <r>    6.7327    1.0000 </r>
       <r>    7.0654    1.0000 </r>
       <r>    7.7585    1.0000 </r>
       <r>    7.7996    1.0000 </r>
       <r>    9.0260    1.0000 </r>
       <r>    9.3875    1.0000 </r>
       <r>   10.3644    1.0000 </r>
       <r>   10.3652    1.0000 </r>
       <r>   10.7255    1.0000 </r>
       <r>   11.1261    1.0000 </r>
       <r>   11.8640    0.0000 </r>
       <r>   12.0231    0.0000 </r>
       <r>   12.4915    0.0000 </r>
       <r>   13.2300    0.0000 </r>
       <r>   13.4543    0.0000 </r>
       <r>   13.8581    0.0000 </r>
       <r>   14.5379    0.0000 </r>
       <r>   14.7585    0.0000 </r>
       <r>   15.4710    0.0000 </r>
       <r>   16.0141    0.0000 </r>
      </set>
      <set comment="kpoint 25">
       <r>  -51.3398    1.0000 </r>
       <r>  -51.3388    1.0000 </r>
       <r>  -24.8454    1.0000 </r>
       <r>  -24.8443    1.0000 </r>
       <r>  -24.8331    1.0000 </r>
       <r>  -24.8192    1.0000 </r>
       <r>  -24.7634    1.0000 </r>
       <r>  -24.7545    1.0000 </r>
       <r>   -0.7618    1.0000 </r>
       <r>   -0.6202    1.0000 </r>
       <r>    1.0436    1.0000 </r>
       <r>    1.8097    1.0000 </r>
       <r>    3.0700    1.0000 </r>
       <r>    4.2898    1.0000 </r>
       <r>    4.8944    1.0000 </r>
       <r>    5.4710    1.0000 </r>
       <r>    6.9137    1.0000 </r>
       <r>    7.4590    1.0000 </r>
       <r>    7.5702    1.0000 </r>
       <r>    7.6756    1.0000 </r>
       <r>    9.6495    1.0000 </r>
       <r>   10.2584    1.0000 </r>
       <r>   10.3001    1.0000 </r>
       <r>   10.7493    1.0000 </r>
       <r>   10.7717    1.0000 </r>
       <r>   10.8983    1.0000 </r>
       <r>   11.5424    0.0000 </r>
       <r>   11.6361    0.0000 </r>
       <r>   12.1460    0.0000 </r>
       <r>   12.7954    0.0000 </r>
       <r>   13.4497    0.0000 </r>
       <r>   14.4234    0.0000 </r>
       <r>   14.4506    0.0000 </r>
       <r>   14.4677    0.0000 </r>
       <r>   14.5619    0.0000 </r>
       <r>   16.3563    0.0000 </r>
      </set>
      <set comment="kpoint 26">
       <r>  -51.3406    1.0000 </r>
       <r>  -51.3382    1.0000 </r>
       <r>  -24.8422    1.0000 </r>
       <r>  -24.8422    1.0000 </r>
       <r>  -24.8259    1.0000 </r>
       <r>  -24.8204    1.0000 </r>
       <r>  -24.7722    1.0000 </r>
       <r>  -24.7515    1.0000 </r>
       <r>   -2.1735    1.0000 </r>
       <r>    0.0689    1.0000 </r>
       <r>    1.8607    1.0000 </r>
       <r>    2.5597    1.0000 </r>
       <r>    3.6471    1.0000 </r>
       <r>    4.2591    1.0000 </r>
       <r>    5.8354    1.0000 </r>
       <r>    5.9240    1.0000 </r>
       <r>    6.1976    1.0000 </r>
       <r>    6.2639    1.0000 </r>
       <r>    7.0759    1.0000 </r>
       <r>    7.5090    1.0000 </r>
       <r>    8.1625    1.0000 </r>
       <r>    9.1263    1.0000 </r>
       <r>   10.2054    1.0000 </r>
       <r>   10.3637    1.0000 </r>
       <r>   10.5887    1.0000 </r>
       <r>   10.7084    1.0000 </r>
       <r>   12.4086    0.0000 </r>
       <r>   12.4330    0.0000 </r>
       <r>   13.0124    0.0000 </r>
       <r>   13.0615    0.0000 </r>
       <r>   13.5722    0.0000 </r>
       <r>   13.9596    0.0000 </r>
       <r>   14.1521    0.0000 </r>
       <r>   15.0332    0.0000 </r>
       <r>   15.5096    0.0000 </r>
       <r>   15.7681    0.0000 </r>
      </set>
      <set comment="kpoint 27">
       <r>  -51.3402    1.0000 </r>
       <r>  -51.3385    1.0000 </r>
       <r>  -24.8444    1.0000 </r>
       <r>  -24.8431    1.0000 </r>
       <r>  -24.8302    1.0000 </r>
       <r>  -24.8197    1.0000 </r>
       <r>  -24.7675    1.0000 </r>
       <r>  -24.7527    1.0000 </r>
       <r>   -1.6967    1.0000 </r>
       <r>    0.3020    1.0000 </r>
       <r>    1.0116    1.0000 </r>
       <r>    2.0507    1.0000 </r>
       <r>    3.3201    1.0000 </r>
       <r>    4.2089    1.0000 </r>
       <r>    5.2696    1.0000 </r>
       <r>    6.1946    1.0000 </r>
       <r>    6.3121    1.0000 </r>
       <r>    7.0113    1.0000 </r>
       <r>    7.2100    1.0000 </r>
       <r>    8.1100    1.0000 </r>
       <r>    8.8260    1.0000 </r>
       <r>    9.0793    1.0000 </r>
       <r>   10.0637    1.0000 </r>
       <r>   10.2599    1.0000 </r>
       <r>   10.6752    1.0000 </r>
       <r>   11.0477    1.0000 </r>
       <r>   11.9032    0.0000 </r>
       <r>   12.3809    0.0000 </r>
       <r>   12.9577    0.0000 </r>
       <r>   13.0736    0.0000 </r>
       <r>   13.6387    0.0000 </r>
       <r>   13.8925    0.0000 </r>
       <r>   14.5626    0.0000 </r>
       <r>   15.2253    0.0000 </r>
       <r>   15.2817    0.0000 </r>
       <r>   15.9413    0.0000 </r>
      </set>
      <set comment="kpoint 28">
       <r>  -51.3398    1.0000 </r>
       <r>  -51.3388    1.0000 </r>
       <r>  -24.8460    1.0000 </r>
       <r>  -24.8432    1.0000 </r>
       <r>  -24.8336    1.0000 </r>
       <r>  -24.8193    1.0000 </r>
       <r>  -24.7633    1.0000 </r>
       <r>  -24.7546    1.0000 </r>
       <r>   -1.0200    1.0000 </r>
       <r>   -0.1883    1.0000 </r>
       <r>    0.8433    1.0000 </r>
       <r>    1.8851    1.0000 </r>
       <r>    2.8681    1.0000 </r>
       <r>    4.1462    1.0000 </r>
       <r>    4.9178    1.0000 </r>
       <r>    6.2180    1.0000 </r>
       <r>    6.6554    1.0000 </r>
       <r>    7.2780    1.0000 </r>
       <r>    7.5204    1.0000 </r>
       <r>    8.0209    1.0000 </r>
       <r>    9.2771    1.0000 </r>
       <r>    9.8847    1.0000 </r>
       <r>   10.3317    1.0000 </r>
       <r>   10.3671    1.0000 </r>
       <r>   10.9326    1.0000 </r>
       <r>   11.1022    1.0000 </r>
       <r>   11.4383    0.9900 </r>
       <r>   11.9091    0.0000 </r>
       <r>   12.3741    0.0000 </r>
       <r>   12.9085    0.0000 </r>
       <r>   13.4891    0.0000 </r>
       <r>   13.9738    0.0000 </r>
       <r>   14.3897    0.0000 </r>
       <r>   14.8275    0.0000 </r>
       <r>   15.0729    0.0000 </r>
       <r>   16.1198    0.0000 </r>
      </set>
      <set comment="kpoint 29">
       <r>  -51.3398    1.0000 </r>
       <r>  -51.3388    1.0000 </r>
       <r>  -24.8463    1.0000 </r>
       <r>  -24.8423    1.0000 </r>
       <r>  -24.8341    1.0000 </r>
       <r>  -24.8193    1.0000 </r>
       <r>  -24.7632    1.0000 </r>
       <r>  -24.7546    1.0000 </r>
       <r>   -1.1289    1.0000 </r>
       <r>    0.3308    1.0000 </r>
       <r>    0.4355    1.0000 </r>
       <r>    1.8209    1.0000 </r>
       <r>    3.1042    1.0000 </r>
       <r>    3.4832    1.0000 </r>
       <r>    5.8940    1.0000 </r>
       <r>    5.9140    1.0000 </r>
       <r>    6.8785    1.0000 </r>
       <r>    7.0217    1.0000 </r>
       <r>    7.4409    1.0000 </r>
       <r>    8.3644    1.0000 </r>
       <r>    9.0947    1.0000 </r>
       <r>    9.5814    1.0000 </r>
       <r>    9.9451    1.0000 </r>
       <r>   10.1249    1.0000 </r>
       <r>   10.8489    1.0000 </r>
       <r>   11.3931    1.0000 </r>
       <r>   11.6520    0.0000 </r>
       <r>   12.2309    0.0000 </r>
       <r>   12.6460    0.0000 </r>
       <r>   12.7502    0.0000 </r>
       <r>   13.5053    0.0000 </r>
       <r>   13.6214    0.0000 </r>
       <r>   14.6339    0.0000 </r>
       <r>   15.0171    0.0000 </r>
       <r>   15.3953    0.0000 </r>
       <r>   15.6744    0.0000 </r>
      </set>
      <set comment="kpoint 30">
       <r>  -51.3395    1.0000 </r>
       <r>  -51.3391    1.0000 </r>
       <r>  -24.8472    1.0000 </r>
       <r>  -24.8408    1.0000 </r>
       <r>  -24.8368    1.0000 </r>
       <r>  -24.8192    1.0000 </r>
       <r>  -24.7602    1.0000 </r>
       <r>  -24.7566    1.0000 </r>
       <r>   -0.4675    1.0000 </r>
       <r>   -0.3108    1.0000 </r>
       <r>    0.3328    1.0000 </r>
       <r>    2.0690    1.0000 </r>
       <r>    2.7009    1.0000 </r>
       <r>    3.2645    1.0000 </r>
       <r>    5.8087    1.0000 </r>
       <r>    6.4902    1.0000 </r>
       <r>    6.6531    1.0000 </r>
       <r>    7.1175    1.0000 </r>
       <r>    7.9094    1.0000 </r>
       <r>    8.0981    1.0000 </r>
       <r>    8.9363    1.0000 </r>
       <r>    9.7095    1.0000 </r>
       <r>    9.9417    1.0000 </r>
       <r>   10.6029    1.0000 </r>
       <r>   11.3132    1.0000 </r>
       <r>   11.4024    1.0000 </r>
       <r>   11.6342    0.0000 </r>
       <r>   12.0236    0.0000 </r>
       <r>   12.2446    0.0000 </r>
       <r>   12.3714    0.0000 </r>
       <r>   13.4108    0.0000 </r>
       <r>   13.7304    0.0000 </r>
       <r>   14.2307    0.0000 </r>
       <r>   14.9917    0.0000 </r>
       <r>   15.0814    0.0000 </r>
       <r>   16.2092    0.0000 </r>
      </set>
      <set comment="kpoint 31">
       <r>  -51.3400    1.0000 </r>
       <r>  -51.3389    1.0000 </r>
       <r>  -24.8339    1.0000 </r>
       <r>  -24.8339    1.0000 </r>
       <r>  -24.8272    1.0000 </r>
       <r>  -24.8272    1.0000 </r>
       <r>  -24.7702    1.0000 </r>
       <r>  -24.7609    1.0000 </r>
       <r>   -1.9006    1.0000 </r>
       <r>   -1.0824    1.0000 </r>
       <r>    3.7298    1.0000 </r>
       <r>    3.7298    1.0000 </r>
       <r>    4.0596    1.0000 </r>
       <r>    4.0596    1.0000 </r>
       <r>    4.7181    1.0000 </r>
       <r>    4.7960    1.0000 </r>
       <r>    6.6038    1.0000 </r>
       <r>    6.6038    1.0000 </r>
       <r>    6.6200    1.0000 </r>
       <r>    6.6201    1.0000 </r>
       <r>    7.5317    1.0000 </r>
       <r>    8.1030    1.0000 </r>
       <r>   10.8496    1.0000 </r>
       <r>   10.8496    1.0000 </r>
       <r>   11.0078    1.0000 </r>
       <r>   11.0078    1.0000 </r>
       <r>   11.8362    0.0000 </r>
       <r>   12.1212    0.0000 </r>
       <r>   13.5675    0.0000 </r>
       <r>   13.8730    0.0000 </r>
       <r>   13.8730    0.0000 </r>
       <r>   13.8881    0.0000 </r>
       <r>   13.8882    0.0000 </r>
       <r>   15.5495    0.0000 </r>
       <r>   15.8684    0.0000 </r>
       <r>   15.8687    0.0000 </r>
      </set>
      <set comment="kpoint 32">
       <r>  -51.3399    1.0000 </r>
       <r>  -51.3389    1.0000 </r>
       <r>  -24.8356    1.0000 </r>
       <r>  -24.8343    1.0000 </r>
       <r>  -24.8291    1.0000 </r>
       <r>  -24.8272    1.0000 </r>
       <r>  -24.7685    1.0000 </r>
       <r>  -24.7599    1.0000 </r>
       <r>   -1.7803    1.0000 </r>
       <r>   -0.9687    1.0000 </r>
       <r>    2.9487    1.0000 </r>
       <r>    3.2962    1.0000 </r>
       <r>    3.6796    1.0000 </r>
       <r>    4.0843    1.0000 </r>
       <r>    5.4610    1.0000 </r>
       <r>    5.5418    1.0000 </r>
       <r>    6.2516    1.0000 </r>
       <r>    6.4334    1.0000 </r>
       <r>    6.5734    1.0000 </r>
       <r>    6.8292    1.0000 </r>
       <r>    7.7592    1.0000 </r>
       <r>    8.2356    1.0000 </r>
       <r>   10.8660    1.0000 </r>
       <r>   10.8702    1.0000 </r>
       <r>   10.9575    1.0000 </r>
       <r>   11.0214    1.0000 </r>
       <r>   12.2540    0.0000 </r>
       <r>   12.5113    0.0000 </r>
       <r>   13.3063    0.0000 </r>
       <r>   13.4594    0.0000 </r>
       <r>   13.7440    0.0000 </r>
       <r>   13.9493    0.0000 </r>
       <r>   13.9861    0.0000 </r>
       <r>   15.0985    0.0000 </r>
       <r>   15.8341    0.0000 </r>
       <r>   16.2073    0.0000 </r>
      </set>
      <set comment="kpoint 33">
       <r>  -51.3398    1.0000 </r>
       <r>  -51.3390    1.0000 </r>
       <r>  -24.8393    1.0000 </r>
       <r>  -24.8351    1.0000 </r>
       <r>  -24.8335    1.0000 </r>
       <r>  -24.8271    1.0000 </r>
       <r>  -24.7648    1.0000 </r>
       <r>  -24.7580    1.0000 </r>
       <r>   -1.4265    1.0000 </r>
       <r>   -0.6387    1.0000 </r>
       <r>    1.9017    1.0000 </r>
       <r>    2.3662    1.0000 </r>
       <r>    3.5903    1.0000 </r>
       <r>    4.1095    1.0000 </r>
       <r>    5.1177    1.0000 </r>
       <r>    5.4625    1.0000 </r>
       <r>    6.7337    1.0000 </r>
       <r>    7.0393    1.0000 </r>
       <r>    7.1292    1.0000 </r>
       <r>    7.2410    1.0000 </r>
       <r>    8.1552    1.0000 </r>
       <r>    8.3597    1.0000 </r>
       <r>   10.7658    1.0000 </r>
       <r>   10.9127    1.0000 </r>
       <r>   11.0758    1.0000 </r>
       <r>   11.0770    1.0000 </r>
       <r>   12.5655    0.0000 </r>
       <r>   12.7330    0.0000 </r>
       <r>   13.0630    0.0000 </r>
       <r>   13.1715    0.0000 </r>
       <r>   13.2812    0.0000 </r>
       <r>   13.7507    0.0000 </r>
       <r>   14.7958    0.0000 </r>
       <r>   15.1103    0.0000 </r>
       <r>   15.4984    0.0000 </r>
       <r>   16.0697    0.0000 </r>
      </set>
      <set comment="kpoint 34">
       <r>  -51.3396    1.0000 </r>
       <r>  -51.3391    1.0000 </r>
       <r>  -24.8426    1.0000 </r>
       <r>  -24.8378    1.0000 </r>
       <r>  -24.8358    1.0000 </r>
       <r>  -24.8272    1.0000 </r>
       <r>  -24.7611    1.0000 </r>
       <r>  -24.7566    1.0000 </r>
       <r>   -0.8639    1.0000 </r>
       <r>   -0.1503    1.0000 </r>
       <r>    0.9484    1.0000 </r>
       <r>    1.5073    1.0000 </r>
       <r>    3.5234    1.0000 </r>
       <r>    4.1112    1.0000 </r>
       <r>    4.5474    1.0000 </r>
       <r>    5.0266    1.0000 </r>
       <r>    7.0000    1.0000 </r>
       <r>    7.3683    1.0000 </r>
       <r>    7.7910    1.0000 </r>
       <r>    8.2744    1.0000 </r>
       <r>    8.7275    1.0000 </r>
       <r>    9.0416    1.0000 </r>
       <r>   10.6122    1.0000 </r>
       <r>   11.0081    1.0000 </r>
       <r>   11.0474    1.0000 </r>
       <r>   11.1797    1.0000 </r>
       <r>   12.0427    0.0000 </r>
       <r>   12.3689    0.0000 </r>
       <r>   12.6951    0.0000 </r>
       <r>   12.8107    0.0000 </r>
       <r>   13.0046    0.0000 </r>
       <r>   13.9081    0.0000 </r>
       <r>   14.9460    0.0000 </r>
       <r>   15.0510    0.0000 </r>
       <r>   15.2853    0.0000 </r>
       <r>   15.8092    0.0000 </r>
      </set>
      <set comment="kpoint 35">
       <r>  -51.3395    1.0000 </r>
       <r>  -51.3391    1.0000 </r>
       <r>  -24.8439    1.0000 </r>
       <r>  -24.8395    1.0000 </r>
       <r>  -24.8361    1.0000 </r>
       <r>  -24.8272    1.0000 </r>
       <r>  -24.7595    1.0000 </r>
       <r>  -24.7563    1.0000 </r>
       <r>   -0.2167    1.0000 </r>
       <r>   -0.1251    1.0000 </r>
       <r>    0.6981    1.0000 </r>
       <r>    0.8346    1.0000 </r>
       <r>    3.4997    1.0000 </r>
       <r>    4.1080    1.0000 </r>
       <r>    4.3370    1.0000 </r>
       <r>    4.8601    1.0000 </r>
       <r>    7.1528    1.0000 </r>
       <r>    7.4396    1.0000 </r>
       <r>    8.0822    1.0000 </r>
       <r>    8.1575    1.0000 </r>
       <r>    9.6290    1.0000 </r>
       <r>   10.0178    1.0000 </r>
       <r>   10.4991    1.0000 </r>
       <r>   10.5681    1.0000 </r>
       <r>   11.1204    1.0000 </r>
       <r>   11.2445    1.0000 </r>
       <r>   11.6928    0.0000 </r>
       <r>   12.1303    0.0000 </r>
       <r>   12.1729    0.0000 </r>
       <r>   12.6010    0.0000 </r>
       <r>   12.8414    0.0000 </r>
       <r>   14.1464    0.0000 </r>
       <r>   14.6327    0.0000 </r>
       <r>   14.8590    0.0000 </r>
       <r>   14.8992    0.0000 </r>
       <r>   15.6763    0.0000 </r>
      </set>
      <set comment="kpoint 36">
       <r>  -51.3398    1.0000 </r>
       <r>  -51.3389    1.0000 </r>
       <r>  -24.8380    1.0000 </r>
       <r>  -24.8351    1.0000 </r>
       <r>  -24.8321    1.0000 </r>
       <r>  -24.8272    1.0000 </r>
       <r>  -24.7659    1.0000 </r>
       <r>  -24.7585    1.0000 </r>
       <r>   -1.5432    1.0000 </r>
       <r>   -0.7466    1.0000 </r>
       <r>    2.2672    1.0000 </r>
       <r>    2.5575    1.0000 </r>
       <r>    3.5980    1.0000 </r>
       <r>    3.8683    1.0000 </r>
       <r>    5.8125    1.0000 </r>
       <r>    5.9284    1.0000 </r>
       <r>    6.1708    1.0000 </r>
       <r>    6.1981    1.0000 </r>
       <r>    7.1339    1.0000 </r>
       <r>    7.2351    1.0000 </r>
       <r>    8.0547    1.0000 </r>
       <r>    8.3276    1.0000 </r>
       <r>   10.6773    1.0000 </r>
       <r>   10.8452    1.0000 </r>
       <r>   11.0321    1.0000 </r>
       <r>   11.1608    1.0000 </r>
       <r>   12.7339    0.0000 </r>
       <r>   12.7992    0.0000 </r>
       <r>   12.9334    0.0000 </r>
[...]
       <r>    2.9001    1.0000 </r>
       <r>    3.4021    1.0000 </r>
       <r>    5.1406    1.0000 </r>
       <r>    5.6713    1.0000 </r>
       <r>    6.9450    1.0000 </r>
       <r>    7.2561    1.0000 </r>
       <r>    8.0317    1.0000 </r>
       <r>    8.2324    1.0000 </r>
       <r>    9.4565    1.0000 </r>
       <r>    9.7425    1.0000 </r>
       <r>   10.4252    1.0000 </r>
       <r>   10.5405    1.0000 </r>
       <r>   10.7525    1.0000 </r>
       <r>   11.0531    1.0000 </r>
       <r>   11.6877    0.0000 </r>
       <r>   12.2219    0.0000 </r>
       <r>   12.6627    0.0000 </r>
       <r>   12.8815    0.0000 </r>
       <r>   13.3854    0.0000 </r>
       <r>   14.2768    0.0000 </r>
       <r>   14.3653    0.0000 </r>
       <r>   14.9191    0.0000 </r>
       <r>   15.2687    0.0000 </r>
       <r>   15.5222    0.0000 </r>
      </set>
      <set comment="kpoint 39">
       <r>  -51.3395    1.0000 </r>
       <r>  -51.3391    1.0000 </r>
       <r>  -24.8422    1.0000 </r>
       <r>  -24.8398    1.0000 </r>
       <r>  -24.8370    1.0000 </r>
       <r>  -24.8278    1.0000 </r>
       <r>  -24.7593    1.0000 </r>
       <r>  -24.7563    1.0000 </r>
       <r>   -0.5465    1.0000 </r>
       <r>    0.1017    1.0000 </r>
       <r>    0.9026    1.0000 </r>
       <r>    1.2988    1.0000 </r>
       <r>    2.6254    1.0000 </r>
       <r>    2.8303    1.0000 </r>
       <r>    6.1685    1.0000 </r>
       <r>    6.2406    1.0000 </r>
       <r>    6.5874    1.0000 </r>
       <r>    6.7262    1.0000 </r>
       <r>    8.0219    1.0000 </r>
       <r>    8.2436    1.0000 </r>
       <r>    9.3995    1.0000 </r>
       <r>    9.6102    1.0000 </r>
       <r>   10.0770    1.0000 </r>
       <r>   10.1922    1.0000 </r>
       <r>   10.6206    1.0000 </r>
       <r>   11.2054    1.0000 </r>
       <r>   12.0299    0.0000 </r>
       <r>   12.1624    0.0000 </r>
       <r>   12.9584    0.0000 </r>
       <r>   13.1784    0.0000 </r>
       <r>   13.6846    0.0000 </r>
       <r>   14.0224    0.0000 </r>
       <r>   14.6194    0.0000 </r>
       <r>   14.7912    0.0000 </r>
       <r>   15.3414    0.0000 </r>
       <r>   15.8535    0.0000 </r>
      </set>
      <set comment="kpoint 40">
       <r>  -51.3394    1.0000 </r>
       <r>  -51.3392    1.0000 </r>
       <r>  -24.8424    1.0000 </r>
       <r>  -24.8408    1.0000 </r>
       <r>  -24.8379    1.0000 </r>
       <r>  -24.8280    1.0000 </r>
       <r>  -24.7577    1.0000 </r>
       <r>  -24.7564    1.0000 </r>
       <r>    0.0654    1.0000 </r>
       <r>    0.1250    1.0000 </r>
       <r>    0.5728    1.0000 </r>
       <r>    1.0631    1.0000 </r>
       <r>    2.3055    1.0000 </r>
       <r>    2.5675    1.0000 </r>
       <r>    6.1190    1.0000 </r>
       <r>    6.5561    1.0000 </r>
       <r>    6.7868    1.0000 </r>
       <r>    6.9918    1.0000 </r>
       <r>    8.1470    1.0000 </r>
       <r>    8.1554    1.0000 </r>
       <r>    9.4484    1.0000 </r>
       <r>    9.6144    1.0000 </r>
       <r>   10.1261    1.0000 </r>
       <r>   10.5304    1.0000 </r>
       <r>   10.8423    1.0000 </r>
       <r>   10.8687    1.0000 </r>
       <r>   11.8038    0.0000 </r>
       <r>   12.0178    0.0000 </r>
       <r>   12.6762    0.0000 </r>
       <r>   12.9839    0.0000 </r>
       <r>   13.9864    0.0000 </r>
       <r>   14.1490    0.0000 </r>
       <r>   14.4841    0.0000 </r>
       <r>   14.7016    0.0000 </r>
       <r>   15.4940    0.0000 </r>
       <r>   15.7299    0.0000 </r>
      </set>
     </set>
    </set>
   </array>
  </eigenvalues>
  <separator name="orbital magnetization" >
   <v name="MAGDIPOLOUT">      0.00000000      0.00000000      0.00000000</v>
  </separator>
  <dos>
   <i name="efermi">     11.47121268 </i>
   <total>
    <array>
     <dimension dim="1">gridpoints</dimension>
     <dimension dim="2">spin</dimension>
     <field>energy</field>
     <field>total</field>
     <field>integrated</field>
     <set>
      <set comment="spin 1">
       <r>   -54.7307     0.0000     0.0000 </r>
       <r>   -54.4822     0.0000     0.0000 </r>
       <r>   -54.2336     0.0000     0.0000 </r>
       <r>   -53.9851     0.0000     0.0000 </r>
       <r>   -53.7366     0.0000     0.0000 </r>
       <r>   -53.4881     0.0000     0.0000 </r>
       <r>   -53.2396     0.0000     0.0000 </r>
       <r>   -52.9911     0.0000     0.0000 </r>
       <r>   -52.7426     0.0000     0.0000 </r>
       <r>   -52.4941     0.0000     0.0000 </r>
       <r>   -52.2456     0.0000     0.0000 </r>
       <r>   -51.9971     0.0000     0.0000 </r>
       <r>   -51.7486     0.0000     0.0000 </r>
       <r>   -51.5000     0.0000     0.0000 </r>
       <r>   -51.2515    16.0960     4.0000 </r>
       <r>   -51.0030     0.0000     4.0000 </r>
       <r>   -50.7545     0.0000     4.0000 </r>
       <r>   -50.5060     0.0000     4.0000 </r>
       <r>   -50.2575     0.0000     4.0000 </r>
       <r>   -50.0090     0.0000     4.0000 </r>
       <r>   -49.7605     0.0000     4.0000 </r>
       <r>   -49.5120     0.0000     4.0000 </r>
       <r>   -49.2635     0.0000     4.0000 </r>
       <r>   -49.0150     0.0000     4.0000 </r>
       <r>   -48.7664     0.0000     4.0000 </r>
       <r>   -48.5179     0.0000     4.0000 </r>
       <r>   -48.2694     0.0000     4.0000 </r>
       <r>   -48.0209     0.0000     4.0000 </r>
       <r>   -47.7724     0.0000     4.0000 </r>
       <r>   -47.5239     0.0000     4.0000 </r>
       <r>   -47.2754     0.0000     4.0000 </r>
       <r>   -47.0269     0.0000     4.0000 </r>
       <r>   -46.7784     0.0000     4.0000 </r>
       <r>   -46.5299     0.0000     4.0000 </r>
       <r>   -46.2814     0.0000     4.0000 </r>
       <r>   -46.0328     0.0000     4.0000 </r>
       <r>   -45.7843     0.0000     4.0000 </r>
       <r>   -45.5358     0.0000     4.0000 </r>
       <r>   -45.2873     0.0000     4.0000 </r>
       <r>   -45.0388     0.0000     4.0000 </r>
       <r>   -44.7903     0.0000     4.0000 </r>
       <r>   -44.5418     0.0000     4.0000 </r>
       <r>   -44.2933     0.0000     4.0000 </r>
       <r>   -44.0448     0.0000     4.0000 </r>
       <r>   -43.7963     0.0000     4.0000 </r>
       <r>   -43.5478     0.0000     4.0000 </r>
       <r>   -43.2992     0.0000     4.0000 </r>
       <r>   -43.0507     0.0000     4.0000 </r>
       <r>   -42.8022     0.0000     4.0000 </r>
       <r>   -42.5537     0.0000     4.0000 </r>
       <r>   -42.3052     0.0000     4.0000 </r>
       <r>   -42.0567     0.0000     4.0000 </r>
       <r>   -41.8082     0.0000     4.0000 </r>
       <r>   -41.5597     0.0000     4.0000 </r>
       <r>   -41.3112     0.0000     4.0000 </r>
       <r>   -41.0627     0.0000     4.0000 </r>
       <r>   -40.8142     0.0000     4.0000 </r>
       <r>   -40.5656     0.0000     4.0000 </r>
       <r>   -40.3171     0.0000     4.0000 </r>
       <r>   -40.0686     0.0000     4.0000 </r>
       <r>   -39.8201     0.0000     4.0000 </r>
       <r>   -39.5716     0.0000     4.0000 </r>
       <r>   -39.3231     0.0000     4.0000 </r>
       <r>   -39.0746     0.0000     4.0000 </r>
       <r>   -38.8261     0.0000     4.0000 </r>
       <r>   -38.5776     0.0000     4.0000 </r>
       <r>   -38.3291     0.0000     4.0000 </r>
       <r>   -38.0806     0.0000     4.0000 </r>
       <r>   -37.8320     0.0000     4.0000 </r>
       <r>   -37.5835     0.0000     4.0000 </r>
       <r>   -37.3350     0.0000     4.0000 </r>
       <r>   -37.0865     0.0000     4.0000 </r>
       <r>   -36.8380     0.0000     4.0000 </r>
       <r>   -36.5895     0.0000     4.0000 </r>
       <r>   -36.3410     0.0000     4.0000 </r>
       <r>   -36.0925     0.0000     4.0000 </r>
       <r>   -35.8440     0.0000     4.0000 </r>
       <r>   -35.5955     0.0000     4.0000 </r>
       <r>   -35.3470     0.0000     4.0000 </r>
       <r>   -35.0984     0.0000     4.0000 </r>
       <r>   -34.8499     0.0000     4.0000 </r>
       <r>   -34.6014     0.0000     4.0000 </r>
       <r>   -34.3529     0.0000     4.0000 </r>
       <r>   -34.1044     0.0000     4.0000 </r>
       <r>   -33.8559     0.0000     4.0000 </r>
       <r>   -33.6074     0.0000     4.0000 </r>
       <r>   -33.3589     0.0000     4.0000 </r>
       <r>   -33.1104     0.0000     4.0000 </r>
       <r>   -32.8619     0.0000     4.0000 </r>
       <r>   -32.6133     0.0000     4.0000 </r>
       <r>   -32.3648     0.0000     4.0000 </r>
       <r>   -32.1163     0.0000     4.0000 </r>
       <r>   -31.8678     0.0000     4.0000 </r>
       <r>   -31.6193     0.0000     4.0000 </r>
       <r>   -31.3708     0.0000     4.0000 </r>
       <r>   -31.1223     0.0000     4.0000 </r>
       <r>   -30.8738     0.0000     4.0000 </r>
       <r>   -30.6253     0.0000     4.0000 </r>
       <r>   -30.3768     0.0000     4.0000 </r>
       <r>   -30.1283     0.0000     4.0000 </r>
       <r>   -29.8797     0.0000     4.0000 </r>
       <r>   -29.6312     0.0000     4.0000 </r>
       <r>   -29.3827     0.0000     4.0000 </r>
       <r>   -29.1342     0.0000     4.0000 </r>
       <r>   -28.8857     0.0000     4.0000 </r>
       <r>   -28.6372     0.0000     4.0000 </r>
       <r>   -28.3887     0.0000     4.0000 </r>
       <r>   -28.1402     0.0000     4.0000 </r>
       <r>   -27.8917     0.0000     4.0000 </r>
       <r>   -27.6432     0.0000     4.0000 </r>
       <r>   -27.3947     0.0000     4.0000 </r>
       <r>   -27.1461     0.0000     4.0000 </r>
       <r>   -26.8976     0.0000     4.0000 </r>
       <r>   -26.6491     0.0000     4.0000 </r>
       <r>   -26.4006     0.0000     4.0000 </r>
       <r>   -26.1521     0.0000     4.0000 </r>
       <r>   -25.9036     0.0000     4.0000 </r>
       <r>   -25.6551     0.0000     4.0000 </r>
       <r>   -25.4066     0.0000     4.0000 </r>
       <r>   -25.1581     0.0000     4.0000 </r>
       <r>   -24.9096     0.0001     4.0000 </r>
       <r>   -24.6611    22.6170    16.0000 </r>
       <r>   -24.4125     0.0000    16.0000 </r>
       <r>   -24.1640     0.0000    16.0000 </r>
       <r>   -23.9155     0.0000    16.0000 </r>
       <r>   -23.6670     0.0000    16.0000 </r>
       <r>   -23.4185     0.0000    16.0000 </r>
       <r>   -23.1700     0.0000    16.0000 </r>
       <r>   -22.9215     0.0000    16.0000 </r>
       <r>   -22.6730     0.0000    16.0000 </r>
       <r>   -22.4245     0.0000    16.0000 </r>
       <r>   -22.1760     0.0000    16.0000 </r>
       <r>   -21.9275     0.0000    16.0000 </r>
       <r>   -21.6789     0.0000    16.0000 </r>
       <r>   -21.4304     0.0000    16.0000 </r>
       <r>   -21.1819     0.0000    16.0000 </r>
       <r>   -20.9334     0.0000    16.0000 </r>
       <r>   -20.6849     0.0000    16.0000 </r>
       <r>   -20.4364     0.0000    16.0000 </r>
       <r>   -20.1879     0.0000    16.0000 </r>
       <r>   -19.9394     0.0000    16.0000 </r>
       <r>   -19.6909     0.0000    16.0000 </r>
       <r>   -19.4424     0.0000    16.0000 </r>
       <r>   -19.1939     0.0000    16.0000 </r>
       <r>   -18.9453     0.0000    16.0000 </r>
       <r>   -18.6968     0.0000    16.0000 </r>
       <r>   -18.4483     0.0000    16.0000 </r>
       <r>   -18.1998     0.0000    16.0000 </r>
       <r>   -17.9513     0.0000    16.0000 </r>
       <r>   -17.7028     0.0000    16.0000 </r>
       <r>   -17.4543     0.0000    16.0000 </r>
       <r>   -17.2058     0.0000    16.0000 </r>
       <r>   -16.9573     0.0000    16.0000 </r>
       <r>   -16.7088     0.0000    16.0000 </r>
       <r>   -16.4603     0.0000    16.0000 </r>
       <r>   -16.2117     0.0000    16.0000 </r>
       <r>   -15.9632     0.0000    16.0000 </r>
       <r>   -15.7147     0.0000    16.0000 </r>
       <r>   -15.4662     0.0000    16.0000 </r>
       <r>   -15.2177     0.0000    16.0000 </r>
       <r>   -14.9692     0.0000    16.0000 </r>
       <r>   -14.7207     0.0000    16.0000 </r>
       <r>   -14.4722     0.0000    16.0000 </r>
       <r>   -14.2237     0.0000    16.0000 </r>
       <r>   -13.9752     0.0000    16.0000 </r>
       <r>   -13.7267     0.0000    16.0000 </r>
       <r>   -13.4781     0.0000    16.0000 </r>
       <r>   -13.2296     0.0000    16.0000 </r>
       <r>   -12.9811     0.0000    16.0000 </r>
       <r>   -12.7326     0.0000    16.0000 </r>
       <r>   -12.4841     0.0000    16.0000 </r>
       <r>   -12.2356     0.0000    16.0000 </r>
       <r>   -11.9871     0.0000    16.0000 </r>
       <r>   -11.7386     0.0000    16.0000 </r>
       <r>   -11.4901     0.0000    16.0000 </r>
       <r>   -11.2416     0.0000    16.0000 </r>
       <r>   -10.9931     0.0000    16.0000 </r>
       <r>   -10.7445     0.0000    16.0000 </r>
       <r>   -10.4960     0.0000    16.0000 </r>
       <r>   -10.2475     0.0000    16.0000 </r>
       <r>    -9.9990     0.0000    16.0000 </r>
       <r>    -9.7505     0.0000    16.0000 </r>
       <r>    -9.5020     0.0000    16.0000 </r>
       <r>    -9.2535     0.0000    16.0000 </r>
       <r>    -9.0050     0.0000    16.0000 </r>
       <r>    -8.7565     0.0000    16.0000 </r>
       <r>    -8.5080     0.0000    16.0000 </r>
       <r>    -8.2595     0.0000    16.0000 </r>
       <r>    -8.0109     0.0000    16.0000 </r>
       <r>    -7.7624     0.0000    16.0000 </r>
       <r>    -7.5139     0.0000    16.0000 </r>
       <r>    -7.2654     0.0000    16.0000 </r>
       <r>    -7.0169     0.0000    16.0000 </r>
       <r>    -6.7684     0.0000    16.0000 </r>
       <r>    -6.5199     0.0000    16.0000 </r>
       <r>    -6.2714     0.0000    16.0000 </r>
       <r>    -6.0229     0.0000    16.0000 </r>
       <r>    -5.7744     0.0000    16.0000 </r>
       <r>    -5.5259     0.0000    16.0000 </r>
       <r>    -5.2773     0.0000    16.0000 </r>
       <r>    -5.0288     0.0000    16.0000 </r>
       <r>    -4.7803     0.0000    16.0000 </r>
       <r>    -4.5318     0.0000    16.0000 </r>
       <r>    -4.2833     0.0000    16.0000 </r>
       <r>    -4.0348     0.0000    16.0000 </r>
       <r>    -3.7863     0.0000    16.0000 </r>
       <r>    -3.5378     0.0000    16.0000 </r>
       <r>    -3.2893     0.0000    16.0000 </r>
       <r>    -3.0408     0.0180    16.0045 </r>
       <r>    -2.7923     0.2477    16.0928 </r>
       <r>    -2.5437     0.3356    16.2039 </r>
       <r>    -2.2952     0.4311    16.3170 </r>
       <r>    -2.0467     0.7882    16.5664 </r>
       <r>    -1.7982     0.2735    16.6796 </r>
       <r>    -1.5497     0.6122    16.8798 </r>
       <r>    -1.3012     0.6467    17.2366 </r>
       <r>    -1.0527     0.8429    17.4595 </r>
       <r>    -0.8042     0.5138    17.7750 </r>
       <r>    -0.5557     0.8125    18.0903 </r>
       <r>    -0.3072     0.9701    18.5313 </r>
       <r>    -0.0586     1.3416    18.9182 </r>
       <r>     0.1899     2.4522    19.5782 </r>
       <r>     0.4384     1.6341    19.9909 </r>
       <r>     0.6869     1.2961    20.3444 </r>
       <r>     0.9354     2.1898    21.0263 </r>
       <r>     1.1839     1.2392    21.4865 </r>
       <r>     1.4324     0.9642    21.7262 </r>
       <r>     1.6809     0.2156    21.9152 </r>
       <r>     1.9294     1.6111    22.3155 </r>
       <r>     2.1779     0.8623    22.5313 </r>
       <r>     2.4264     0.8623    22.7723 </r>
       <r>     2.6750     1.3845    23.2235 </r>
       <r>     2.9235     2.1726    23.9685 </r>
       <r>     3.1720     1.0700    24.4713 </r>
       <r>     3.4205     1.7472    25.2824 </r>
       <r>     3.6690     1.7404    25.8879 </r>
       <r>     3.9175     0.7722    26.2276 </r>
       <r>     4.1660     2.3364    26.8217 </r>
       <r>     4.4145     0.8387    27.1459 </r>
       <r>     4.6630     0.7558    27.4825 </r>
       <r>     4.9115     2.1128    28.2170 </r>
       <r>     5.1600     1.5788    28.8031 </r>
       <r>     5.4086     1.3365    29.3857 </r>
       <r>     5.6571     1.3543    29.9125 </r>
       <r>     5.9056     2.2608    30.8074 </r>
       <r>     6.1541     1.0414    31.3883 </r>
       <r>     6.4026     3.1397    32.8115 </r>
       <r>     6.6511     4.4877    34.2581 </r>
       <r>     6.8996     2.1407    35.2463 </r>
       <r>     7.1481     4.5908    36.7212 </r>
       <r>     7.3966     1.7602    37.4240 </r>
       <r>     7.6451     0.9831    37.8291 </r>
       <r>     7.8936     1.8221    38.5644 </r>
       <r>     8.1422     3.1688    39.5241 </r>
       <r>     8.3907     3.3561    40.6242 </r>
       <r>     8.6392     1.3757    41.1588 </r>
       <r>     8.8877     2.1042    41.8220 </r>
       <r>     9.1362     2.0892    42.6174 </r>
       <r>     9.3847     1.1427    42.9982 </r>
       <r>     9.6332     1.9911    43.8430 </r>
       <r>     9.8817     1.8239    44.5158 </r>
       <r>    10.1302     1.9619    45.2376 </r>
       <r>    10.3787     4.0263    46.4872 </r>
       <r>    10.6272     4.2901    47.8920 </r>
       <r>    10.8758     3.2094    49.3199 </r>
       <r>    11.1243     4.7377    50.9229 </r>
       <r>    11.3728     1.2198    51.6201 </r>
       <r>    11.6213     1.1631    52.2756 </r>
       <r>    11.8698     1.2471    53.1626 </r>
       <r>    12.1183     2.5177    54.1301 </r>
       <r>    12.3668     3.0079    55.4305 </r>
       <r>    12.6153     3.4688    56.8442 </r>
       <r>    12.8638     2.3754    57.7064 </r>
       <r>    13.1123     3.9651    59.3425 </r>
       <r>    13.3608     2.1117    60.2391 </r>
       <r>    13.6094     2.9209    61.3062 </r>
       <r>    13.8579     3.0916    62.6433 </r>
       <r>    14.1064     3.7435    64.1312 </r>
       <r>    14.3549     2.5577    65.1579 </r>
       <r>    14.6034     3.1075    66.5044 </r>
       <r>    14.8519     2.3781    67.3053 </r>
       <r>    15.1004     4.1463    68.5215 </r>
       <r>    15.3489     3.1503    69.6043 </r>
       <r>    15.5974     2.0291    70.1962 </r>
       <r>    15.8459     2.4254    70.9867 </r>
       <r>    16.0944     1.7745    71.5660 </r>
       <r>    16.3430     0.7732    71.9421 </r>
       <r>    16.5915     0.0359    72.0000 </r>
       <r>    16.8400     0.0000    72.0000 </r>
       <r>    17.0885     0.0000    72.0000 </r>
       <r>    17.3370     0.0000    72.0000 </r>
       <r>    17.5855     0.0000    72.0000 </r>
       <r>    17.8340     0.0000    72.0000 </r>
       <r>    18.0825     0.0000    72.0000 </r>
       <r>    18.3310     0.0000    72.0000 </r>
       <r>    18.5795     0.0000    72.0000 </r>
       <r>    18.8280     0.0000    72.0000 </r>
       <r>    19.0766     0.0000    72.0000 </r>
       <r>    19.3251     0.0000    72.0000 </r>
       <r>    19.5736     0.0000    72.0000 </r>
       <r>    19.8221     0.0000    72.0000 </r>
      </set>
     </set>
    </array>
   </total>
  </dos>
 </calculation>
 <structure name="finalpos" >
  <crystal>
   <varray name="basis" >
    <v>       2.60514200      -4.51223900       0.00000000 </v>
    <v>       2.60514200       4.51223900       0.00000000 </v>
    <v>       0.00000000       0.00000000       4.84001900 </v>
   </varray>
   <i name="volume">    113.78907255 </i>
   <varray name="rec_basis" >
    <v>       0.19192812      -0.11080973       0.00000000 </v>
    <v>       0.19192812       0.11080973       0.00000000 </v>
    <v>       0.00000000       0.00000000       0.20661076 </v>
   </varray>
  </crystal>
  <varray name="positions" >
   <v>       0.66666700       0.33333300       0.25000000 </v>
   <v>       0.33333300       0.66666700       0.75000000 </v>
   <v>       0.82542100       0.17457900       0.75000000 </v>
   <v>       0.34915800       0.17457900       0.75000000 </v>
   <v>       0.82542100       0.65084200       0.75000000 </v>
   <v>       0.17457900       0.82542100       0.25000000 </v>
   <v>       0.65084200       0.82542100       0.25000000 </v>
   <v>       0.17457900       0.34915800       0.25000000 </v>
  </varray>
 </structure>
</modeling>
