<?xml version="1.0" encoding="ISO-8859-1"?>
<modeling>
 <generator>
  <i name="program" type="string">vasp </i>
  <i name="version" type="string">6.2.0  </i>
  <i name="subversion" type="string">18Jan21 (build Jan 05 2022 15:41:44) complex                          parallel </i>
  <i name="platform" type="string">LinuxIFC </i>
  <i name="date" type="string">2025 05 07 </i>
  <i name="time" type="string">16:52:36 </i>
 </generator>
 <incar>
  <i type="string" name="SYSTEM">routine with relax: pwdword</i>
  <i type="string" name="PREC">Acc</i>
  <i type="int" name="IALGO">    38</i>
  <i type="string" name="ALGO">A</i>
  <i type="logical" name="ADDGRID"> T  </i>
  <i type="int" name="ICHARG">     2</i>
  <i type="int" name="NELM">   100</i>
  <i type="int" name="NELMIN">     6</i>
  <i name="EDIFF">      0.00000000</i>
  <i type="int" name="NSW">     0</i>
  <i type="int" name="ISIF">    -1</i>
  <i name="SYMPREC">      0.00010000</i>
  <i name="ENCUT">    600.00000000</i>
  <i type="logical" name="LREAL"> F  </i>
  <i type="int" name="ISMEAR">     0</i>
  <i name="SIGMA">      0.02000000</i>
  <i type="logical" name="LASPH"> T  </i>
  <i type="string" name="METAGGA">R2SCAN</i>
  <i type="logical" name="LMIXTAU"> F  </i>
 </incar>
 <primitive_cell>
  <structure name="primitive_cell" >
   <crystal>
    <varray name="basis" >
     <v>       5.49266019       0.00000000      -3.15102533 </v>
     <v>      -1.84252579       5.17439993      -3.15102533 </v>
     <v>       0.00000000       0.00000000       6.33232000 </v>
    </varray>
    <i name="volume">    179.97226314 </i>
    <varray name="rec_basis" >
     <v>       0.18206114       0.06482923       0.00000000 </v>
     <v>       0.00000000       0.19325912       0.00000000 </v>
     <v>       0.09059543       0.12842733       0.15792000 </v>
    </varray>
   </crystal>
   <varray name="positions" >
    <v>       0.45571000       0.54724000       0.50000000 </v>
    <v>       0.54429000       0.45276000       0.50000000 </v>
    <v>       0.95276000       0.04429000       0.50000000 </v>
    <v>       0.54724000       0.04724000       0.09153000 </v>
    <v>       0.45276000       0.95276000       0.90847000 </v>
    <v>       0.95571000       0.45571000       0.90847000 </v>
    <v>       0.04724000       0.95571000       0.50000000 </v>
    <v>       0.04429000       0.54429000       0.09153000 </v>
    <v>       0.25075000       0.75075000       0.00150000 </v>
    <v>       0.75000000       0.75000000       1.00000000 </v>
    <v>       0.24925000       0.25075000       0.50000000 </v>
    <v>       0.75075000       0.74925000       0.50000000 </v>
    <v>       0.25000000       0.25000000       1.00000000 </v>
    <v>       0.74925000       0.24925000       0.99850000 </v>
    <v>       0.50000000       0.50000000       0.50000000 </v>
    <v>       0.00000000       0.00000000       0.50000000 </v>
    <v>       0.00000000       0.50000000       1.00000000 </v>
    <v>       0.50000000       0.00000000       0.00000000 </v>
   </varray>
  </structure>
  <varray name="primitive_index" >
   <v type="int" >        1 </v>
   <v type="int" >        2 </v>
   <v type="int" >        3 </v>
   <v type="int" >        4 </v>
   <v type="int" >        5 </v>
   <v type="int" >        6 </v>
   <v type="int" >        7 </v>
   <v type="int" >        8 </v>
   <v type="int" >        9 </v>
   <v type="int" >       10 </v>
   <v type="int" >       11 </v>
   <v type="int" >       12 </v>
   <v type="int" >       13 </v>
   <v type="int" >       14 </v>
   <v type="int" >       15 </v>
   <v type="int" >       16 </v>
   <v type="int" >       17 </v>
   <v type="int" >       18 </v>
  </varray>
 </primitive_cell>
 <kpoints>
  <generation param="Gamma">
   <v type="int" name="divisions">       7        7        8 </v>
   <v name="usershift">      0.00000000       0.00000000       0.00000000 </v>
   <v name="genvec1">      0.14285714       0.00000000       0.00000000 </v>
   <v name="genvec2">      0.00000000       0.14285714       0.00000000 </v>
   <v name="genvec3">      0.00000000      -0.00000000       0.12500000 </v>
   <v name="shift">      0.00000000       0.00000000       0.00000000 </v>
  </generation>
  <varray name="kpointlist" >
   <v>       0.00000000       0.00000000       0.00000000 </v>
   <v>       0.14285714      -0.00000000       0.00000000 </v>
   <v>       0.28571429      -0.00000000       0.00000000 </v>
   <v>       0.42857143      -0.00000000       0.00000000 </v>
   <v>       0.14285714       0.14285714       0.00000000 </v>
   <v>       0.28571429       0.14285714       0.00000000 </v>
   <v>       0.42857143       0.14285714       0.00000000 </v>
   <v>      -0.42857143       0.14285714       0.00000000 </v>
   <v>      -0.28571429       0.14285714       0.00000000 </v>
   <v>      -0.14285714       0.14285714       0.00000000 </v>
   <v>       0.28571429       0.28571429       0.00000000 </v>
   <v>       0.42857143       0.28571429       0.00000000 </v>
   <v>      -0.42857143       0.28571429       0.00000000 </v>
   <v>      -0.28571429       0.28571429       0.00000000 </v>
   <v>       0.42857143       0.42857143       0.00000000 </v>
   <v>      -0.42857143       0.42857143       0.00000000 </v>
   <v>       0.00000000      -0.00000000       0.12500000 </v>
   <v>       0.14285714      -0.00000000       0.12500000 </v>
   <v>       0.28571429       0.00000000       0.12500000 </v>
   <v>       0.42857143      -0.00000000       0.12500000 </v>
   <v>      -0.42857143       0.00000000       0.12500000 </v>
   <v>      -0.28571429      -0.00000000       0.12500000 </v>
   <v>      -0.14285714      -0.00000000       0.12500000 </v>
   <v>       0.14285714       0.14285714       0.12500000 </v>
   <v>       0.28571429       0.14285714       0.12500000 </v>
   <v>       0.42857143       0.14285714       0.12500000 </v>
   <v>      -0.42857143       0.14285714       0.12500000 </v>
   <v>      -0.28571429       0.14285714       0.12500000 </v>
   <v>      -0.14285714       0.14285714       0.12500000 </v>
   <v>       0.28571429       0.28571429       0.12500000 </v>
   <v>       0.42857143       0.28571429       0.12500000 </v>
   <v>      -0.42857143       0.28571429       0.12500000 </v>
   <v>      -0.28571429       0.28571429       0.12500000 </v>
   <v>      -0.14285714       0.28571429       0.12500000 </v>
   <v>       0.42857143       0.42857143       0.12500000 </v>
   <v>      -0.42857143       0.42857143       0.12500000 </v>
   <v>      -0.28571429       0.42857143       0.12500000 </v>
   <v>      -0.14285714       0.42857143       0.12500000 </v>
   <v>      -0.42857143      -0.42857143       0.12500000 </v>
   <v>      -0.28571429      -0.42857143       0.12500000 </v>
   <v>      -0.14285714      -0.42857143       0.12500000 </v>
   <v>      -0.28571429      -0.28571429       0.12500000 </v>
   <v>      -0.14285714      -0.28571429       0.12500000 </v>
   <v>      -0.14285714      -0.14285714       0.12500000 </v>
   <v>       0.00000000      -0.00000000       0.25000000 </v>
   <v>       0.14285714       0.00000000       0.25000000 </v>
   <v>       0.28571429      -0.00000000       0.25000000 </v>
   <v>       0.42857143      -0.00000000       0.25000000 </v>
   <v>      -0.42857143      -0.00000000       0.25000000 </v>
   <v>      -0.28571429      -0.00000000       0.25000000 </v>
   <v>      -0.14285714      -0.00000000       0.25000000 </v>
   <v>       0.14285714       0.14285714       0.25000000 </v>
   <v>       0.28571429       0.14285714       0.25000000 </v>
   <v>       0.42857143       0.14285714       0.25000000 </v>
   <v>      -0.42857143       0.14285714       0.25000000 </v>
   <v>      -0.28571429       0.14285714       0.25000000 </v>
   <v>      -0.14285714       0.14285714       0.25000000 </v>
   <v>       0.28571429       0.28571429       0.25000000 </v>
   <v>       0.42857143       0.28571429       0.25000000 </v>
   <v>      -0.42857143       0.28571429       0.25000000 </v>
   <v>      -0.28571429       0.28571429       0.25000000 </v>
   <v>      -0.14285714       0.28571429       0.25000000 </v>
   <v>       0.42857143       0.42857143       0.25000000 </v>
   <v>      -0.42857143       0.42857143       0.25000000 </v>
   <v>      -0.28571429       0.42857143       0.25000000 </v>
   <v>      -0.14285714       0.42857143       0.25000000 </v>
   <v>      -0.42857143      -0.42857143       0.25000000 </v>
   <v>      -0.28571429      -0.42857143       0.25000000 </v>
   <v>      -0.14285714      -0.42857143       0.25000000 </v>
   <v>      -0.28571429      -0.28571429       0.25000000 </v>
   <v>      -0.14285714      -0.28571429       0.25000000 </v>
   <v>      -0.14285714      -0.14285714       0.25000000 </v>
   <v>      -0.00000000      -0.00000000       0.37500000 </v>
   <v>       0.14285714      -0.00000000       0.37500000 </v>
   <v>       0.28571429      -0.00000000       0.37500000 </v>
   <v>       0.42857143      -0.00000000       0.37500000 </v>
   <v>      -0.42857143      -0.00000000       0.37500000 </v>
   <v>      -0.28571429      -0.00000000       0.37500000 </v>
   <v>      -0.14285714      -0.00000000       0.37500000 </v>
   <v>       0.14285714       0.14285714       0.37500000 </v>
   <v>       0.28571429       0.14285714       0.37500000 </v>
   <v>       0.42857143       0.14285714       0.37500000 </v>
   <v>      -0.42857143       0.14285714       0.37500000 </v>
   <v>      -0.28571429       0.14285714       0.37500000 </v>
   <v>      -0.14285714       0.14285714       0.37500000 </v>
   <v>       0.28571429       0.28571429       0.37500000 </v>
   <v>       0.42857143       0.28571429       0.37500000 </v>
   <v>      -0.42857143       0.28571429       0.37500000 </v>
   <v>      -0.28571429       0.28571429       0.37500000 </v>
   <v>      -0.14285714       0.28571429       0.37500000 </v>
   <v>       0.42857143       0.42857143       0.37500000 </v>
   <v>      -0.42857143       0.42857143       0.37500000 </v>
   <v>      -0.28571429       0.42857143       0.37500000 </v>
   <v>      -0.14285714       0.42857143       0.37500000 </v>
   <v>      -0.42857143      -0.42857143       0.37500000 </v>
   <v>      -0.28571429      -0.42857143       0.37500000 </v>
   <v>      -0.14285714      -0.42857143       0.37500000 </v>
   <v>      -0.28571429      -0.28571429       0.37500000 </v>
   <v>      -0.14285714      -0.28571429       0.37500000 </v>
   <v>      -0.14285714      -0.14285714       0.37500000 </v>
   <v>       0.00000000      -0.00000000       0.50000000 </v>
   <v>       0.14285714      -0.00000000       0.50000000 </v>
   <v>       0.28571429      -0.00000000       0.50000000 </v>
   <v>       0.42857143      -0.00000000       0.50000000 </v>
   <v>       0.14285714       0.14285714       0.50000000 </v>
   <v>       0.28571429       0.14285714       0.50000000 </v>
   <v>       0.42857143       0.14285714       0.50000000 </v>
   <v>      -0.42857143       0.14285714       0.50000000 </v>
   <v>      -0.28571429       0.14285714       0.50000000 </v>
   <v>      -0.14285714       0.14285714       0.50000000 </v>
   <v>       0.28571429       0.28571429       0.50000000 </v>
   <v>       0.42857143       0.28571429       0.50000000 </v>
   <v>      -0.42857143       0.28571429       0.50000000 </v>
   <v>      -0.28571429       0.28571429       0.50000000 </v>
   <v>       0.42857143       0.42857143       0.50000000 </v>
   <v>      -0.42857143       0.42857143       0.50000000 </v>
  </varray>
  <varray name="weights" >
   <v>       0.00255102 </v>
   <v>       0.01020408 </v>
   <v>       0.01020408 </v>
   <v>       0.01020408 </v>
   <v>       0.00510204 </v>
   <v>       0.01020408 </v>
   <v>       0.01020408 </v>
   <v>       0.01020408 </v>
   <v>       0.01020408 </v>
   <v>       0.00510204 </v>
   <v>       0.00510204 </v>
   <v>       0.01020408 </v>
   <v>       0.01020408 </v>
   <v>       0.00510204 </v>
   <v>       0.00510204 </v>
   <v>       0.00510204 </v>
   <v>       0.00510204 </v>
   <v>       0.01020408 </v>
   <v>       0.01020408 </v>
   <v>       0.01020408 </v>
   <v>       0.01020408 </v>
   <v>       0.01020408 </v>
   <v>       0.01020408 </v>
   <v>       0.00510204 </v>
   <v>       0.01020408 </v>
   <v>       0.01020408 </v>
   <v>       0.01020408 </v>
   <v>       0.01020408 </v>
   <v>       0.01020408 </v>
   <v>       0.00510204 </v>
   <v>       0.01020408 </v>
   <v>       0.01020408 </v>
   <v>       0.01020408 </v>
   <v>       0.01020408 </v>
   <v>       0.00510204 </v>
   <v>       0.01020408 </v>
   <v>       0.01020408 </v>
   <v>       0.01020408 </v>
   <v>       0.00510204 </v>
   <v>       0.01020408 </v>
   <v>       0.01020408 </v>
   <v>       0.00510204 </v>
   <v>       0.01020408 </v>
   <v>       0.00510204 </v>
   <v>       0.00510204 </v>
   <v>       0.01020408 </v>
   <v>       0.01020408 </v>
   <v>       0.01020408 </v>
   <v>       0.01020408 </v>
   <v>       0.01020408 </v>
   <v>       0.01020408 </v>
   <v>       0.00510204 </v>
   <v>       0.01020408 </v>
   <v>       0.01020408 </v>
   <v>       0.01020408 </v>
   <v>       0.01020408 </v>
   <v>       0.01020408 </v>
   <v>       0.00510204 </v>
   <v>       0.01020408 </v>
   <v>       0.01020408 </v>
   <v>       0.01020408 </v>
   <v>       0.01020408 </v>
   <v>       0.00510204 </v>
   <v>       0.01020408 </v>
   <v>       0.01020408 </v>
   <v>       0.01020408 </v>
   <v>       0.00510204 </v>
   <v>       0.01020408 </v>
   <v>       0.01020408 </v>
   <v>       0.00510204 </v>
   <v>       0.01020408 </v>
   <v>       0.00510204 </v>
   <v>       0.00510204 </v>
   <v>       0.01020408 </v>
   <v>       0.01020408 </v>
   <v>       0.01020408 </v>
   <v>       0.01020408 </v>
   <v>       0.01020408 </v>
   <v>       0.01020408 </v>
   <v>       0.00510204 </v>
   <v>       0.01020408 </v>
   <v>       0.01020408 </v>
   <v>       0.01020408 </v>
   <v>       0.01020408 </v>
   <v>       0.01020408 </v>
   <v>       0.00510204 </v>
   <v>       0.01020408 </v>
   <v>       0.01020408 </v>
   <v>       0.01020408 </v>
   <v>       0.01020408 </v>
   <v>       0.00510204 </v>
   <v>       0.01020408 </v>
   <v>       0.01020408 </v>
   <v>       0.01020408 </v>
   <v>       0.00510204 </v>
   <v>       0.01020408 </v>
   <v>       0.01020408 </v>
   <v>       0.00510204 </v>
   <v>       0.01020408 </v>
   <v>       0.00510204 </v>
   <v>       0.00255102 </v>
   <v>       0.01020408 </v>
   <v>       0.01020408 </v>
   <v>       0.01020408 </v>
   <v>       0.00510204 </v>
   <v>       0.01020408 </v>
   <v>       0.01020408 </v>
   <v>       0.01020408 </v>
   <v>       0.01020408 </v>
   <v>       0.00510204 </v>
   <v>       0.00510204 </v>
   <v>       0.01020408 </v>
   <v>       0.01020408 </v>
   <v>       0.00510204 </v>
   <v>       0.00510204 </v>
   <v>       0.00510204 </v>
  </varray>
 </kpoints>
 <parameters>
  <separator name="general" >
   <i type="string" name="SYSTEM">routine with relax: pwdword</i>
   <i type="logical" name="LCOMPAT"> F  </i>
  </separator>
  <separator name="electronic" >
   <i type="string" name="PREC">acc</i>
   <i name="ENMAX">    600.00000000</i>
   <i name="ENAUG">    535.51400000</i>
   <i name="EDIFF">      0.00000000</i>
   <i type="int" name="IALGO">    58</i>
   <i type="int" name="IWAVPR">    10</i>
   <i type="int" name="NBANDS">    78</i>
   <i type="int" name="NBANDSLOW">    -1</i>
   <i type="int" name="NBANDSHIGH">    -1</i>
   <i name="NELECT">    124.00000000</i>
   <i type="int" name="TURBO">     0</i>
   <i type="int" name="IRESTART">     0</i>
   <i type="int" name="NREBOOT">     0</i>
   <i type="int" name="NMIN">     0</i>
   <i name="EREF">      0.00000000</i>
   <separator name="electronic smearing" >
    <i type="int" name="ISMEAR">     0</i>
    <i name="SIGMA">      0.02000000</i>
    <i name="KSPACING">      0.50000000</i>
    <i type="logical" name="KGAMMA"> T  </i>
    <i type="logical" name="KBLOWUP"> F  </i>
   </separator>
   <separator name="electronic projectors" >
    <i type="logical" name="LREAL"> F  </i>
    <v name="ROPT">      0.00000000      0.00000000      0.00000000</v>
    <i type="int" name="LMAXPAW">  -100</i>
    <i type="int" name="LMAXMIX">     2</i>
    <i type="logical" name="NLSPLINE"> F  </i>
   </separator>
   <separator name="electronic startup" >
    <i type="int" name="ISTART">     0</i>
    <i type="int" name="ICHARG">     2</i>
    <i type="int" name="INIWAV">     1</i>
   </separator>
   <separator name="electronic spin" >
    <i type="int" name="ISPIN">     1</i>
    <i type="logical" name="LNONCOLLINEAR"> F  </i>
    <v name="MAGMOM">      1.00000000      1.00000000      1.00000000      1.00000000      1.00000000      1.00000000      1.00000000      1.00000000      1.00000000      1.00000000      1.00000000      1.00000000      1.00000000      1.00000000      1.00000000      1.00000000      1.00000000      1.00000000</v>
    <i name="NUPDOWN">     -1.00000000</i>
    <i type="logical" name="LSORBIT"> F  </i>
    <v name="SAXIS">      0.00000000      0.00000000      1.00000000</v>
    <i type="logical" name="LSPIRAL"> F  </i>
    <v name="QSPIRAL">      0.00000000      0.00000000      0.00000000</v>
    <i type="logical" name="LZEROZ"> F  </i>
   </separator>
   <separator name="electronic exchange-correlation" >
    <i type="logical" name="LASPH"> T  </i>
    <i type="logical" name="LMETAGGA"> F  </i>
   </separator>
   <separator name="electronic convergence" >
    <i type="int" name="NELM">   100</i>
    <i type="int" name="NELMDL">    -5</i>
    <i type="int" name="NELMIN">     6</i>
    <i name="ENINI">    600.00000000</i>
    <separator name="electronic convergence detail" >
     <i type="logical" name="LDIAG"> T  </i>
     <i type="logical" name="LSUBROT"> F  </i>
     <i name="WEIMIN">      0.00000000</i>
     <i name="EBREAK">      0.00000000</i>
     <i name="DEPER">      0.30000000</i>
     <i type="int" name="NRMM">     4</i>
     <i name="TIME">      0.40000000</i>
    </separator>
   </separator>
   <separator name="electronic mixer" >
    <i name="AMIX">      0.40000000</i>
    <i name="BMIX">      1.00000000</i>
    <i name="AMIN">      0.10000000</i>
    <i name="AMIX_MAG">      1.60000000</i>
    <i name="BMIX_MAG">      1.00000000</i>
    <separator name="electronic mixer details" >
     <i type="int" name="IMIX">     4</i>
     <i type="logical" name="MIXFIRST"> F  </i>
     <i type="int" name="MAXMIX">   -45</i>
     <i name="WC">    100.00000000</i>
     <i type="int" name="INIMIX">     1</i>
     <i type="int" name="MIXPRE">     1</i>
     <i type="int" name="MREMOVE">     5</i>
    </separator>
   </separator>
   <separator name="electronic dipolcorrection" >
    <i type="logical" name="LDIPOL"> F  </i>
    <i type="logical" name="LMONO"> F  </i>
    <i type="int" name="IDIPOL">     0</i>
    <i name="EPSILON">      1.00000000</i>
    <v name="DIPOL">   -100.00000000   -100.00000000   -100.00000000</v>
    <i name="EFIELD">      0.00000000</i>
   </separator>
  </separator>
  <separator name="grids" >
   <i type="int" name="NGX">    54</i>
   <i type="int" name="NGY">    54</i>
   <i type="int" name="NGZ">    54</i>
   <i type="int" name="NGXF">   108</i>
   <i type="int" name="NGYF">   108</i>
   <i type="int" name="NGZF">   108</i>
   <i type="logical" name="ADDGRID"> T  </i>
  </separator>
  <separator name="ionic" >
   <i type="int" name="NSW">     0</i>
   <i type="int" name="IBRION">    -1</i>
   <i type="int" name="MDALGO">     0</i>
   <i type="int" name="ISIF">    -1</i>
   <i name="PSTRESS">      0.00000000</i>
   <i name="EDIFFG">      0.00000001</i>
   <i type="int" name="NFREE">     0</i>
   <i name="POTIM">      0.50000000</i>
   <i name="SMASS">     -3.00000000</i>
   <i name="SCALEE">      1.00000000</i>
  </separator>
  <separator name="ionic md" >
   <i name="TEBEG">      0.00010000</i>
   <i name="TEEND">      0.00010000</i>
   <i type="int" name="NBLOCK">     1</i>
   <i type="int" name="KBLOCK">     1</i>
   <i type="int" name="NPACO">   256</i>
   <i name="APACO">     16.00000000</i>
  </separator>
  <separator name="symmetry" >
   <i type="int" name="ISYM">     2</i>
   <i name="SYMPREC">      0.00010000</i>
  </separator>
  <separator name="dos" >
   <i type="int" name="LORBIT">     0</i>
   <v name="RWIGS">     -1.00000000     -1.00000000     -1.00000000</v>
   <i type="int" name="NEDOS">   301</i>
   <i name="EMIN">     10.00000000</i>
   <i name="EMAX">    -10.00000000</i>
   <i name="EFERMI">      0.00000000</i>
  </separator>
  <separator name="writing" >
   <i type="int" name="NWRITE">     2</i>
   <i type="logical" name="LWAVE"> T  </i>
   <i type="logical" name="LDOWNSAMPLE"> F  </i>
   <i type="logical" name="LCHARG"> T  </i>
   <i type="logical" name="LPARD"> F  </i>
   <i type="logical" name="LVTOT"> F  </i>
   <i type="logical" name="LVHAR"> F  </i>
   <i type="logical" name="LELF"> F  </i>
   <i type="logical" name="LOPTICS"> F  </i>
   <v name="STM">      0.00000000      0.00000000      0.00000000      0.00000000      0.00000000      0.00000000      0.00000000</v>
  </separator>
  <separator name="performance" >
   <i type="int" name="NPAR">     6</i>
   <i type="int" name="NSIM">     4</i>
   <i type="int" name="NBLK">    -1</i>
   <i type="logical" name="LPLANE"> T  </i>
   <i type="logical" name="LSCALAPACK"> T  </i>
   <i type="logical" name="LSCAAWARE"> F  </i>
   <i type="logical" name="LSCALU"> F  </i>
   <i type="logical" name="LASYNC"> F  </i>
   <i type="logical" name="LORBITALREAL"> F  </i>
  </separator>
  <separator name="miscellaneous" >
   <i type="int" name="IDIOT">     3</i>
   <i type="int" name="PHON_NSTRUCT">    -1</i>
   <i type="logical" name="LMUSIC"> F  </i>
   <v name="POMASS">     10.81100000     95.94000000     28.08500000</v>
   <v name="DARWINR">      0.00000000      0.00000000      0.00000000</v>
   <v name="DARWINV">      1.00000000      1.00000000      1.00000000</v>
   <i type="logical" name="LCORR"> T  </i>
  </separator>
  <i type="logical" name="GGA_COMPAT"> T  </i>
  <i type="logical" name="LBERRY"> F  </i>
  <i type="int" name="ICORELEVEL">     0</i>
  <i type="logical" name="LDAU"> F  </i>
  <i type="int" name="I_CONSTRAINED_M">     0</i>
  <separator name="electronic exchange-correlation" >
   <i type="string" name="GGA">--</i>
   <i type="int" name="VOSKOWN">     0</i>
   <i type="logical" name="LHFCALC"> F  </i>
   <i type="string" name="PRECFOCK"></i>
   <i type="logical" name="LSYMGRAD"> F  </i>
   <i type="logical" name="LHFONE"> F  </i>
   <i type="logical" name="LRHFCALC"> F  </i>
   <i type="logical" name="LTHOMAS"> F  </i>
   <i type="logical" name="LMODELHF"> F  </i>
   <i type="logical" name="LFOCKACE"> F  </i>
   <i name="ENCUT4O">     -1.00000000</i>
   <i type="int" name="EXXOEP">     0</i>
   <i type="int" name="FOURORBIT">     0</i>
   <i name="AEXX">      0.00000000</i>
   <i name="HFALPHA">      0.00000000</i>
   <i name="MCALPHA">      0.00000000</i>
   <i name="ALDAX">      1.00000000</i>
   <i name="AGGAX">      1.00000000</i>
   <i name="ALDAC">      1.00000000</i>
   <i name="AGGAC">      1.00000000</i>
   <i type="int" name="NKREDX">     1</i>
   <i type="int" name="NKREDY">     1</i>
   <i type="int" name="NKREDZ">     1</i>
   <i type="logical" name="SHIFTRED"> F  </i>
   <i type="logical" name="ODDONLY"> F  </i>
   <i type="logical" name="EVENONLY"> F  </i>
   <i type="int" name="LMAXFOCK">     0</i>
   <i type="int" name="NMAXFOCKAE">     0</i>
   <i type="logical" name="LFOCKAEDFT"> F  </i>
   <i name="HFSCREEN">      0.00000000</i>
   <i name="HFSCREENC">      0.00000000</i>
   <i type="int" name="NBANDSGWLOW">     0</i>
  </separator>
  <separator name="vdW DFT" >
   <i type="logical" name="LUSE_VDW"> F  </i>
   <i name="Zab_VDW">     -0.84910000</i>
   <i name="PARAM1">      0.12340000</i>
   <i name="PARAM2">      1.00000000</i>
   <i name="PARAM3">      0.00000000</i>
  </separator>
  <separator name="model GW" >
   <i type="int" name="MODEL_GW">     0</i>
   <i name="MODEL_EPS0">      5.99907544</i>
   <i name="MODEL_ALPHA">      1.00000000</i>
  </separator>
  <separator name="linear response parameters" >
   <i type="logical" name="LEPSILON"> F  </i>
   <i type="logical" name="LRPA"> F  </i>
   <i type="logical" name="LNABLA"> F  </i>
   <i type="logical" name="LVEL"> F  </i>
   <i type="int" name="KINTER">     0</i>
   <i name="CSHIFT">      0.10000000</i>
   <i name="OMEGAMAX">     -1.00000000</i>
   <i name="DEG_THRESHOLD">      0.00200000</i>
   <i name="RTIME">     -0.10000000</i>
   <i name="WPLASMAI">      0.00000000</i>
   <v name="DFIELD">      0.00000000      0.00000000      0.00000000</v>
   <v name="WPLASMA">      0.00000000      0.00000000      0.00000000      0.00000000      0.00000000      0.00000000      0.00000000      0.00000000      0.00000000</v>
  </separator>
  <separator name="orbital magnetization" >
   <i type="logical" name="NUCIND"> F  </i>
   <v name="MAGPOS">      0.00000000      0.00000000      0.00000000</v>
   <i type="logical" name="LNICSALL"> T  </i>
   <i type="logical" name="ORBITALMAG"> F  </i>
   <i type="logical" name="LMAGBLOCH"> F  </i>
   <i type="logical" name="LCHIMAG"> F  </i>
   <i type="logical" name="LGAUGE"> T  </i>
   <i type="int" name="MAGATOM">     0</i>
   <v name="MAGDIPOL">      0.00000000      0.00000000      0.00000000</v>
   <v name="AVECCONST">      0.00000000      0.00000000      0.00000000</v>
  </separator>
  <separator name="response functions" >
   <i type="logical" name="LFINITE_TEMPERATURE"> F  </i>
   <i type="logical" name="LADDER"> F  </i>
   <i type="logical" name="LRPAFORCE"> F  </i>
   <i type="logical" name="LFXC"> F  </i>
   <i type="logical" name="LHARTREE"> T  </i>
   <i type="int" name="IBSE">     0</i>
   <v type="int" name="KPOINT">    -1     0     0     0</v>
   <i type="logical" name="LTCTC"> F  </i>
   <i type="logical" name="LTCTE"> F  </i>
   <i type="logical" name="LTETE"> F  </i>
   <i type="logical" name="LTRIPLET"> F  </i>
   <i type="logical" name="LFXCEPS"> F  </i>
   <i type="logical" name="LFXHEG"> F  </i>
   <i type="int" name="NATURALO">     2</i>
   <i type="logical" name="LHOLEGF"> F  </i>
   <i type="logical" name="L2ORDER"> F  </i>
   <i type="logical" name="LDMP1"> F  </i>
   <i type="logical" name="LMP2LT"> F  </i>
   <i type="logical" name="LSMP2LT"> F  </i>
   <i type="logical" name="LGWLF"> F  </i>
   <i name="ENCUTGW">     -2.00000000</i>
   <i name="ENCUTGWSOFT">     -2.00000000</i>
   <i name="ENCUTLF">     -1.00000000</i>
   <i type="logical" name="LESF_SPLINES"> F  </i>
   <i type="int" name="LMAXMP2">    -1</i>
   <i name="SCISSOR">      0.00000000</i>
   <i type="int" name="NOMEGA">     0</i>
   <i type="int" name="NOMEGAR">     0</i>
   <i type="int" name="NBANDSGW">    -1</i>
   <i type="int" name="NBANDSO">    -1</i>
   <i type="int" name="NBANDSV">    -1</i>
   <i type="int" name="NELM">   100</i>
   <i type="int" name="NELMHF">     1</i>
   <i type="int" name="DIM">     3</i>
   <i type="int" name="IESPILON">     4</i>
   <i type="int" name="ANTIRES">     0</i>
   <i name="OMEGAMAX">    -30.00000000</i>
   <i name="OMEGAMIN">    -30.00000000</i>
   <i name="OMEGATL">   -200.00000000</i>
   <i type="int" name="OMEGAGRID">     0</i>
   <i name="CSHIFT">     -0.10000000</i>
   <i type="logical" name="LSELFENERGY"> F  </i>
   <i type="logical" name="LSPECTRAL"> F  </i>
   <i type="logical" name="LSPECTRALGW"> F  </i>
   <i type="logical" name="LSINGLES"> F  </i>
   <i type="logical" name="LFERMIGW"> F  </i>
   <i type="logical" name="ODDONLYGW"> F  </i>
   <i type="logical" name="EVENONLYGW"> F  </i>
   <i type="int" name="NKREDLFX">     1</i>
   <i type="int" name="NKREDLFY">     1</i>
   <i type="int" name="NKREDLFZ">     1</i>
   <i type="int" name="MAXMEM">  2800</i>
   <i type="int" name="TELESCOPE">     0</i>
   <i type="int" name="NTAUPAR">    -1</i>
   <i type="int" name="NOMEGAPAR">    -1</i>
   <i name="DAMP_NEWTON">      0.80000001</i>
   <i name="LAMBDA">      1.00000000</i>
  </separator>
  <separator name="External order field" >
   <i name="OFIELD_KAPPA">      0.00000000</i>
   <v name="OFIELD_K">      0.00000000      0.00000000      0.00000000</v>
   <i name="OFIELD_Q6_NEAR">      0.00000000</i>
   <i name="OFIELD_Q6_FAR">      0.00000000</i>
   <i name="OFIELD_A">      0.00000000</i>
  </separator>
 </parameters>
 <atominfo>
  <atoms>      18 </atoms>
  <types>       3 </types>
  <array name="atoms" >
   <dimension dim="1">ion</dimension>
   <field type="string">element</field>
   <field type="int">atomtype</field>
   <set>
    <rc><c>B </c><c>   1</c></rc>
    <rc><c>B </c><c>   1</c></rc>
    <rc><c>B </c><c>   1</c></rc>
    <rc><c>B </c><c>   1</c></rc>
    <rc><c>B </c><c>   1</c></rc>
    <rc><c>B </c><c>   1</c></rc>
    <rc><c>B </c><c>   1</c></rc>
    <rc><c>B </c><c>   1</c></rc>
    <rc><c>Mo</c><c>   2</c></rc>
    <rc><c>Mo</c><c>   2</c></rc>
    <rc><c>Mo</c><c>   2</c></rc>
    <rc><c>Mo</c><c>   2</c></rc>
    <rc><c>Mo</c><c>   2</c></rc>
    <rc><c>Mo</c><c>   2</c></rc>
    <rc><c>Si</c><c>   3</c></rc>
    <rc><c>Si</c><c>   3</c></rc>
    <rc><c>Si</c><c>   3</c></rc>
    <rc><c>Si</c><c>   3</c></rc>
   </set>
  </array>
  <array name="atomtypes" >
   <dimension dim="1">type</dimension>
   <field type="int">atomspertype</field>
   <field type="string">element</field>
   <field>mass</field>
   <field>valence</field>
   <field type="string">pseudopotential</field>
   <set>
    <rc><c>   8</c><c>B </c><c>     10.81100000</c><c>      3.00000000</c><c>  PAW_PBE B 06Sep2000                   </c></rc>
    <rc><c>   6</c><c>Mo</c><c>     95.94000000</c><c>     14.00000000</c><c>  PAW_PBE Mo_sv 02Feb2006               </c></rc>
    <rc><c>   4</c><c>Si</c><c>     28.08500000</c><c>      4.00000000</c><c>  PAW_PBE Si 05Jan2001                  </c></rc>
   </set>
  </array>
 </atominfo>
 <structure name="initialpos" >
  <crystal>
   <varray name="basis" >
    <v>       5.49266019       0.00000000      -3.15102533 </v>
    <v>      -1.84252579       5.17439993      -3.15102533 </v>
    <v>       0.00000000       0.00000000       6.33232000 </v>
   </varray>
   <i name="volume">    179.97226314 </i>
   <varray name="rec_basis" >
    <v>       0.18206114       0.06482923       0.00000000 </v>
    <v>       0.00000000       0.19325912       0.00000000 </v>
    <v>       0.09059543       0.12842733       0.15792000 </v>
   </varray>
  </crystal>
  <varray name="positions" >
   <v>       0.45571000       0.54724000       0.50000000 </v>
   <v>       0.54429000       0.45276000       0.50000000 </v>
   <v>       0.95276000       0.04429000       0.50000000 </v>
   <v>       0.54724000       0.04724000       0.09153000 </v>
   <v>       0.45276000       0.95276000       0.90847000 </v>
   <v>       0.95571000       0.45571000       0.90847000 </v>
   <v>       0.04724000       0.95571000       0.50000000 </v>
   <v>       0.04429000       0.54429000       0.09153000 </v>
   <v>       0.25075000       0.75075000       0.00150000 </v>
   <v>       0.75000000       0.75000000       0.00000000 </v>
   <v>       0.24925000       0.25075000       0.50000000 </v>
   <v>       0.75075000       0.74925000       0.50000000 </v>
   <v>       0.25000000       0.25000000       0.00000000 </v>
   <v>       0.74925000       0.24925000       0.99850000 </v>
   <v>       0.50000000       0.50000000       0.50000000 </v>
   <v>       0.00000000       0.00000000       0.50000000 </v>
   <v>       0.00000000       0.50000000       0.00000000 </v>
   <v>       0.50000000       0.00000000       0.00000000 </v>
  </varray>
 </structure>
 <calculation>
  <scstep>
   <time name="total">   36.14   36.56</time>
   <energy>
    <i name="alphaZ">    693.76021932 </i>
    <i name="ewald">  -7582.95277693 </i>
    <i name="hartreedc">  -2740.88570593 </i>
    <i name="XCdc">    528.38812298 </i>
    <i name="pawpsdc">   9583.98494199 </i>
    <i name="pawaedc">  -9523.92957983 </i>
    <i name="eentropy">     -0.00112134 </i>
    <i name="bandstr">   -124.38796162 </i>
    <i name="atom">  12155.31816883 </i>
    <i name="e_fr_energy">   2989.29430746 </i>
    <i name="e_wo_entrp">   2989.29542880 </i>
    <i name="e_0_energy">   2989.29486813 </i>
   </energy>
  </scstep>
  <scstep>
   <time name="total">   38.92   39.35</time>
   <energy>
    <i name="e_fr_energy">   1002.43888415 </i>
    <i name="e_wo_entrp">   1002.43990064 </i>
    <i name="e_0_energy">   1002.43939239 </i>
   </energy>
  </scstep>
  <scstep>
   <time name="total">   41.76   42.19</time>
   <energy>
    <i name="e_fr_energy">    854.48202109 </i>
    <i name="e_wo_entrp">    854.48303742 </i>
    <i name="e_0_energy">    854.48252925 </i>
   </energy>
  </scstep>
  <scstep>
   <time name="total">   40.54   40.96</time>
   <energy>
    <i name="e_fr_energy">    850.11921124 </i>
    <i name="e_wo_entrp">    850.12086203 </i>
    <i name="e_0_energy">    850.12003664 </i>
   </energy>
  </scstep>
  <scstep>
   <time name="total">   43.05   43.49</time>
   <energy>
    <i name="e_fr_energy">    850.01650607 </i>
    <i name="e_wo_entrp">    850.01824092 </i>
    <i name="e_0_energy">    850.01737349 </i>
   </energy>
  </scstep>
  <scstep>
   <time name="total">   42.45   42.85</time>
   <energy>
    <i name="e_fr_energy">   3080.90806557 </i>
    <i name="e_wo_entrp">   3080.90996735 </i>
    <i name="e_0_energy">   3080.90901646 </i>
   </energy>
  </scstep>
  <scstep>
   <time name="total">   42.12   42.52</time>
   <energy>
    <i name="e_fr_energy">   1758.74097094 </i>
    <i name="e_wo_entrp">   1758.74266245 </i>
    <i name="e_0_energy">   1758.74181670 </i>
   </energy>
  </scstep>
  <scstep>
   <time name="total">   41.31   41.72</time>
   <energy>
    <i name="e_fr_energy">   1649.64599420 </i>
    <i name="e_wo_entrp">   1649.64734543 </i>
    <i name="e_0_energy">   1649.64666982 </i>
   </energy>
  </scstep>
  <scstep>
   <time name="total">   41.51   41.91</time>
   <energy>
    <i name="e_fr_energy">   1601.16506961 </i>
    <i name="e_wo_entrp">   1601.16630408 </i>
    <i name="e_0_energy">   1601.16568684 </i>
   </energy>
  </scstep>
  <scstep>
   <time name="total">   41.83   42.23</time>
   <energy>
    <i name="e_fr_energy">   1576.01175222 </i>
    <i name="e_wo_entrp">   1576.01305758 </i>
    <i name="e_0_energy">   1576.01240490 </i>
   </energy>
  </scstep>
  <scstep>
   <time name="total">   41.27   41.67</time>
   <energy>
    <i name="e_fr_energy">   1564.03231725 </i>
    <i name="e_wo_entrp">   1564.03376397 </i>
    <i name="e_0_energy">   1564.03304061 </i>
   </energy>
  </scstep>
  <scstep>
   <time name="total">   41.30   41.70</time>
   <energy>
    <i name="e_fr_energy">   1559.36614430 </i>
    <i name="e_wo_entrp">   1559.36813747 </i>
    <i name="e_0_energy">   1559.36714088 </i>
   </energy>
  </scstep>
  <scstep>
   <time name="total">   41.58   41.98</time>
   <energy>
    <i name="e_fr_energy">   1556.13011741 </i>
    <i name="e_wo_entrp">   1556.13226796 </i>
    <i name="e_0_energy">   1556.13119269 </i>
   </energy>
  </scstep>
  <scstep>
   <time name="total">   41.19   41.60</time>
   <energy>
    <i name="e_fr_energy">   1554.33676919 </i>
    <i name="e_wo_entrp">   1554.33814906 </i>
    <i name="e_0_energy">   1554.33745913 </i>
   </energy>
  </scstep>
  <scstep>
   <time name="total">   41.99   42.39</time>
   <energy>
    <i name="e_fr_energy">   1553.44725184 </i>
    <i name="e_wo_entrp">   1553.44884356 </i>
    <i name="e_0_energy">   1553.44804770 </i>
   </energy>
  </scstep>
  <scstep>
   <time name="total">   41.98   42.39</time>
   <energy>
    <i name="e_fr_energy">   1552.89591110 </i>
    <i name="e_wo_entrp">   1552.89754074 </i>
    <i name="e_0_energy">   1552.89672592 </i>
   </energy>
  </scstep>
  <scstep>
   <time name="total">   41.42   41.82</time>
   <energy>
    <i name="e_fr_energy">   1552.64870313 </i>
    <i name="e_wo_entrp">   1552.65051631 </i>
    <i name="e_0_energy">   1552.64960972 </i>
   </energy>
  </scstep>
  <scstep>
   <time name="total">   41.79   42.19</time>
   <energy>
    <i name="e_fr_energy">   1552.47648902 </i>
    <i name="e_wo_entrp">   1552.47859709 </i>
    <i name="e_0_energy">   1552.47754305 </i>
   </energy>
  </scstep>
  <scstep>
   <time name="total">   41.68   42.08</time>
   <energy>
    <i name="e_fr_energy">   1552.34932335 </i>
    <i name="e_wo_entrp">   1552.35167758 </i>
    <i name="e_0_energy">   1552.35050046 </i>
   </energy>
  </scstep>
  <scstep>
   <time name="total">   41.19   41.58</time>
   <energy>
    <i name="e_fr_energy">   1552.27687490 </i>
    <i name="e_wo_entrp">   1552.27980636 </i>
    <i name="e_0_energy">   1552.27834063 </i>
   </energy>
  </scstep>
  <scstep>
   <time name="total">   41.83   42.23</time>
   <energy>
    <i name="e_fr_energy">   1552.22261666 </i>
    <i name="e_wo_entrp">   1552.22602103 </i>
    <i name="e_0_energy">   1552.22431884 </i>
   </energy>
  </scstep>
  <scstep>
   <time name="total">   41.08   41.48</time>
   <energy>
    <i name="e_fr_energy">   1552.18713535 </i>
    <i name="e_wo_entrp">   1552.19047491 </i>
    <i name="e_0_energy">   1552.18880513 </i>
   </energy>
  </scstep>
  <scstep>
   <time name="total">   41.82   42.22</time>
   <energy>
    <i name="e_fr_energy">   1552.15934567 </i>
    <i name="e_wo_entrp">   1552.16270272 </i>
    <i name="e_0_energy">   1552.16102419 </i>
   </energy>
  </scstep>
  <scstep>
   <time name="total">   41.25   41.65</time>
   <energy>
    <i name="e_fr_energy">   1552.14015592 </i>
    <i name="e_wo_entrp">   1552.14363490 </i>
    <i name="e_0_energy">   1552.14189541 </i>
   </energy>
  </scstep>
  <scstep>
   <time name="total">   41.56   41.96</time>
   <energy>
    <i name="e_fr_energy">   1552.12233838 </i>
    <i name="e_wo_entrp">   1552.12584754 </i>
    <i name="e_0_energy">   1552.12409296 </i>
   </energy>
  </scstep>
  <scstep>
   <time name="total">   41.24   41.63</time>
   <energy>
    <i name="e_fr_energy">   1552.10703985 </i>
    <i name="e_wo_entrp">   1552.11019652 </i>
    <i name="e_0_energy">   1552.10861819 </i>
   </energy>
  </scstep>
  <scstep>
   <time name="total">   41.50   41.90</time>
   <energy>
    <i name="e_fr_energy">   1552.09572038 </i>
    <i name="e_wo_entrp">   1552.09877678 </i>
    <i name="e_0_energy">   1552.09724858 </i>
   </energy>
  </scstep>
  <scstep>
   <time name="total">   41.46   41.86</time>
   <energy>
    <i name="e_fr_energy">   1552.08626562 </i>
    <i name="e_wo_entrp">   1552.08928638 </i>
    <i name="e_0_energy">   1552.08777600 </i>
   </energy>
  </scstep>
  <scstep>
   <time name="total">   41.68   42.07</time>
   <energy>
    <i name="e_fr_energy">   1552.07678956 </i>
    <i name="e_wo_entrp">   1552.07973766 </i>
    <i name="e_0_energy">   1552.07826361 </i>
   </energy>
  </scstep>
  <scstep>
   <time name="total">   41.48   41.87</time>
   <energy>
    <i name="e_fr_energy">   1552.06960027 </i>
    <i name="e_wo_entrp">   1552.07219456 </i>
    <i name="e_0_energy">   1552.07089741 </i>
   </energy>
  </scstep>
  <scstep>
   <time name="total">   41.43   41.82</time>
   <energy>
    <i name="e_fr_energy">   1552.06186932 </i>
    <i name="e_wo_entrp">   1552.06430688 </i>
    <i name="e_0_energy">   1552.06308810 </i>
   </energy>
  </scstep>
  <scstep>
   <time name="total">   41.43   41.83</time>
   <energy>
    <i name="e_fr_energy">   1552.05684894 </i>
    <i name="e_wo_entrp">   1552.05943502 </i>
    <i name="e_0_energy">   1552.05814198 </i>
   </energy>
  </scstep>
  <scstep>
   <time name="total">   41.64   42.04</time>
   <energy>
    <i name="e_fr_energy">   1552.05313544 </i>
    <i name="e_wo_entrp">   1552.05563164 </i>
    <i name="e_0_energy">   1552.05438354 </i>
   </energy>
  </scstep>
  <scstep>
   <time name="total">   41.59   41.99</time>
   <energy>
    <i name="e_fr_energy">   1552.04929822 </i>
    <i name="e_wo_entrp">   1552.05176512 </i>
    <i name="e_0_energy">   1552.05053167 </i>
   </energy>
  </scstep>
  <scstep>
   <time name="total">   41.52   41.92</time>
   <energy>
    <i name="e_fr_energy">   1552.04614809 </i>
    <i name="e_wo_entrp">   1552.04872467 </i>
    <i name="e_0_energy">   1552.04743638 </i>
   </energy>
  </scstep>
  <scstep>
   <time name="total">   41.52   41.92</time>
   <energy>
    <i name="e_fr_energy">   1552.04375691 </i>
    <i name="e_wo_entrp">   1552.04641318 </i>
    <i name="e_0_energy">   1552.04508505 </i>
   </energy>
  </scstep>
  <scstep>
   <time name="total">   41.27   41.66</time>
   <energy>
    <i name="e_fr_energy">   1552.04165120 </i>
    <i name="e_wo_entrp">   1552.04430998 </i>
    <i name="e_0_energy">   1552.04298059 </i>
   </energy>
  </scstep>
  <scstep>
   <time name="total">   41.61   42.00</time>
   <energy>
    <i name="e_fr_energy">   1552.03645876 </i>
    <i name="e_wo_entrp">   1552.03913039 </i>
    <i name="e_0_energy">   1552.03779457 </i>
   </energy>
  </scstep>
  <scstep>
   <time name="total">   41.47   41.88</time>
   <energy>
    <i name="e_fr_energy">   1552.03354960 </i>
    <i name="e_wo_entrp">   1552.03624718 </i>
    <i name="e_0_energy">   1552.03489839 </i>
   </energy>
  </scstep>
  <scstep>
   <time name="total">   41.29   41.69</time>
   <energy>
    <i name="e_fr_energy">   1552.03242454 </i>
    <i name="e_wo_entrp">   1552.03514447 </i>
    <i name="e_0_energy">   1552.03378450 </i>
   </energy>
  </scstep>
  <scstep>
   <time name="total">   41.95   42.35</time>
   <energy>
    <i name="e_fr_energy">   1552.03204584 </i>
    <i name="e_wo_entrp">   1552.03476856 </i>
    <i name="e_0_energy">   1552.03340720 </i>
   </energy>
  </scstep>
  <scstep>
   <time name="total">   41.78   42.18</time>
   <energy>
    <i name="e_fr_energy">   1552.03194007 </i>
    <i name="e_wo_entrp">   1552.03466166 </i>
    <i name="e_0_energy">   1552.03330086 </i>
   </energy>
  </scstep>
  <scstep>
   <time name="total">   41.52   41.92</time>
   <energy>
    <i name="e_fr_energy">   1552.03190717 </i>
    <i name="e_wo_entrp">   1552.03462990 </i>
    <i name="e_0_energy">   1552.03326853 </i>
   </energy>
  </scstep>
  <scstep>
   <time name="total">   41.28   41.67</time>
   <energy>
    <i name="e_fr_energy">   1552.03188239 </i>
    <i name="e_wo_entrp">   1552.03460484 </i>
    <i name="e_0_energy">   1552.03324361 </i>
   </energy>
  </scstep>
  <scstep>
   <time name="total">   41.22   41.61</time>
   <energy>
    <i name="e_fr_energy">   1552.03186944 </i>
    <i name="e_wo_entrp">   1552.03459074 </i>
    <i name="e_0_energy">   1552.03323009 </i>
   </energy>
  </scstep>
  <scstep>
   <time name="total">   41.78   42.17</time>
   <energy>
    <i name="e_fr_energy">   1552.03185773 </i>
    <i name="e_wo_entrp">   1552.03457812 </i>
    <i name="e_0_energy">   1552.03321792 </i>
   </energy>
  </scstep>
  <scstep>
   <time name="total">   41.39   41.79</time>
   <energy>
    <i name="e_fr_energy">   1552.03185317 </i>
    <i name="e_wo_entrp">   1552.03457369 </i>
    <i name="e_0_energy">   1552.03321343 </i>
   </energy>
  </scstep>
  <scstep>
   <time name="total">   42.12   42.52</time>
   <energy>
    <i name="e_fr_energy">   1552.03185004 </i>
    <i name="e_wo_entrp">   1552.03457048 </i>
    <i name="e_0_energy">   1552.03321026 </i>
   </energy>
  </scstep>
  <scstep>
   <time name="total">   43.64   44.04</time>
   <energy>
    <i name="e_fr_energy">   1552.03184928 </i>
    <i name="e_wo_entrp">   1552.03456964 </i>
    <i name="e_0_energy">   1552.03320946 </i>
   </energy>
  </scstep>
  <scstep>
   <time name="total">   43.49   43.89</time>
   <energy>
    <i name="e_fr_energy">   1552.03184856 </i>
    <i name="e_wo_entrp">   1552.03456900 </i>
    <i name="e_0_energy">   1552.03320878 </i>
   </energy>
  </scstep>
  <scstep>
   <time name="total">   41.86   42.26</time>
   <energy>
    <i name="e_fr_energy">   1552.03184870 </i>
    <i name="e_wo_entrp">   1552.03456917 </i>
    <i name="e_0_energy">   1552.03320893 </i>
   </energy>
  </scstep>
  <scstep>
   <time name="total">   42.21   42.60</time>
   <energy>
    <i name="e_fr_energy">   1552.03184840 </i>
    <i name="e_wo_entrp">   1552.03456888 </i>
    <i name="e_0_energy">   1552.03320864 </i>
   </energy>
  </scstep>
  <scstep>
   <time name="total">   42.73   43.13</time>
   <energy>
    <i name="e_fr_energy">   1552.03184837 </i>
    <i name="e_wo_entrp">   1552.03456886 </i>
    <i name="e_0_energy">   1552.03320861 </i>
   </energy>
  </scstep>
  <scstep>
   <time name="total">   42.10   42.49</time>
   <energy>
    <i name="e_fr_energy">   1552.03184812 </i>
    <i name="e_wo_entrp">   1552.03456861 </i>
    <i name="e_0_energy">   1552.03320836 </i>
   </energy>
  </scstep>
  <scstep>
   <time name="total">   42.46   42.86</time>
   <energy>
    <i name="e_fr_energy">   1552.03184832 </i>
    <i name="e_wo_entrp">   1552.03456883 </i>
    <i name="e_0_energy">   1552.03320858 </i>
   </energy>
  </scstep>
  <scstep>
   <time name="total">   42.19   42.60</time>
   <energy>
    <i name="e_fr_energy">   1552.03184815 </i>
    <i name="e_wo_entrp">   1552.03456866 </i>
    <i name="e_0_energy">   1552.03320840 </i>
   </energy>
  </scstep>
  <scstep>
   <time name="total">   41.36   41.75</time>
   <energy>
    <i name="e_fr_energy">   1552.03184815 </i>
    <i name="e_wo_entrp">   1552.03456867 </i>
    <i name="e_0_energy">   1552.03320841 </i>
   </energy>
  </scstep>
  <scstep>
