<?xml version="1.0" encoding="ISO-8859-1"?>
<modeling>
 <generator>
  <i name="program" type="string">vasp </i>
  <i name="version" type="string">6.2.0  </i>
  <i name="subversion" type="string">18Jan21 (build Jan 05 2022 15:41:44) complex                          parallel </i>
  <i name="platform" type="string">LinuxIFC </i>
  <i name="date" type="string">2025 05 07 </i>
  <i name="time" type="string">19:40:19 </i>
 </generator>
 <incar>
  <i type="string" name="SYSTEM">routine with relax: pwdword</i>
  <i type="string" name="PREC">Acc</i>
  <i type="int" name="IALGO">    38</i>
  <i type="string" name="ALGO">A</i>
  <i type="logical" name="ADDGRID"> T  </i>
  <i type="int" name="ICHARG">     2</i>
  <i type="int" name="NELM">   100</i>
  <i type="int" name="NELMIN">     6</i>
  <i name="EDIFF">      0.00000000</i>
  <i type="int" name="NSW">     0</i>
  <i type="int" name="ISIF">    -1</i>
  <i name="ENCUT">    600.00000000</i>
  <i type="logical" name="LREAL"> F  </i>
  <i type="int" name="ISMEAR">     0</i>
  <i name="SIGMA">      0.02000000</i>
  <i type="logical" name="LASPH"> T  </i>
  <i type="string" name="METAGGA">R2SCAN</i>
  <i type="logical" name="LMIXTAU"> F  </i>
 </incar>
 <primitive_cell>
  <structure name="primitive_cell" >
   <crystal>
    <varray name="basis" >
     <v>       5.54801693       0.00000000      -3.00368205 </v>
     <v>      -1.96912732       5.18681304      -3.00368205 </v>
     <v>       0.00000000       0.00000000       6.30893000 </v>
    </varray>
    <i name="volume">    181.54909185 </i>
    <varray name="rec_basis" >
     <v>       0.18024458       0.06842825       0.00000000 </v>
     <v>       0.00000000       0.19279662       0.00000000 </v>
     <v>       0.08581446       0.12436918       0.15850548 </v>
    </varray>
   </crystal>
   <varray name="positions" >
    <v>       0.00000000       0.50000000       0.50000000 </v>
    <v>       0.50000000       0.00000000       0.50000000 </v>
    <v>       0.24400000       0.74400000       0.98800000 </v>
    <v>       0.25000000       0.25000000       0.00000000 </v>
    <v>       0.75600000       0.25600000       0.01200000 </v>
    <v>       0.75000000       0.75000000       0.00000000 </v>
    <v>       0.74400000       0.75600000       0.50000000 </v>
    <v>       0.25600000       0.24400000       0.50000000 </v>
    <v>       0.00000000       0.00000000       0.00000000 </v>
    <v>       0.50000000       0.50000000       0.00000000 </v>
   </varray>
  </structure>
  <varray name="primitive_index" >
   <v type="int" >        1 </v>
   <v type="int" >        2 </v>
   <v type="int" >        3 </v>
   <v type="int" >        4 </v>
   <v type="int" >        5 </v>
   <v type="int" >        6 </v>
   <v type="int" >        7 </v>
   <v type="int" >        8 </v>
   <v type="int" >        9 </v>
   <v type="int" >       10 </v>
  </varray>
 </primitive_cell>
 <kpoints>
  <generation param="Gamma">
   <v type="int" name="divisions">       7        7        8 </v>
   <v name="usershift">      0.00000000       0.00000000       0.00000000 </v>
   <v name="genvec1">      0.14285714       0.00000000       0.00000000 </v>
   <v name="genvec2">      0.00000000       0.14285714       0.00000000 </v>
   <v name="genvec3">      0.00000000       0.00000000       0.12500000 </v>
   <v name="shift">      0.00000000       0.00000000       0.00000000 </v>
  </generation>
  <varray name="kpointlist" >
   <v>       0.00000000       0.00000000       0.00000000 </v>
   <v>       0.14285714      -0.00000000       0.00000000 </v>
   <v>       0.28571429      -0.00000000       0.00000000 </v>
   <v>       0.42857143       0.00000000       0.00000000 </v>
   <v>       0.14285714       0.14285714       0.00000000 </v>
   <v>       0.28571429       0.14285714       0.00000000 </v>
   <v>       0.42857143       0.14285714       0.00000000 </v>
   <v>      -0.42857143       0.14285714       0.00000000 </v>
   <v>      -0.28571429       0.14285714       0.00000000 </v>
   <v>      -0.14285714       0.14285714       0.00000000 </v>
   <v>       0.28571429       0.28571429       0.00000000 </v>
   <v>       0.42857143       0.28571429       0.00000000 </v>
   <v>      -0.42857143       0.28571429       0.00000000 </v>
   <v>      -0.28571429       0.28571429       0.00000000 </v>
   <v>       0.42857143       0.42857143       0.00000000 </v>
   <v>      -0.42857143       0.42857143       0.00000000 </v>
   <v>       0.00000000      -0.00000000       0.12500000 </v>
   <v>       0.14285714      -0.00000000       0.12500000 </v>
   <v>       0.28571429      -0.00000000       0.12500000 </v>
   <v>       0.42857143       0.00000000       0.12500000 </v>
   <v>      -0.42857143      -0.00000000       0.12500000 </v>
   <v>      -0.28571429      -0.00000000       0.12500000 </v>
   <v>      -0.14285714       0.00000000       0.12500000 </v>
   <v>       0.14285714       0.14285714       0.12500000 </v>
   <v>       0.28571429       0.14285714       0.12500000 </v>
   <v>       0.42857143       0.14285714       0.12500000 </v>
   <v>      -0.42857143       0.14285714       0.12500000 </v>
   <v>      -0.28571429       0.14285714       0.12500000 </v>
   <v>      -0.14285714       0.14285714       0.12500000 </v>
   <v>       0.28571429       0.28571429       0.12500000 </v>
   <v>       0.42857143       0.28571429       0.12500000 </v>
   <v>      -0.42857143       0.28571429       0.12500000 </v>
   <v>      -0.28571429       0.28571429       0.12500000 </v>
   <v>      -0.14285714       0.28571429       0.12500000 </v>
   <v>       0.42857143       0.42857143       0.12500000 </v>
   <v>      -0.42857143       0.42857143       0.12500000 </v>
   <v>      -0.28571429       0.42857143       0.12500000 </v>
   <v>      -0.14285714       0.42857143       0.12500000 </v>
   <v>      -0.42857143      -0.42857143       0.12500000 </v>
   <v>      -0.28571429      -0.42857143       0.12500000 </v>
   <v>      -0.14285714      -0.42857143       0.12500000 </v>
   <v>      -0.28571429      -0.28571429       0.12500000 </v>
   <v>      -0.14285714      -0.28571429       0.12500000 </v>
   <v>      -0.14285714      -0.14285714       0.12500000 </v>
   <v>       0.00000000      -0.00000000       0.25000000 </v>
   <v>       0.14285714      -0.00000000       0.25000000 </v>
   <v>       0.28571429      -0.00000000       0.25000000 </v>
   <v>       0.42857143       0.00000000       0.25000000 </v>
   <v>      -0.42857143       0.00000000       0.25000000 </v>
   <v>      -0.28571429       0.00000000       0.25000000 </v>
   <v>      -0.14285714       0.00000000       0.25000000 </v>
   <v>       0.14285714       0.14285714       0.25000000 </v>
   <v>       0.28571429       0.14285714       0.25000000 </v>
   <v>       0.42857143       0.14285714       0.25000000 </v>
   <v>      -0.42857143       0.14285714       0.25000000 </v>
   <v>      -0.28571429       0.14285714       0.25000000 </v>
   <v>      -0.14285714       0.14285714       0.25000000 </v>
   <v>       0.28571429       0.28571429       0.25000000 </v>
   <v>       0.42857143       0.28571429       0.25000000 </v>
   <v>      -0.42857143       0.28571429       0.25000000 </v>
   <v>      -0.28571429       0.28571429       0.25000000 </v>
   <v>      -0.14285714       0.28571429       0.25000000 </v>
   <v>       0.42857143       0.42857143       0.25000000 </v>
   <v>      -0.42857143       0.42857143       0.25000000 </v>
   <v>      -0.28571429       0.42857143       0.25000000 </v>
   <v>      -0.14285714       0.42857143       0.25000000 </v>
   <v>      -0.42857143      -0.42857143       0.25000000 </v>
   <v>      -0.28571429      -0.42857143       0.25000000 </v>
   <v>      -0.14285714      -0.42857143       0.25000000 </v>
   <v>      -0.28571429      -0.28571429       0.25000000 </v>
   <v>      -0.14285714      -0.28571429       0.25000000 </v>
   <v>      -0.14285714      -0.14285714       0.25000000 </v>
   <v>       0.00000000       0.00000000       0.37500000 </v>
   <v>       0.14285714       0.00000000       0.37500000 </v>
   <v>       0.28571429       0.00000000       0.37500000 </v>
   <v>       0.42857143      -0.00000000       0.37500000 </v>
   <v>      -0.42857143       0.00000000       0.37500000 </v>
   <v>      -0.28571429       0.00000000       0.37500000 </v>
   <v>      -0.14285714       0.00000000       0.37500000 </v>
   <v>       0.14285714       0.14285714       0.37500000 </v>
   <v>       0.28571429       0.14285714       0.37500000 </v>
   <v>       0.42857143       0.14285714       0.37500000 </v>
   <v>      -0.42857143       0.14285714       0.37500000 </v>
   <v>      -0.28571429       0.14285714       0.37500000 </v>
   <v>      -0.14285714       0.14285714       0.37500000 </v>
   <v>       0.28571429       0.28571429       0.37500000 </v>
   <v>       0.42857143       0.28571429       0.37500000 </v>
   <v>      -0.42857143       0.28571429       0.37500000 </v>
   <v>      -0.28571429       0.28571429       0.37500000 </v>
   <v>      -0.14285714       0.28571429       0.37500000 </v>
   <v>       0.42857143       0.42857143       0.37500000 </v>
   <v>      -0.42857143       0.42857143       0.37500000 </v>
   <v>      -0.28571429       0.42857143       0.37500000 </v>
   <v>      -0.14285714       0.42857143       0.37500000 </v>
   <v>      -0.42857143      -0.42857143       0.37500000 </v>
   <v>      -0.28571429      -0.42857143       0.37500000 </v>
   <v>      -0.14285714      -0.42857143       0.37500000 </v>
   <v>      -0.28571429      -0.28571429       0.37500000 </v>
   <v>      -0.14285714      -0.28571429       0.37500000 </v>
   <v>      -0.14285714      -0.14285714       0.37500000 </v>
   <v>       0.00000000      -0.00000000       0.50000000 </v>
   <v>       0.14285714      -0.00000000       0.50000000 </v>
   <v>       0.28571429      -0.00000000       0.50000000 </v>
   <v>       0.42857143      -0.00000000       0.50000000 </v>
   <v>       0.14285714       0.14285714       0.50000000 </v>
   <v>       0.28571429       0.14285714       0.50000000 </v>
   <v>       0.42857143       0.14285714       0.50000000 </v>
   <v>      -0.42857143       0.14285714       0.50000000 </v>
   <v>      -0.28571429       0.14285714       0.50000000 </v>
   <v>      -0.14285714       0.14285714       0.50000000 </v>
   <v>       0.28571429       0.28571429       0.50000000 </v>
   <v>       0.42857143       0.28571429       0.50000000 </v>
   <v>      -0.42857143       0.28571429       0.50000000 </v>
   <v>      -0.28571429       0.28571429       0.50000000 </v>
   <v>       0.42857143       0.42857143       0.50000000 </v>
   <v>      -0.42857143       0.42857143       0.50000000 </v>
  </varray>
  <varray name="weights" >
   <v>       0.00255102 </v>
   <v>       0.01020408 </v>
   <v>       0.01020408 </v>
   <v>       0.01020408 </v>
   <v>       0.00510204 </v>
   <v>       0.01020408 </v>
   <v>       0.01020408 </v>
   <v>       0.01020408 </v>
   <v>       0.01020408 </v>
   <v>       0.00510204 </v>
   <v>       0.00510204 </v>
   <v>       0.01020408 </v>
   <v>       0.01020408 </v>
   <v>       0.00510204 </v>
   <v>       0.00510204 </v>
   <v>       0.00510204 </v>
   <v>       0.00510204 </v>
   <v>       0.01020408 </v>
   <v>       0.01020408 </v>
   <v>       0.01020408 </v>
   <v>       0.01020408 </v>
   <v>       0.01020408 </v>
   <v>       0.01020408 </v>
   <v>       0.00510204 </v>
   <v>       0.01020408 </v>
   <v>       0.01020408 </v>
   <v>       0.01020408 </v>
   <v>       0.01020408 </v>
   <v>       0.01020408 </v>
   <v>       0.00510204 </v>
   <v>       0.01020408 </v>
   <v>       0.01020408 </v>
   <v>       0.01020408 </v>
   <v>       0.01020408 </v>
   <v>       0.00510204 </v>
   <v>       0.01020408 </v>
   <v>       0.01020408 </v>
   <v>       0.01020408 </v>
   <v>       0.00510204 </v>
   <v>       0.01020408 </v>
   <v>       0.01020408 </v>
   <v>       0.00510204 </v>
   <v>       0.01020408 </v>
   <v>       0.00510204 </v>
   <v>       0.00510204 </v>
   <v>       0.01020408 </v>
   <v>       0.01020408 </v>
   <v>       0.01020408 </v>
   <v>       0.01020408 </v>
   <v>       0.01020408 </v>
   <v>       0.01020408 </v>
   <v>       0.00510204 </v>
   <v>       0.01020408 </v>
   <v>       0.01020408 </v>
   <v>       0.01020408 </v>
   <v>       0.01020408 </v>
   <v>       0.01020408 </v>
   <v>       0.00510204 </v>
   <v>       0.01020408 </v>
   <v>       0.01020408 </v>
   <v>       0.01020408 </v>
   <v>       0.01020408 </v>
   <v>       0.00510204 </v>
   <v>       0.01020408 </v>
   <v>       0.01020408 </v>
   <v>       0.01020408 </v>
   <v>       0.00510204 </v>
   <v>       0.01020408 </v>
   <v>       0.01020408 </v>
   <v>       0.00510204 </v>
   <v>       0.01020408 </v>
   <v>       0.00510204 </v>
   <v>       0.00510204 </v>
   <v>       0.01020408 </v>
   <v>       0.01020408 </v>
   <v>       0.01020408 </v>
   <v>       0.01020408 </v>
   <v>       0.01020408 </v>
   <v>       0.01020408 </v>
   <v>       0.00510204 </v>
   <v>       0.01020408 </v>
   <v>       0.01020408 </v>
   <v>       0.01020408 </v>
   <v>       0.01020408 </v>
   <v>       0.01020408 </v>
   <v>       0.00510204 </v>
   <v>       0.01020408 </v>
   <v>       0.01020408 </v>
   <v>       0.01020408 </v>
   <v>       0.01020408 </v>
   <v>       0.00510204 </v>
   <v>       0.01020408 </v>
   <v>       0.01020408 </v>
   <v>       0.01020408 </v>
   <v>       0.00510204 </v>
   <v>       0.01020408 </v>
   <v>       0.01020408 </v>
   <v>       0.00510204 </v>
   <v>       0.01020408 </v>
   <v>       0.00510204 </v>
   <v>       0.00255102 </v>
   <v>       0.01020408 </v>
   <v>       0.01020408 </v>
   <v>       0.01020408 </v>
   <v>       0.00510204 </v>
   <v>       0.01020408 </v>
   <v>       0.01020408 </v>
   <v>       0.01020408 </v>
   <v>       0.01020408 </v>
   <v>       0.00510204 </v>
   <v>       0.00510204 </v>
   <v>       0.01020408 </v>
   <v>       0.01020408 </v>
   <v>       0.00510204 </v>
   <v>       0.00510204 </v>
   <v>       0.00510204 </v>
  </varray>
 </kpoints>
 <parameters>
  <separator name="general" >
   <i type="string" name="SYSTEM">routine with relax: pwdword</i>
   <i type="logical" name="LCOMPAT"> F  </i>
  </separator>
  <separator name="electronic" >
   <i type="string" name="PREC">acc</i>
   <i name="ENMAX">    600.00000000</i>
   <i name="ENAUG">    535.51400000</i>
   <i name="EDIFF">      0.00000000</i>
   <i type="int" name="IALGO">    58</i>
   <i type="int" name="IWAVPR">    10</i>
   <i type="int" name="NBANDS">    60</i>
   <i type="int" name="NBANDSLOW">    -1</i>
   <i type="int" name="NBANDSHIGH">    -1</i>
   <i name="NELECT">     98.00000000</i>
   <i type="int" name="TURBO">     0</i>
   <i type="int" name="IRESTART">     0</i>
   <i type="int" name="NREBOOT">     0</i>
   <i type="int" name="NMIN">     0</i>
   <i name="EREF">      0.00000000</i>
   <separator name="electronic smearing" >
    <i type="int" name="ISMEAR">     0</i>
    <i name="SIGMA">      0.02000000</i>
    <i name="KSPACING">      0.50000000</i>
    <i type="logical" name="KGAMMA"> T  </i>
    <i type="logical" name="KBLOWUP"> F  </i>
   </separator>
   <separator name="electronic projectors" >
    <i type="logical" name="LREAL"> F  </i>
    <v name="ROPT">      0.00000000      0.00000000      0.00000000</v>
    <i type="int" name="LMAXPAW">  -100</i>
    <i type="int" name="LMAXMIX">     2</i>
    <i type="logical" name="NLSPLINE"> F  </i>
   </separator>
   <separator name="electronic startup" >
    <i type="int" name="ISTART">     0</i>
    <i type="int" name="ICHARG">     2</i>
    <i type="int" name="INIWAV">     1</i>
   </separator>
   <separator name="electronic spin" >
    <i type="int" name="ISPIN">     1</i>
    <i type="logical" name="LNONCOLLINEAR"> F  </i>
    <v name="MAGMOM">      1.00000000      1.00000000      1.00000000      1.00000000      1.00000000      1.00000000      1.00000000      1.00000000      1.00000000      1.00000000</v>
    <i name="NUPDOWN">     -1.00000000</i>
    <i type="logical" name="LSORBIT"> F  </i>
    <v name="SAXIS">      0.00000000      0.00000000      1.00000000</v>
    <i type="logical" name="LSPIRAL"> F  </i>
    <v name="QSPIRAL">      0.00000000      0.00000000      0.00000000</v>
    <i type="logical" name="LZEROZ"> F  </i>
   </separator>
   <separator name="electronic exchange-correlation" >
    <i type="logical" name="LASPH"> T  </i>
    <i type="logical" name="LMETAGGA"> F  </i>
   </separator>
   <separator name="electronic convergence" >
    <i type="int" name="NELM">   100</i>
    <i type="int" name="NELMDL">    -5</i>
    <i type="int" name="NELMIN">     6</i>
    <i name="ENINI">    600.00000000</i>
    <separator name="electronic convergence detail" >
     <i type="logical" name="LDIAG"> T  </i>
     <i type="logical" name="LSUBROT"> F  </i>
     <i name="WEIMIN">      0.00000000</i>
     <i name="EBREAK">      0.00000000</i>
     <i name="DEPER">      0.30000000</i>
     <i type="int" name="NRMM">     4</i>
     <i name="TIME">      0.40000000</i>
    </separator>
   </separator>
   <separator name="electronic mixer" >
    <i name="AMIX">      0.40000000</i>
    <i name="BMIX">      1.00000000</i>
    <i name="AMIN">      0.10000000</i>
    <i name="AMIX_MAG">      1.60000000</i>
    <i name="BMIX_MAG">      1.00000000</i>
    <separator name="electronic mixer details" >
     <i type="int" name="IMIX">     4</i>
     <i type="logical" name="MIXFIRST"> F  </i>
     <i type="int" name="MAXMIX">   -45</i>
     <i name="WC">    100.00000000</i>
     <i type="int" name="INIMIX">     1</i>
     <i type="int" name="MIXPRE">     1</i>
     <i type="int" name="MREMOVE">     5</i>
    </separator>
   </separator>
   <separator name="electronic dipolcorrection" >
    <i type="logical" name="LDIPOL"> F  </i>
    <i type="logical" name="LMONO"> F  </i>
    <i type="int" name="IDIPOL">     0</i>
    <i name="EPSILON">      1.00000000</i>
    <v name="DIPOL">   -100.00000000   -100.00000000   -100.00000000</v>
    <i name="EFIELD">      0.00000000</i>
   </separator>
  </separator>
  <separator name="grids" >
   <i type="int" name="NGX">    50</i>
   <i type="int" name="NGY">    50</i>
   <i type="int" name="NGZ">    50</i>
   <i type="int" name="NGXF">   100</i>
   <i type="int" name="NGYF">   100</i>
   <i type="int" name="NGZF">   100</i>
   <i type="logical" name="ADDGRID"> T  </i>
  </separator>
  <separator name="ionic" >
   <i type="int" name="NSW">     0</i>
   <i type="int" name="IBRION">    -1</i>
   <i type="int" name="MDALGO">     0</i>
   <i type="int" name="ISIF">    -1</i>
   <i name="PSTRESS">      0.00000000</i>
   <i name="EDIFFG">      0.00000001</i>
   <i type="int" name="NFREE">     0</i>
   <i name="POTIM">      0.50000000</i>
   <i name="SMASS">     -3.00000000</i>
   <i name="SCALEE">      1.00000000</i>
  </separator>
  <separator name="ionic md" >
   <i name="TEBEG">      0.00010000</i>
   <i name="TEEND">      0.00010000</i>
   <i type="int" name="NBLOCK">     1</i>
   <i type="int" name="KBLOCK">     1</i>
   <i type="int" name="NPACO">   256</i>
   <i name="APACO">     16.00000000</i>
  </separator>
  <separator name="symmetry" >
   <i type="int" name="ISYM">     2</i>
   <i name="SYMPREC">      0.00001000</i>
  </separator>
  <separator name="dos" >
   <i type="int" name="LORBIT">     0</i>
   <v name="RWIGS">     -1.00000000     -1.00000000     -1.00000000</v>
   <i type="int" name="NEDOS">   301</i>
   <i name="EMIN">     10.00000000</i>
   <i name="EMAX">    -10.00000000</i>
   <i name="EFERMI">      0.00000000</i>
  </separator>
  <separator name="writing" >
   <i type="int" name="NWRITE">     2</i>
   <i type="logical" name="LWAVE"> T  </i>
   <i type="logical" name="LDOWNSAMPLE"> F  </i>
   <i type="logical" name="LCHARG"> T  </i>
   <i type="logical" name="LPARD"> F  </i>
   <i type="logical" name="LVTOT"> F  </i>
   <i type="logical" name="LVHAR"> F  </i>
   <i type="logical" name="LELF"> F  </i>
   <i type="logical" name="LOPTICS"> F  </i>
   <v name="STM">      0.00000000      0.00000000      0.00000000      0.00000000      0.00000000      0.00000000      0.00000000</v>
  </separator>
  <separator name="performance" >
   <i type="int" name="NPAR">     6</i>
   <i type="int" name="NSIM">     4</i>
   <i type="int" name="NBLK">    -1</i>
   <i type="logical" name="LPLANE"> T  </i>
   <i type="logical" name="LSCALAPACK"> T  </i>
   <i type="logical" name="LSCAAWARE"> F  </i>
   <i type="logical" name="LSCALU"> F  </i>
   <i type="logical" name="LASYNC"> F  </i>
   <i type="logical" name="LORBITALREAL"> F  </i>
  </separator>
  <separator name="miscellaneous" >
   <i type="int" name="IDIOT">     3</i>
   <i type="int" name="PHON_NSTRUCT">    -1</i>
   <i type="logical" name="LMUSIC"> F  </i>
   <v name="POMASS">     10.81100000     95.94000000     28.08500000</v>
   <v name="DARWINR">      0.00000000      0.00000000      0.00000000</v>
   <v name="DARWINV">      1.00000000      1.00000000      1.00000000</v>
   <i type="logical" name="LCORR"> T  </i>
  </separator>
  <i type="logical" name="GGA_COMPAT"> T  </i>
  <i type="logical" name="LBERRY"> F  </i>
  <i type="int" name="ICORELEVEL">     0</i>
  <i type="logical" name="LDAU"> F  </i>
  <i type="int" name="I_CONSTRAINED_M">     0</i>
  <separator name="electronic exchange-correlation" >
   <i type="string" name="GGA">--</i>
   <i type="int" name="VOSKOWN">     0</i>
   <i type="logical" name="LHFCALC"> F  </i>
   <i type="string" name="PRECFOCK"></i>
   <i type="logical" name="LSYMGRAD"> F  </i>
   <i type="logical" name="LHFONE"> F  </i>
   <i type="logical" name="LRHFCALC"> F  </i>
   <i type="logical" name="LTHOMAS"> F  </i>
   <i type="logical" name="LMODELHF"> F  </i>
   <i type="logical" name="LFOCKACE"> F  </i>
   <i name="ENCUT4O">     -1.00000000</i>
   <i type="int" name="EXXOEP">     0</i>
   <i type="int" name="FOURORBIT">     0</i>
   <i name="AEXX">      0.00000000</i>
   <i name="HFALPHA">      0.00000000</i>
   <i name="MCALPHA">      0.00000000</i>
   <i name="ALDAX">      1.00000000</i>
   <i name="AGGAX">      1.00000000</i>
   <i name="ALDAC">      1.00000000</i>
   <i name="AGGAC">      1.00000000</i>
   <i type="int" name="NKREDX">     1</i>
   <i type="int" name="NKREDY">     1</i>
   <i type="int" name="NKREDZ">     1</i>
   <i type="logical" name="SHIFTRED"> F  </i>
   <i type="logical" name="ODDONLY"> F  </i>
   <i type="logical" name="EVENONLY"> F  </i>
   <i type="int" name="LMAXFOCK">     0</i>
   <i type="int" name="NMAXFOCKAE">     0</i>
   <i type="logical" name="LFOCKAEDFT"> F  </i>
   <i name="HFSCREEN">      0.00000000</i>
   <i name="HFSCREENC">      0.00000000</i>
   <i type="int" name="NBANDSGWLOW">     0</i>
  </separator>
  <separator name="vdW DFT" >
   <i type="logical" name="LUSE_VDW"> F  </i>
   <i name="Zab_VDW">     -0.84910000</i>
   <i name="PARAM1">      0.12340000</i>
   <i name="PARAM2">      1.00000000</i>
   <i name="PARAM3">      0.00000000</i>
  </separator>
  <separator name="model GW" >
   <i type="int" name="MODEL_GW">     0</i>
   <i name="MODEL_EPS0">     10.89294551</i>
   <i name="MODEL_ALPHA">      1.00000000</i>
  </separator>
  <separator name="linear response parameters" >
   <i type="logical" name="LEPSILON"> F  </i>
   <i type="logical" name="LRPA"> F  </i>
   <i type="logical" name="LNABLA"> F  </i>
   <i type="logical" name="LVEL"> F  </i>
   <i type="int" name="KINTER">     0</i>
   <i name="CSHIFT">      0.10000000</i>
   <i name="OMEGAMAX">     -1.00000000</i>
   <i name="DEG_THRESHOLD">      0.00200000</i>
   <i name="RTIME">     -0.10000000</i>
   <i name="WPLASMAI">      0.00000000</i>
   <v name="DFIELD">      0.00000000      0.00000000      0.00000000</v>
   <v name="WPLASMA">      0.00000000      0.00000000      0.00000000      0.00000000      0.00000000      0.00000000      0.00000000      0.00000000      0.00000000</v>
  </separator>
  <separator name="orbital magnetization" >
   <i type="logical" name="NUCIND"> F  </i>
   <v name="MAGPOS">      0.00000000      0.00000000      0.00000000</v>
   <i type="logical" name="LNICSALL"> T  </i>
   <i type="logical" name="ORBITALMAG"> F  </i>
   <i type="logical" name="LMAGBLOCH"> F  </i>
   <i type="logical" name="LCHIMAG"> F  </i>
   <i type="logical" name="LGAUGE"> T  </i>
   <i type="int" name="MAGATOM">     0</i>
   <v name="MAGDIPOL">      0.00000000      0.00000000      0.00000000</v>
   <v name="AVECCONST">      0.00000000      0.00000000      0.00000000</v>
  </separator>
  <separator name="response functions" >
   <i type="logical" name="LFINITE_TEMPERATURE"> F  </i>
   <i type="logical" name="LADDER"> F  </i>
   <i type="logical" name="LRPAFORCE"> F  </i>
   <i type="logical" name="LFXC"> F  </i>
   <i type="logical" name="LHARTREE"> T  </i>
   <i type="int" name="IBSE">     0</i>
   <v type="int" name="KPOINT">    -1     0     0     0</v>
   <i type="logical" name="LTCTC"> F  </i>
   <i type="logical" name="LTCTE"> F  </i>
   <i type="logical" name="LTETE"> F  </i>
   <i type="logical" name="LTRIPLET"> F  </i>
   <i type="logical" name="LFXCEPS"> F  </i>
   <i type="logical" name="LFXHEG"> F  </i>
   <i type="int" name="NATURALO">     2</i>
   <i type="logical" name="LHOLEGF"> F  </i>
   <i type="logical" name="L2ORDER"> F  </i>
   <i type="logical" name="LDMP1"> F  </i>
   <i type="logical" name="LMP2LT"> F  </i>
   <i type="logical" name="LSMP2LT"> F  </i>
   <i type="logical" name="LGWLF"> F  </i>
   <i name="ENCUTGW">     -2.00000000</i>
   <i name="ENCUTGWSOFT">     -2.00000000</i>
   <i name="ENCUTLF">     -1.00000000</i>
   <i type="logical" name="LESF_SPLINES"> F  </i>
   <i type="int" name="LMAXMP2">    -1</i>
   <i name="SCISSOR">      0.00000000</i>
   <i type="int" name="NOMEGA">     0</i>
   <i type="int" name="NOMEGAR">     0</i>
   <i type="int" name="NBANDSGW">    -1</i>
   <i type="int" name="NBANDSO">    -1</i>
   <i type="int" name="NBANDSV">    -1</i>
   <i type="int" name="NELM">   100</i>
   <i type="int" name="NELMHF">     1</i>
   <i type="int" name="DIM">     3</i>
   <i type="int" name="IESPILON">     4</i>
   <i type="int" name="ANTIRES">     0</i>
   <i name="OMEGAMAX">    -30.00000000</i>
   <i name="OMEGAMIN">    -30.00000000</i>
   <i name="OMEGATL">   -200.00000000</i>
   <i type="int" name="OMEGAGRID">     0</i>
   <i name="CSHIFT">     -0.10000000</i>
   <i type="logical" name="LSELFENERGY"> F  </i>
   <i type="logical" name="LSPECTRAL"> F  </i>
   <i type="logical" name="LSPECTRALGW"> F  </i>
   <i type="logical" name="LSINGLES"> F  </i>
   <i type="logical" name="LFERMIGW"> F  </i>
   <i type="logical" name="ODDONLYGW"> F  </i>
   <i type="logical" name="EVENONLYGW"> F  </i>
   <i type="int" name="NKREDLFX">     1</i>
   <i type="int" name="NKREDLFY">     1</i>
   <i type="int" name="NKREDLFZ">     1</i>
   <i type="int" name="MAXMEM">  2800</i>
   <i type="int" name="TELESCOPE">     0</i>
   <i type="int" name="NTAUPAR">    -1</i>
   <i type="int" name="NOMEGAPAR">    -1</i>
   <i name="DAMP_NEWTON">      0.80000001</i>
   <i name="LAMBDA">      1.00000000</i>
  </separator>
  <separator name="External order field" >
   <i name="OFIELD_KAPPA">      0.00000000</i>
   <v name="OFIELD_K">      0.00000000      0.00000000      0.00000000</v>
   <i name="OFIELD_Q6_NEAR">      0.00000000</i>
   <i name="OFIELD_Q6_FAR">      0.00000000</i>
   <i name="OFIELD_A">      0.00000000</i>
  </separator>
 </parameters>
 <atominfo>
  <atoms>      10 </atoms>
  <types>       3 </types>
  <array name="atoms" >
   <dimension dim="1">ion</dimension>
   <field type="string">element</field>
   <field type="int">atomtype</field>
   <set>
    <rc><c>B </c><c>   1</c></rc>
    <rc><c>B </c><c>   1</c></rc>
    <rc><c>Mo</c><c>   2</c></rc>
    <rc><c>Mo</c><c>   2</c></rc>
    <rc><c>Mo</c><c>   2</c></rc>
    <rc><c>Mo</c><c>   2</c></rc>
    <rc><c>Mo</c><c>   2</c></rc>
    <rc><c>Mo</c><c>   2</c></rc>
    <rc><c>Si</c><c>   3</c></rc>
    <rc><c>Si</c><c>   3</c></rc>
   </set>
  </array>
  <array name="atomtypes" >
   <dimension dim="1">type</dimension>
   <field type="int">atomspertype</field>
   <field type="string">element</field>
   <field>mass</field>
   <field>valence</field>
   <field type="string">pseudopotential</field>
   <set>
    <rc><c>   2</c><c>B </c><c>     10.81100000</c><c>      3.00000000</c><c>  PAW_PBE B 06Sep2000                   </c></rc>
    <rc><c>   6</c><c>Mo</c><c>     95.94000000</c><c>     14.00000000</c><c>  PAW_PBE Mo_sv 02Feb2006               </c></rc>
    <rc><c>   2</c><c>Si</c><c>     28.08500000</c><c>      4.00000000</c><c>  PAW_PBE Si 05Jan2001                  </c></rc>
   </set>
  </array>
 </atominfo>
 <structure name="initialpos" >
  <crystal>
   <varray name="basis" >
    <v>       5.54801693       0.00000000      -3.00368205 </v>
    <v>      -1.96912732       5.18681304      -3.00368205 </v>
    <v>       0.00000000       0.00000000       6.30893000 </v>
   </varray>
   <i name="volume">    181.54909185 </i>
   <varray name="rec_basis" >
    <v>       0.18024458       0.06842825       0.00000000 </v>
    <v>       0.00000000       0.19279662       0.00000000 </v>
    <v>       0.08581446       0.12436918       0.15850548 </v>
   </varray>
  </crystal>
  <varray name="positions" >
   <v>       0.00000000       0.50000000       0.50000000 </v>
   <v>       0.50000000       0.00000000       0.50000000 </v>
   <v>       0.24400000       0.74400000       0.98800000 </v>
   <v>       0.25000000       0.25000000       0.00000000 </v>
   <v>       0.75600000       0.25600000       0.01200000 </v>
   <v>       0.75000000       0.75000000       0.00000000 </v>
   <v>       0.74400000       0.75600000       0.50000000 </v>
   <v>       0.25600000       0.24400000       0.50000000 </v>
   <v>       0.00000000       0.00000000       0.00000000 </v>
   <v>       0.50000000       0.50000000       0.00000000 </v>
  </varray>
 </structure>
 <calculation>
  <scstep>
   <time name="total">   21.28   21.48</time>
   <energy>
    <i name="alphaZ">    460.17550846 </i>
    <i name="ewald">  -8208.89253983 </i>
    <i name="hartreedc">  -3034.42325587 </i>
    <i name="XCdc">    462.73615794 </i>
    <i name="pawpsdc">   9166.97638771 </i>
    <i name="pawaedc">  -9126.13493418 </i>
    <i name="eentropy">     -0.00067910 </i>
    <i name="bandstr">   -187.89916200 </i>
    <i name="atom">  11522.16744521 </i>
    <i name="e_fr_energy">   1054.70492835 </i>
    <i name="e_wo_entrp">   1054.70560745 </i>
    <i name="e_0_energy">   1054.70526790 </i>
   </energy>
  </scstep>
  <scstep>
   <time name="total">   21.64   21.84</time>
   <energy>
    <i name="e_fr_energy">   -167.74402945 </i>
    <i name="e_wo_entrp">   -167.74189657 </i>
    <i name="e_0_energy">   -167.74296301 </i>
   </energy>
  </scstep>
  <scstep>
   <time name="total">   23.39   23.61</time>
   <energy>
    <i name="e_fr_energy">   -217.99937591 </i>
    <i name="e_wo_entrp">   -217.99774424 </i>
    <i name="e_0_energy">   -217.99856007 </i>
   </energy>
  </scstep>
  <scstep>
   <time name="total">   22.89   23.10</time>
   <energy>
    <i name="e_fr_energy">   -219.30875131 </i>
    <i name="e_wo_entrp">   -219.30664682 </i>
    <i name="e_0_energy">   -219.30769907 </i>
   </energy>
  </scstep>
  <scstep>
   <time name="total">   24.89   25.11</time>
   <energy>
    <i name="e_fr_energy">   -219.34734349 </i>
    <i name="e_wo_entrp">   -219.34525728 </i>
    <i name="e_0_energy">   -219.34630039 </i>
   </energy>
  </scstep>
  <scstep>
   <time name="total">   23.72   23.92</time>
   <energy>
    <i name="e_fr_energy">   -156.54709587 </i>
    <i name="e_wo_entrp">   -156.54526902 </i>
    <i name="e_0_energy">   -156.54618244 </i>
   </energy>
  </scstep>
  <scstep>
   <time name="total">   24.71   24.92</time>
   <energy>
    <i name="e_fr_energy">   -170.03698325 </i>
    <i name="e_wo_entrp">   -170.03537754 </i>
    <i name="e_0_energy">   -170.03618040 </i>
   </energy>
  </scstep>
  <scstep>
   <time name="total">   24.13   24.33</time>
   <energy>
    <i name="e_fr_energy">   -173.21141003 </i>
    <i name="e_wo_entrp">   -173.20942386 </i>
    <i name="e_0_energy">   -173.21041695 </i>
   </energy>
  </scstep>
  <scstep>
   <time name="total">   23.96   24.16</time>
   <energy>
    <i name="e_fr_energy">   -174.13777923 </i>
    <i name="e_wo_entrp">   -174.13612697 </i>
    <i name="e_0_energy">   -174.13695310 </i>
   </energy>
  </scstep>
  <scstep>
   <time name="total">   24.46   24.66</time>
   <energy>
    <i name="e_fr_energy">   -174.46852273 </i>
    <i name="e_wo_entrp">   -174.46691059 </i>
    <i name="e_0_energy">   -174.46771666 </i>
   </energy>
  </scstep>
  <scstep>
   <time name="total">   25.05   25.25</time>
   <energy>
    <i name="e_fr_energy">   -174.63582469 </i>
    <i name="e_wo_entrp">   -174.63393440 </i>
    <i name="e_0_energy">   -174.63487955 </i>
   </energy>
  </scstep>
  <scstep>
   <time name="total">   25.21   25.41</time>
   <energy>
    <i name="e_fr_energy">   -174.70651841 </i>
    <i name="e_wo_entrp">   -174.70441118 </i>
    <i name="e_0_energy">   -174.70546479 </i>
   </energy>
  </scstep>
  <scstep>
   <time name="total">   23.48   23.69</time>
   <energy>
    <i name="e_fr_energy">   -174.73851092 </i>
    <i name="e_wo_entrp">   -174.73635121 </i>
    <i name="e_0_energy">   -174.73743106 </i>
   </energy>
  </scstep>
  <scstep>
   <time name="total">   25.89   26.10</time>
   <energy>
    <i name="e_fr_energy">   -174.75314511 </i>
    <i name="e_wo_entrp">   -174.75097154 </i>
    <i name="e_0_energy">   -174.75205832 </i>
   </energy>
  </scstep>
  <scstep>
   <time name="total">   25.63   25.84</time>
   <energy>
    <i name="e_fr_energy">   -174.76080256 </i>
    <i name="e_wo_entrp">   -174.75860097 </i>
    <i name="e_0_energy">   -174.75970176 </i>
   </energy>
  </scstep>
  <scstep>
   <time name="total">   25.94   26.15</time>
   <energy>
    <i name="e_fr_energy">   -174.76434521 </i>
    <i name="e_wo_entrp">   -174.76210313 </i>
    <i name="e_0_energy">   -174.76322417 </i>
   </energy>
  </scstep>
  <scstep>
   <time name="total">   25.64   25.89</time>
   <energy>
    <i name="e_fr_energy">   -174.76654089 </i>
    <i name="e_wo_entrp">   -174.76426394 </i>
    <i name="e_0_energy">   -174.76540242 </i>
   </energy>
  </scstep>
  <scstep>
   <time name="total">   25.62   25.82</time>
   <energy>
    <i name="e_fr_energy">   -174.76764372 </i>
    <i name="e_wo_entrp">   -174.76535051 </i>
    <i name="e_0_energy">   -174.76649711 </i>
   </energy>
  </scstep>
  <scstep>
   <time name="total">   24.43   24.63</time>
   <energy>
    <i name="e_fr_energy">   -174.76812278 </i>
    <i name="e_wo_entrp">   -174.76582358 </i>
    <i name="e_0_energy">   -174.76697318 </i>
   </energy>
  </scstep>
  <scstep>
   <time name="total">   23.84   24.04</time>
   <energy>
    <i name="e_fr_energy">   -174.76833262 </i>
    <i name="e_wo_entrp">   -174.76603267 </i>
    <i name="e_0_energy">   -174.76718264 </i>
   </energy>
  </scstep>
  <scstep>
   <time name="total">   24.05   24.26</time>
   <energy>
    <i name="e_fr_energy">   -174.76846401 </i>
    <i name="e_wo_entrp">   -174.76616698 </i>
    <i name="e_0_energy">   -174.76731550 </i>
   </energy>
  </scstep>
  <scstep>
   <time name="total">   23.51   23.70</time>
   <energy>
    <i name="e_fr_energy">   -174.76852806 </i>
    <i name="e_wo_entrp">   -174.76623482 </i>
    <i name="e_0_energy">   -174.76738144 </i>
   </energy>
  </scstep>
  <scstep>
   <time name="total">   24.87   25.07</time>
   <energy>
    <i name="e_fr_energy">   -174.76855410 </i>
    <i name="e_wo_entrp">   -174.76626425 </i>
    <i name="e_0_energy">   -174.76740918 </i>
   </energy>
  </scstep>
  <scstep>
   <time name="total">   24.50   24.70</time>
   <energy>
    <i name="e_fr_energy">   -174.76856864 </i>
    <i name="e_wo_entrp">   -174.76628232 </i>
    <i name="e_0_energy">   -174.76742548 </i>
   </energy>
  </scstep>
  <scstep>
   <time name="total">   24.13   24.33</time>
   <energy>
    <i name="e_fr_energy">   -174.76857771 </i>
    <i name="e_wo_entrp">   -174.76629336 </i>
    <i name="e_0_energy">   -174.76743554 </i>
   </energy>
  </scstep>
  <scstep>
   <time name="total">   23.64   23.84</time>
   <energy>
    <i name="e_fr_energy">   -174.76858156 </i>
    <i name="e_wo_entrp">   -174.76629827 </i>
    <i name="e_0_energy">   -174.76743992 </i>
   </energy>
  </scstep>
  <scstep>
   <time name="total">   23.66   23.85</time>
   <energy>
    <i name="e_fr_energy">   -174.76858329 </i>
    <i name="e_wo_entrp">   -174.76630059 </i>
    <i name="e_0_energy">   -174.76744194 </i>
   </energy>
  </scstep>
  <scstep>
   <time name="total">   24.37   24.57</time>
   <energy>
    <i name="e_fr_energy">   -174.76858444 </i>
    <i name="e_wo_entrp">   -174.76630181 </i>
    <i name="e_0_energy">   -174.76744313 </i>
   </energy>
  </scstep>
  <scstep>
   <time name="total">   24.33   24.53</time>
   <energy>
    <i name="e_fr_energy">   -174.76858494 </i>
    <i name="e_wo_entrp">   -174.76630215 </i>
    <i name="e_0_energy">   -174.76744354 </i>
   </energy>
  </scstep>
  <scstep>
   <time name="total">   24.29   24.50</time>
   <energy>
    <i name="e_fr_energy">   -174.76858520 </i>
    <i name="e_wo_entrp">   -174.76630227 </i>
    <i name="e_0_energy">   -174.76744373 </i>
   </energy>
  </scstep>
  <scstep>
   <time name="total">   24.07   24.27</time>
   <energy>
    <i name="e_fr_energy">   -174.76858531 </i>
    <i name="e_wo_entrp">   -174.76630197 </i>
    <i name="e_0_energy">   -174.76744364 </i>
   </energy>
  </scstep>
  <scstep>
   <time name="total">   23.60   23.79</time>
   <energy>
    <i name="e_fr_energy">   -174.76858535 </i>
    <i name="e_wo_entrp">   -174.76630202 </i>
    <i name="e_0_energy">   -174.76744368 </i>
   </energy>
  </scstep>
  <scstep>
   <time name="total">   23.99   24.20</time>
   <energy>
    <i name="e_fr_energy">   -174.76858543 </i>
    <i name="e_wo_entrp">   -174.76630211 </i>
    <i name="e_0_energy">   -174.76744377 </i>
   </energy>
  </scstep>
  <scstep>
   <time name="total">   24.02   24.21</time>
   <energy>
    <i name="e_fr_energy">   -174.76858546 </i>
    <i name="e_wo_entrp">   -174.76630217 </i>
    <i name="e_0_energy">   -174.76744382 </i>
   </energy>
  </scstep>
  <scstep>
   <time name="total">   24.49   24.69</time>
   <energy>
    <i name="e_fr_energy">   -174.76858548 </i>
    <i name="e_wo_entrp">   -174.76630220 </i>
    <i name="e_0_energy">   -174.76744384 </i>
   </energy>
  </scstep>
  <scstep>
   <time name="total">   23.65   23.84</time>
   <energy>
    <i name="e_fr_energy">   -174.76858549 </i>
    <i name="e_wo_entrp">   -174.76630221 </i>
    <i name="e_0_energy">   -174.76744385 </i>
   </energy>
  </scstep>
  <scstep>
   <time name="total">   23.11   23.30</time>
   <energy>
    <i name="e_fr_energy">   -174.76858549 </i>
    <i name="e_wo_entrp">   -174.76630221 </i>
    <i name="e_0_energy">   -174.76744385 </i>
   </energy>
  </scstep>
  <scstep>
   <time name="total">   41.07   41.42</time>
   <energy>
    <i name="e_fr_energy">   -174.76858550 </i>
    <i name="e_wo_entrp">   -174.76630214 </i>
    <i name="e_0_energy">   -174.76744382 </i>
   </energy>
  </scstep>
  <scstep>
   <time name="total">   23.87   24.07</time>
   <energy>
    <i name="e_fr_energy">   -174.76858542 </i>
    <i name="e_wo_entrp">   -174.76630209 </i>
    <i name="e_0_energy">   -174.76744375 </i>
   </energy>
  </scstep>
  <scstep>
   <time name="total">   24.45   24.65</time>
   <energy>
    <i name="e_fr_energy">   -174.76858548 </i>
    <i name="e_wo_entrp">   -174.76630215 </i>
    <i name="e_0_energy">   -174.76744381 </i>
   </energy>
  </scstep>
  <scstep>
   <time name="total">   23.97   24.17</time>
   <energy>
    <i name="e_fr_energy">   -174.76858549 </i>
    <i name="e_wo_entrp">   -174.76630216 </i>
    <i name="e_0_energy">   -174.76744383 </i>
   </energy>
  </scstep>
  <scstep>
   <time name="total">   23.59   23.80</time>
   <energy>
    <i name="e_fr_energy">   -174.76858550 </i>
    <i name="e_wo_entrp">   -174.76630216 </i>
    <i name="e_0_energy">   -174.76744383 </i>
   </energy>
  </scstep>
  <scstep>
   <time name="total">   24.10   24.29</time>
   <energy>
    <i name="e_fr_energy">   -174.76858550 </i>
    <i name="e_wo_entrp">   -174.76630217 </i>
    <i name="e_0_energy">   -174.76744383 </i>
   </energy>
  </scstep>
  <scstep>
   <time name="total">   27.21   27.44</time>
   <energy>
    <i name="alphaZ">    460.17550846 </i>
    <i name="ewald">  -8208.89253983 </i>
    <i name="hartreedc">  -2905.92592468 </i>
    <i name="XCdc">    470.96596452 </i>
    <i name="pawpsdc">  12961.53208687 </i>
    <i name="pawaedc"> -12938.78386361 </i>
    <i name="eentropy">     -0.00228333 </i>
    <i name="bandstr">  -1536.00497912 </i>
    <i name="atom">  11522.16744521 </i>
    <i name="e_fr_energy">   -174.76858550 </i>
    <i name="e_wo_entrp">   -174.76630217 </i>
    <i name="e_0_energy">   -174.76744383 </i>
   </energy>
  </scstep>
  <structure>
   <crystal>
    <varray name="basis" >
     <v>       5.54801693       0.00000000      -3.00368205 </v>
     <v>      -1.96912732       5.18681304      -3.00368205 </v>
     <v>       0.00000000       0.00000000       6.30893000 </v>
    </varray>
    <i name="volume">    181.54909185 </i>
    <varray name="rec_basis" >
     <v>       0.18024458       0.06842825       0.00000000 </v>
     <v>       0.00000000       0.19279662       0.00000000 </v>
     <v>       0.08581446       0.12436918       0.15850548 </v>
    </varray>
   </crystal>
   <varray name="positions" >
    <v>       0.00000000       0.50000000       0.50000000 </v>
    <v>       0.50000000       0.00000000       0.50000000 </v>
    <v>       0.24400000       0.74400000       0.98800000 </v>
    <v>       0.25000000       0.25000000       0.00000000 </v>
    <v>       0.75600000       0.25600000       0.01200000 </v>
    <v>       0.75000000       0.75000000       0.00000000 </v>
    <v>       0.74400000       0.75600000       0.50000000 </v>
    <v>       0.25600000       0.24400000       0.50000000 </v>
    <v>       0.00000000       0.00000000       0.00000000 </v>
    <v>       0.50000000       0.50000000       0.00000000 </v>
   </varray>
  </structure>
  <varray name="forces" >
   <v>       0.00000000       0.00000000       0.00000000 </v>
   <v>       0.00000000       0.00000000       0.00000000 </v>
   <v>       0.00000000       0.00000000       0.00000000 </v>
   <v>       0.00000000       0.00000000       0.00000000 </v>
   <v>       0.00000000       0.00000000       0.00000000 </v>
   <v>       0.00000000       0.00000000       0.00000000 </v>
   <v>       0.00000000       0.00000000       0.00000000 </v>
   <v>       0.00000000       0.00000000       0.00000000 </v>
   <v>       0.00000000       0.00000000       0.00000000 </v>
   <v>       0.00000000       0.00000000       0.00000000 </v>
  </varray>
  <varray name="stress" >
   <v>       0.00000000       0.00000000       0.00000000 </v>
   <v>       0.00000000       0.00000000       0.00000000 </v>
   <v>       0.00000000       0.00000000       0.00000000 </v>
  </varray>
  <energy>
   <i name="e_fr_energy">   -174.76858550 </i>
   <i name="e_wo_entrp">   -174.76630217 </i>
   <i name="e_0_energy">   -174.76744383 </i>
  </energy>
  <time name="totalsc"> 1085.79 1095.25</time>
  <eigenvalues>
   <array>
    <dimension dim="1">band</dimension>
    <dimension dim="2">kpoint</dimension>
    <dimension dim="3">spin</dimension>
    <field>eigene</field>
    <field>occ</field>
    <set>
     <set comment="spin 1">
      <set comment="kpoint 1">
       <r>  -55.8087    1.0000 </r>
       <r>  -55.7816    1.0000 </r>
       <r>  -55.7815    1.0000 </r>
       <r>  -55.7638    1.0000 </r>
       <r>  -55.6664    1.0000 </r>
       <r>  -55.6599    1.0000 </r>
       <r>  -29.6361    1.0000 </r>
       <r>  -29.4306    1.0000 </r>
       <r>  -29.4305    1.0000 </r>
       <r>  -29.3792    1.0000 </r>
       <r>  -29.3158    1.0000 </r>
       <r>  -29.1976    1.0000 </r>
       <r>  -29.1975    1.0000 </r>
       <r>  -29.1794    1.0000 </r>
       <r>  -29.1794    1.0000 </r>
       <r>  -29.1635    1.0000 </r>
       <r>  -29.1084    1.0000 </r>
       <r>  -29.0452    1.0000 </r>
       <r>  -29.0180    1.0000 </r>
       <r>  -28.9945    1.0000 </r>
       <r>  -28.9945    1.0000 </r>
       <r>  -28.9398    1.0000 </r>
       <r>  -28.9093    1.0000 </r>
       <r>  -28.9093    1.0000 </r>
       <r>   -3.9007    1.0000 </r>
       <r>   -0.9358    1.0000 </r>
       <r>    0.5174    1.0000 </r>
       <r>    0.7474    1.0000 </r>
       <r>    0.7474    1.0000 </r>
       <r>    1.1911    1.0000 </r>
       <r>    1.5218    1.0000 </r>
       <r>    3.3844    1.0000 </r>
       <r>    3.3844    1.0000 </r>
       <r>    3.6081    1.0000 </r>
       <r>    3.6238    1.0000 </r>
       <r>    3.7251    1.0000 </r>
       <r>    3.7252    1.0000 </r>
       <r>    4.1877    1.0000 </r>
       <r>    4.8836    1.0000 </r>
       <r>    5.4203    1.0000 </r>
       <r>    5.4203    1.0000 </r>
       <r>    5.9103    1.0000 </r>
       <r>    6.2683    1.0000 </r>
       <r>    6.5344    1.0000 </r>
       <r>    6.5607    1.0000 </r>
       <r>    6.6974    1.0000 </r>
       <r>    6.6974    1.0000 </r>
       <r>    6.8313    1.0000 </r>
       <r>    7.5619    0.0000 </r>
       <r>    7.5619    0.0000 </r>
       <r>    7.9926    0.0000 </r>
       <r>    8.1227    0.0000 </r>
       <r>    8.1622    0.0000 </r>
       <r>    8.3471    0.0000 </r>
       <r>    8.3471    0.0000 </r>
       <r>    8.6663    0.0000 </r>
       <r>    8.6663    0.0000 </r>
       <r>    9.5834    0.0000 </r>
       <r>    9.6740    0.0000 </r>
       <r>    9.6813    0.0000 </r>
      </set>
      <set comment="kpoint 2">
       <r>  -55.8070    1.0000 </r>
       <r>  -55.7825    1.0000 </r>
       <r>  -55.7807    1.0000 </r>
       <r>  -55.7647    1.0000 </r>
       <r>  -55.6664    1.0000 </r>
       <r>  -55.6605    1.0000 </r>
       <r>  -29.6188    1.0000 </r>
       <r>  -29.4300    1.0000 </r>
       <r>  -29.4164    1.0000 </r>
       <r>  -29.3725    1.0000 </r>
       <r>  -29.3081    1.0000 </r>
       <r>  -29.1913    1.0000 </r>
       <r>  -29.1908    1.0000 </r>
       <r>  -29.1887    1.0000 </r>
       <r>  -29.1762    1.0000 </r>
       <r>  -29.1698    1.0000 </r>
       <r>  -29.1147    1.0000 </r>
       <r>  -29.0548    1.0000 </r>
       <r>  -29.0212    1.0000 </r>
       <r>  -29.0032    1.0000 </r>
       <r>  -28.9971    1.0000 </r>
       <r>  -28.9465    1.0000 </r>
       <r>  -28.9165    1.0000 </r>
       <r>  -28.9156    1.0000 </r>
       <r>   -3.7712    1.0000 </r>
       <r>   -0.8604    1.0000 </r>
       <r>   -0.2237    1.0000 </r>
       <r>    0.8867    1.0000 </r>
       <r>    0.8925    1.0000 </r>
       <r>    1.4607    1.0000 </r>
       <r>    1.7230    1.0000 </r>
       <r>    3.4745    1.0000 </r>
       <r>    3.5342    1.0000 </r>
       <r>    3.6183    1.0000 </r>
       <r>    3.7348    1.0000 </r>
       <r>    3.7487    1.0000 </r>
       <r>    3.7781    1.0000 </r>
       <r>    4.2531    1.0000 </r>
       <r>    4.8173    1.0000 </r>
       <r>    5.1685    1.0000 </r>
       <r>    5.2196    1.0000 </r>
       <r>    5.9149    1.0000 </r>
       <r>    5.9961    1.0000 </r>
       <r>    6.2526    1.0000 </r>
       <r>    6.2917    1.0000 </r>
       <r>    6.6877    1.0000 </r>
       <r>    6.6995    1.0000 </r>
       <r>    6.9548    0.9998 </r>
       <r>    7.5408    0.0000 </r>
       <r>    7.5743    0.0000 </r>
       <r>    7.6984    0.0000 </r>
       <r>    7.7750    0.0000 </r>
       <r>    7.9695    0.0000 </r>
       <r>    8.2468    0.0000 </r>
       <r>    8.2512    0.0000 </r>
       <r>    8.5642    0.0000 </r>
       <r>    8.7662    0.0000 </r>
       <r>    8.9809    0.0000 </r>
       <r>    9.3986    0.0000 </r>
       <r>    9.6590    0.0000 </r>
      </set>
      <set comment="kpoint 3">
       <r>  -55.8026    1.0000 </r>
       <r>  -55.7855    1.0000 </r>
       <r>  -55.7782    1.0000 </r>
       <r>  -55.7672    1.0000 </r>
       <r>  -55.6663    1.0000 </r>
       <r>  -55.6621    1.0000 </r>
       <r>  -29.5725    1.0000 </r>
       <r>  -29.4372    1.0000 </r>
       <r>  -29.3770    1.0000 </r>
       <r>  -29.3530    1.0000 </r>
       <r>  -29.2856    1.0000 </r>
       <r>  -29.2113    1.0000 </r>
       <r>  -29.2069    1.0000 </r>
       <r>  -29.1714    1.0000 </r>
       <r>  -29.1676    1.0000 </r>
       <r>  -29.1589    1.0000 </r>
       <r>  -29.1271    1.0000 </r>
       <r>  -29.0847    1.0000 </r>
       <r>  -29.0422    1.0000 </r>
       <r>  -29.0350    1.0000 </r>
       <r>  -28.9915    1.0000 </r>
       <r>  -28.9542    1.0000 </r>
       <r>  -28.9324    1.0000 </r>
       <r>  -28.9319    1.0000 </r>
       <r>   -3.3932    1.0000 </r>
       <r>   -1.1461    1.0000 </r>
       <r>   -0.6407    1.0000 </r>
       <r>    0.5899    1.0000 </r>
       <r>    1.2950    1.0000 </r>
       <r>    1.7799    1.0000 </r>
       <r>    2.4078    1.0000 </r>
       <r>    3.5009    1.0000 </r>
       <r>    3.5594    1.0000 </r>
       <r>    3.7438    1.0000 </r>
       <r>    3.8109    1.0000 </r>
       <r>    3.8439    1.0000 </r>
       <r>    4.0652    1.0000 </r>
       <r>    4.3976    1.0000 </r>
       <r>    4.5511    1.0000 </r>
       <r>    4.5839    1.0000 </r>
       <r>    5.1811    1.0000 </r>
       <r>    5.5622    1.0000 </r>
       <r>    5.7409    1.0000 </r>
       <r>    5.8182    1.0000 </r>
       <r>    6.0826    1.0000 </r>
       <r>    6.6681    1.0000 </r>
       <r>    6.7932    1.0000 </r>
       <r>    6.7971    1.0000 </r>
       <r>    6.8404    1.0000 </r>
       <r>    7.1210    0.0000 </r>
       <r>    7.5937    0.0000 </r>
       <r>    7.6458    0.0000 </r>
       <r>    7.9372    0.0000 </r>
       <r>    8.1155    0.0000 </r>
       <r>    8.1263    0.0000 </r>
       <r>    8.1702    0.0000 </r>
       <r>    8.6807    0.0000 </r>
       <r>    8.6918    0.0000 </r>
       <r>    9.2366    0.0000 </r>
       <r>    9.7727    0.0000 </r>
      </set>
      <set comment="kpoint 4">
       <r>  -55.7965    1.0000 </r>
       <r>  -55.7904    1.0000 </r>
       <r>  -55.7747    1.0000 </r>
       <r>  -55.7707    1.0000 </r>
       <r>  -55.6656    1.0000 </r>
       <r>  -55.6641    1.0000 </r>
       <r>  -29.5138    1.0000 </r>
       <r>  -29.4645    1.0000 </r>
       <r>  -29.3241    1.0000 </r>
       <r>  -29.3185    1.0000 </r>
       <r>  -29.2876    1.0000 </r>
       <r>  -29.2586    1.0000 </r>
       <r>  -29.1990    1.0000 </r>
       <r>  -29.1562    1.0000 </r>
       <r>  -29.1560    1.0000 </r>
       <r>  -29.1446    1.0000 </r>
       <r>  -29.1185    1.0000 </r>
       <r>  -29.1164    1.0000 </r>
       <r>  -29.0819    1.0000 </r>
       <r>  -29.0786    1.0000 </r>
       <r>  -28.9755    1.0000 </r>
       <r>  -28.9542    1.0000 </r>
       <r>  -28.9533    1.0000 </r>
       <r>  -28.9456    1.0000 </r>
       <r>   -2.7967    1.0000 </r>
       <r>   -2.0280    1.0000 </r>
       <r>   -0.2969    1.0000 </r>
       <r>    0.1350    1.0000 </r>
       <r>    1.9414    1.0000 </r>
       <r>    2.4068    1.0000 </r>
       <r>    2.7591    1.0000 </r>
       <r>    2.9857    1.0000 </r>
       <r>    3.1358    1.0000 </r>
       <r>    3.4578    1.0000 </r>
       <r>    4.0657    1.0000 </r>
       <r>    4.1472    1.0000 </r>
       <r>    4.2704    1.0000 </r>
       <r>    4.4036    1.0000 </r>
       <r>    4.5708    1.0000 </r>
       <r>    4.6717    1.0000 </r>
       <r>    5.1210    1.0000 </r>
       <r>    5.4350    1.0000 </r>
       <r>    5.5059    1.0000 </r>
       <r>    5.6293    1.0000 </r>
       <r>    5.7187    1.0000 </r>
       <r>    6.0577    1.0000 </r>
       <r>    6.5610    1.0000 </r>
       <r>    6.6482    1.0000 </r>
       <r>    7.0804    0.0000 </r>
       <r>    7.1334    0.0000 </r>
       <r>    7.3692    0.0000 </r>
       <r>    7.6184    0.0000 </r>
       <r>    7.7659    0.0000 </r>
       <r>    7.8612    0.0000 </r>
       <r>    8.0008    0.0000 </r>
       <r>    8.0036    0.0000 </r>
       <r>    8.5163    0.0000 </r>
       <r>    8.5494    0.0000 </r>
       <r>    9.2122    0.0000 </r>
       <r>    9.2710    0.0000 </r>
      </set>
      <set comment="kpoint 5">
       <r>  -55.8048    1.0000 </r>
       <r>  -55.7819    1.0000 </r>
       <r>  -55.7816    1.0000 </r>
       <r>  -55.7656    1.0000 </r>
       <r>  -55.6665    1.0000 </r>
       <r>  -55.6616    1.0000 </r>
       <r>  -29.5910    1.0000 </r>
       <r>  -29.4165    1.0000 </r>
       <r>  -29.4132    1.0000 </r>
       <r>  -29.3660    1.0000 </r>
       <r>  -29.2928    1.0000 </r>
       <r>  -29.1897    1.0000 </r>
       <r>  -29.1855    1.0000 </r>
       <r>  -29.1833    1.0000 </r>
       <r>  -29.1811    1.0000 </r>
       <r>  -29.1607    1.0000 </r>
       <r>  -29.1220    1.0000 </r>
       <r>  -29.0743    1.0000 </r>
       <r>  -29.0409    1.0000 </r>
       <r>  -29.0053    1.0000 </r>
       <r>  -29.0044    1.0000 </r>
       <r>  -28.9554    1.0000 </r>
       <r>  -28.9321    1.0000 </r>
       <r>  -28.9232    1.0000 </r>
       <r>   -3.5551    1.0000 </r>
       <r>   -0.7678    1.0000 </r>
       <r>   -0.7490    1.0000 </r>
       <r>    0.5626    1.0000 </r>
       <r>    1.3318    1.0000 </r>
       <r>    1.5368    1.0000 </r>
       <r>    2.2143    1.0000 </r>
       <r>    3.4788    1.0000 </r>
       <r>    3.5982    1.0000 </r>
       <r>    3.6621    1.0000 </r>
       <r>    3.7290    1.0000 </r>
       <r>    3.8599    1.0000 </r>
       <r>    3.9557    1.0000 </r>
       <r>    4.2745    1.0000 </r>
       <r>    4.5364    1.0000 </r>
       <r>    5.1228    1.0000 </r>
       <r>    5.2130    1.0000 </r>
       <r>    5.4680    1.0000 </r>
       <r>    5.8981    1.0000 </r>
       <r>    6.0444    1.0000 </r>
       <r>    6.2943    1.0000 </r>
       <r>    6.5129    1.0000 </r>
       <r>    6.7941    1.0000 </r>
       <r>    6.9266    1.0000 </r>
       <r>    7.0430    0.0032 </r>
       <r>    7.2464    0.0000 </r>
       <r>    7.4107    0.0000 </r>
       <r>    7.7920    0.0000 </r>
       <r>    7.9712    0.0000 </r>
       <r>    8.1007    0.0000 </r>
       <r>    8.2257    0.0000 </r>
       <r>    8.3885    0.0000 </r>
       <r>    8.6963    0.0000 </r>
       <r>    9.0574    0.0000 </r>
       <r>    9.1763    0.0000 </r>
       <r>    9.7560    0.0000 </r>
      </set>
      <set comment="kpoint 6">
       <r>  -55.8001    1.0000 </r>
       <r>  -55.7850    1.0000 </r>
       <r>  -55.7793    1.0000 </r>
       <r>  -55.7681    1.0000 </r>
       <r>  -55.6662    1.0000 </r>
       <r>  -55.6633    1.0000 </r>
       <r>  -29.5391    1.0000 </r>
       <r>  -29.4299    1.0000 </r>
       <r>  -29.3748    1.0000 </r>
       <r>  -29.3470    1.0000 </r>
       <r>  -29.2683    1.0000 </r>
       <r>  -29.2192    1.0000 </r>
       <r>  -29.1987    1.0000 </r>
       <r>  -29.1719    1.0000 </r>
       <r>  -29.1620    1.0000 </r>
       <r>  -29.1402    1.0000 </r>
       <r>  -29.1380    1.0000 </r>
       <r>  -29.0989    1.0000 </r>
       <r>  -29.0840    1.0000 </r>
       <r>  -29.0327    1.0000 </r>
       <r>  -28.9925    1.0000 </r>
       <r>  -28.9576    1.0000 </r>
       <r>  -28.9498    1.0000 </r>
       <r>  -28.9404    1.0000 </r>
       <r>   -3.1080    1.0000 </r>
       <r>   -1.5180    1.0000 </r>
       <r>   -0.5464    1.0000 </r>
       <r>    0.3490    1.0000 </r>
       <r>    1.6109    1.0000 </r>
       <r>    1.9974    1.0000 </r>
       <r>    2.8104    1.0000 </r>
       <r>    3.2442    1.0000 </r>
       <r>    3.4719    1.0000 </r>
       <r>    3.6609    1.0000 </r>
       <r>    3.6972    1.0000 </r>
       <r>    3.9379    1.0000 </r>
       <r>    4.1088    1.0000 </r>
       <r>    4.2998    1.0000 </r>
       <r>    4.5214    1.0000 </r>
       <r>    4.9043    1.0000 </r>
       <r>    5.2377    1.0000 </r>
       <r>    5.2848    1.0000 </r>
       <r>    5.6624    1.0000 </r>
       <r>    5.7075    1.0000 </r>
       <r>    5.9826    1.0000 </r>
       <r>    6.3411    1.0000 </r>
       <r>    6.6165    1.0000 </r>
       <r>    6.7427    1.0000 </r>
       <r>    6.7975    1.0000 </r>
       <r>    7.0887    0.0000 </r>
       <r>    7.2531    0.0000 </r>
       <r>    7.5598    0.0000 </r>
       <r>    7.9487    0.0000 </r>
       <r>    8.0322    0.0000 </r>
       <r>    8.0958    0.0000 </r>
       <r>    8.2084    0.0000 </r>
       <r>    8.5534    0.0000 </r>
       <r>    8.7811    0.0000 </r>
       <r>    9.1733    0.0000 </r>
       <r>    9.8938    0.0000 </r>
      </set>
      <set comment="kpoint 7">
       <r>  -55.7943    1.0000 </r>
       <r>  -55.7903    1.0000 </r>
       <r>  -55.7758    1.0000 </r>
       <r>  -55.7717    1.0000 </r>
       <r>  -55.6651    1.0000 </r>
       <r>  -55.6649    1.0000 </r>
       <r>  -29.4819    1.0000 </r>
       <r>  -29.4669    1.0000 </r>
       <r>  -29.3206    1.0000 </r>
       <r>  -29.3152    1.0000 </r>
       <r>  -29.2811    1.0000 </r>
       <r>  -29.2713    1.0000 </r>
       <r>  -29.1804    1.0000 </r>
       <r>  -29.1780    1.0000 </r>
       <r>  -29.1546    1.0000 </r>
       <r>  -29.1530    1.0000 </r>
       <r>  -29.1286    1.0000 </r>
       <r>  -29.1234    1.0000 </r>
       <r>  -29.0732    1.0000 </r>
       <r>  -29.0721    1.0000 </r>
       <r>  -28.9764    1.0000 </r>
       <r>  -28.9691    1.0000 </r>
       <r>  -28.9546    1.0000 </r>
       <r>  -28.9490    1.0000 </r>
       <r>   -2.4680    1.0000 </r>
       <r>   -2.2948    1.0000 </r>
       <r>   -0.2254    1.0000 </r>
       <r>    0.0216    1.0000 </r>
       <r>    2.0939    1.0000 </r>
       <r>    2.4874    1.0000 </r>
       <r>    2.7268    1.0000 </r>
       <r>    2.8794    1.0000 </r>
       <r>    3.2215    1.0000 </r>
       <r>    3.3465    1.0000 </r>
       <r>    3.9816    1.0000 </r>
       <r>    4.1503    1.0000 </r>
       <r>    4.2533    1.0000 </r>
       <r>    4.5263    1.0000 </r>
       <r>    4.5696    1.0000 </r>
       <r>    4.6156    1.0000 </r>
       <r>    5.2397    1.0000 </r>
       <r>    5.2694    1.0000 </r>
       <r>    5.3916    1.0000 </r>
       <r>    5.4390    1.0000 </r>
       <r>    5.8893    1.0000 </r>
       <r>    5.9369    1.0000 </r>
       <r>    6.5472    1.0000 </r>
       <r>    6.6323    1.0000 </r>
       <r>    6.8990    1.0000 </r>
       <r>    7.0775    0.0000 </r>
       <r>    7.4391    0.0000 </r>
       <r>    7.4696    0.0000 </r>
       <r>    7.7720    0.0000 </r>
       <r>    7.8524    0.0000 </r>
       <r>    8.0256    0.0000 </r>
       <r>    8.1057    0.0000 </r>
       <r>    8.4707    0.0000 </r>
       <r>    8.7288    0.0000 </r>
       <r>    9.2369    0.0000 </r>
       <r>    9.3755    0.0000 </r>
      </set>
      <set comment="kpoint 8">
       <r>  -55.7965    1.0000 </r>
       <r>  -55.7887    1.0000 </r>
       <r>  -55.7756    1.0000 </r>
       <r>  -55.7718    1.0000 </r>
       <r>  -55.6660    1.0000 </r>
       <r>  -55.6633    1.0000 </r>
       <r>  -29.5218    1.0000 </r>
       <r>  -29.4403    1.0000 </r>
       <r>  -29.3326    1.0000 </r>
       <r>  -29.3175    1.0000 </r>
       <r>  -29.2811    1.0000 </r>
       <r>  -29.2564    1.0000 </r>
       <r>  -29.2263    1.0000 </r>
       <r>  -29.1685    1.0000 </r>
       <r>  -29.1661    1.0000 </r>
       <r>  -29.1539    1.0000 </r>
       <r>  -29.1333    1.0000 </r>
       <r>  -29.0933    1.0000 </r>
       <r>  -29.0805    1.0000 </r>
       <r>  -29.0351    1.0000 </r>
       <r>  -28.9885    1.0000 </r>
       <r>  -28.9600    1.0000 </r>
       <r>  -28.9592    1.0000 </r>
       <r>  -28.9323    1.0000 </r>
       <r>   -2.9655    1.0000 </r>
       <r>   -1.6933    1.0000 </r>
       <r>   -0.3354    1.0000 </r>
       <r>    0.1372    1.0000 </r>
       <r>    1.8430    1.0000 </r>
       <r>    2.1012    1.0000 </r>
       <r>    2.7808    1.0000 </r>
       <r>    2.8423    1.0000 </r>
       <r>    3.3516    1.0000 </r>
       <r>    3.7693    1.0000 </r>
       <r>    3.9949    1.0000 </r>
       <r>    4.1780    1.0000 </r>
       <r>    4.2368    1.0000 </r>
       <r>    4.3581    1.0000 </r>
       <r>    4.4994    1.0000 </r>
       <r>    4.6384    1.0000 </r>
       <r>    4.8431    1.0000 </r>
       <r>    5.2191    1.0000 </r>
       <r>    5.5854    1.0000 </r>
       <r>    5.6269    1.0000 </r>
       <r>    5.8432    1.0000 </r>
       <r>    6.2594    1.0000 </r>
       <r>    6.6195    1.0000 </r>
       <r>    6.7313    1.0000 </r>
       <r>    6.8351    1.0000 </r>
       <r>    7.1512    0.0000 </r>
       <r>    7.2553    0.0000 </r>
       <r>    7.5951    0.0000 </r>
       <r>    7.9092    0.0000 </r>
       <r>    7.9854    0.0000 </r>
       <r>    8.0318    0.0000 </r>
       <r>    8.1908    0.0000 </r>
       <r>    8.4829    0.0000 </r>
       <r>    8.8420    0.0000 </r>
       <r>    9.2174    0.0000 </r>
       <r>    9.4451    0.0000 </r>
      </set>
      <set comment="kpoint 9">
       <r>  -55.8023    1.0000 </r>
       <r>  -55.7843    1.0000 </r>
       <r>  -55.7792    1.0000 </r>
       <r>  -55.7682    1.0000 </r>
       <r>  -55.6664    1.0000 </r>
       <r>  -55.6616    1.0000 </r>
       <r>  -29.5773    1.0000 </r>
       <r>  -29.4224    1.0000 </r>
       <r>  -29.3839    1.0000 </r>
       <r>  -29.3468    1.0000 </r>
       <r>  -29.2911    1.0000 </r>
       <r>  -29.2153    1.0000 </r>
       <r>  -29.2064    1.0000 </r>
       <r>  -29.1899    1.0000 </r>
       <r>  -29.1784    1.0000 </r>
       <r>  -29.1610    1.0000 </r>
       <r>  -29.1373    1.0000 </r>
       <r>  -29.0670    1.0000 </r>
       <r>  -29.0397    1.0000 </r>
       <r>  -29.0127    1.0000 </r>
       <r>  -28.9983    1.0000 </r>
       <r>  -28.9549    1.0000 </r>
       <r>  -28.9412    1.0000 </r>
       <r>  -28.9160    1.0000 </r>
       <r>   -3.4620    1.0000 </r>
       <r>   -0.8742    1.0000 </r>
       <r>   -0.6299    1.0000 </r>
       <r>    0.4149    1.0000 </r>
       <r>    1.4616    1.0000 </r>
       <r>    1.5633    1.0000 </r>
       <r>    2.2116    1.0000 </r>
       <r>    3.5562    1.0000 </r>
       <r>    3.6670    1.0000 </r>
       <r>    3.6886    1.0000 </r>
       <r>    3.8300    1.0000 </r>
       <r>    3.9110    1.0000 </r>
       <r>    4.0655    1.0000 </r>
       <r>    4.1516    1.0000 </r>
       <r>    4.4449    1.0000 </r>
       <r>    4.8917    1.0000 </r>
       <r>    5.0757    1.0000 </r>
       <r>    5.4237    1.0000 </r>
       <r>    5.7065    1.0000 </r>
       <r>    5.8039    1.0000 </r>
       <r>    6.0980    1.0000 </r>
       <r>    6.7026    1.0000 </r>
       <r>    6.7715    1.0000 </r>
       <r>    6.9045    1.0000 </r>
       <r>    6.9880    0.8773 </r>
       <r>    7.1326    0.0000 </r>
       <r>    7.3551    0.0000 </r>
       <r>    7.5984    0.0000 </r>
       <r>    7.9496    0.0000 </r>
       <r>    8.2241    0.0000 </r>
       <r>    8.2623    0.0000 </r>
       <r>    8.4529    0.0000 </r>
       <r>    8.5954    0.0000 </r>
       <r>    8.9526    0.0000 </r>
       <r>    9.5007    0.0000 </r>
       <r>    9.7904    0.0000 </r>
      </set>
      <set comment="kpoint 10">
       <r>  -55.8062    1.0000 </r>
       <r>  -55.7817    1.0000 </r>
       <r>  -55.7816    1.0000 </r>
       <r>  -55.7656    1.0000 </r>
       <r>  -55.6664    1.0000 </r>
       <r>  -55.6605    1.0000 </r>
       <r>  -29.6136    1.0000 </r>
       <r>  -29.4211    1.0000 </r>
       <r>  -29.4168    1.0000 </r>
       <r>  -29.3659    1.0000 </r>
       <r>  -29.3074    1.0000 </r>
       <r>  -29.1977    1.0000 </r>
       <r>  -29.1891    1.0000 </r>
       <r>  -29.1850    1.0000 </r>
       <r>  -29.1833    1.0000 </r>
       <r>  -29.1779    1.0000 </r>
       <r>  -29.1220    1.0000 </r>
       <r>  -29.0520    1.0000 </r>
       <r>  -29.0204    1.0000 </r>
       <r>  -29.0069    1.0000 </r>
       <r>  -28.9949    1.0000 </r>
       <r>  -28.9462    1.0000 </r>
       <r>  -28.9235    1.0000 </r>
       <r>  -28.9093    1.0000 </r>
       <r>   -3.7389    1.0000 </r>
       <r>   -0.8127    1.0000 </r>
       <r>   -0.2296    1.0000 </r>
       <r>    0.5370    1.0000 </r>
       <r>    1.2729    1.0000 </r>
       <r>    1.5300    1.0000 </r>
       <r>    1.5629    1.0000 </r>
       <r>    3.4637    1.0000 </r>
       <r>    3.6530    1.0000 </r>
       <r>    3.7303    1.0000 </r>
       <r>    3.7444    1.0000 </r>
       <r>    3.7607    1.0000 </r>
       <r>    3.8192    1.0000 </r>
       <r>    4.2940    1.0000 </r>
       <r>    4.5100    1.0000 </r>
       <r>    5.0802    1.0000 </r>
       <r>    5.2205    1.0000 </r>
       <r>    5.8744    1.0000 </r>
       <r>    5.9947    1.0000 </r>
       <r>    6.1566    1.0000 </r>
       <r>    6.1868    1.0000 </r>
       <r>    6.7052    1.0000 </r>
       <r>    6.8263    1.0000 </r>
       <r>    6.8354    1.0000 </r>
       <r>    7.4499    0.0000 </r>
       <r>    7.4520    0.0000 </r>
       <r>    7.6481    0.0000 </r>
       <r>    7.6718    0.0000 </r>
       <r>    7.9726    0.0000 </r>
       <r>    8.2128    0.0000 </r>
       <r>    8.5051    0.0000 </r>
       <r>    8.5391    0.0000 </r>
       <r>    8.8140    0.0000 </r>
       <r>    8.9073    0.0000 </r>
       <r>    9.5887    0.0000 </r>
       <r>    9.7771    0.0000 </r>
      </set>
      <set comment="kpoint 11">
       <r>  -55.7958    1.0000 </r>
       <r>  -55.7839    1.0000 </r>
       <r>  -55.7816    1.0000 </r>
       <r>  -55.7707    1.0000 </r>
       <r>  -55.6655    1.0000 </r>
       <r>  -55.6646    1.0000 </r>
       <r>  -29.4861    1.0000 </r>
       <r>  -29.4234    1.0000 </r>
       <r>  -29.3679    1.0000 </r>
       <r>  -29.3296    1.0000 </r>
       <r>  -29.2488    1.0000 </r>
       <r>  -29.2482    1.0000 </r>
       <r>  -29.2065    1.0000 </r>
       <r>  -29.1654    1.0000 </r>
       <r>  -29.1642    1.0000 </r>
       <r>  -29.1572    1.0000 </r>
       <r>  -29.1391    1.0000 </r>
       <r>  -29.1303    1.0000 </r>
       <r>  -29.0688    1.0000 </r>
       <r>  -29.0321    1.0000 </r>
       <r>  -29.0079    1.0000 </r>
       <r>  -28.9630    1.0000 </r>
       <r>  -28.9620    1.0000 </r>
       <r>  -28.9495    1.0000 </r>
       <r>   -2.6293    1.0000 </r>
       <r>   -1.9907    1.0000 </r>
       <r>   -0.3680    1.0000 </r>
       <r>    0.0891    1.0000 </r>
       <r>    1.9666    1.0000 </r>
       <r>    2.4181    1.0000 </r>
       <r>    2.7012    1.0000 </r>
       <r>    3.1033    1.0000 </r>
       <r>    3.2962    1.0000 </r>
       <r>    3.3992    1.0000 </r>
       <r>    3.6897    1.0000 </r>
       <r>    4.0762    1.0000 </r>
       <r>    4.2094    1.0000 </r>
       <r>    4.5555    1.0000 </r>
       <r>    4.5621    1.0000 </r>
       <r>    4.7319    1.0000 </r>
       <r>    5.1158    1.0000 </r>
       <r>    5.3098    1.0000 </r>
       <r>    5.3475    1.0000 </r>
       <r>    5.4672    1.0000 </r>
       <r>    5.8376    1.0000 </r>
       <r>    6.1133    1.0000 </r>
       <r>    6.5458    1.0000 </r>
       <r>    6.6679    1.0000 </r>
       <r>    6.7553    1.0000 </r>
       <r>    6.9565    0.9997 </r>
       <r>    7.3183    0.0000 </r>
       <r>    7.4331    0.0000 </r>
       <r>    7.7716    0.0000 </r>
       <r>    8.0721    0.0000 </r>
       <r>    8.1374    0.0000 </r>
       <r>    8.2815    0.0000 </r>
       <r>    8.3369    0.0000 </r>
       <r>    8.6842    0.0000 </r>
       <r>    9.3565    0.0000 </r>
       <r>   10.0590    0.0000 </r>
      </set>
      <set comment="kpoint 12">
       <r>  -55.7906    1.0000 </r>
       <r>  -55.7884    1.0000 </r>
       <r>  -55.7788    1.0000 </r>
       <r>  -55.7743    1.0000 </r>
       <r>  -55.6657    1.0000 </r>
       <r>  -55.6643    1.0000 </r>
       <r>  -29.4573    1.0000 </r>
       <r>  -29.4319    1.0000 </r>
       <r>  -29.3252    1.0000 </r>
       <r>  -29.3010    1.0000 </r>
       <r>  -29.2943    1.0000 </r>
       <r>  -29.2633    1.0000 </r>
       <r>  -29.2103    1.0000 </r>
       <r>  -29.2016    1.0000 </r>
       <r>  -29.1820    1.0000 </r>
       <r>  -29.1684    1.0000 </r>
       <r>  -29.1217    1.0000 </r>
       <r>  -29.1093    1.0000 </r>
       <r>  -29.0620    1.0000 </r>
       <r>  -29.0303    1.0000 </r>
       <r>  -29.0030    1.0000 </r>
       <r>  -28.9882    1.0000 </r>
       <r>  -28.9697    1.0000 </r>
       <r>  -28.9324    1.0000 </r>
       <r>   -2.5121    1.0000 </r>
       <r>   -2.0089    1.0000 </r>
       <r>   -0.1566    1.0000 </r>
       <r>   -0.1235    1.0000 </r>
       <r>    2.1589    1.0000 </r>
       <r>    2.3045    1.0000 </r>
       <r>    2.4090    1.0000 </r>
       <r>    3.0506    1.0000 </r>
       <r>    3.1994    1.0000 </r>
       <r>    3.7522    1.0000 </r>
       <r>    3.8917    1.0000 </r>
       <r>    4.0652    1.0000 </r>
       <r>    4.2346    1.0000 </r>
       <r>    4.3526    1.0000 </r>
       <r>    4.5285    1.0000 </r>
       <r>    4.7042    1.0000 </r>
       <r>    4.9153    1.0000 </r>
       <r>    5.0304    1.0000 </r>
       <r>    5.3401    1.0000 </r>
       <r>    5.5797    1.0000 </r>
       <r>    5.9040    1.0000 </r>
       <r>    6.0425    1.0000 </r>
       <r>    6.4629    1.0000 </r>
       <r>    6.5347    1.0000 </r>
       <r>    6.7710    1.0000 </r>
       <r>    6.8515    1.0000 </r>
       <r>    7.5015    0.0000 </r>
       <r>    7.6088    0.0000 </r>
       <r>    7.7122    0.0000 </r>
       <r>    7.9287    0.0000 </r>
       <r>    7.9892    0.0000 </r>
       <r>    8.3009    0.0000 </r>
       <r>    8.4119    0.0000 </r>
       <r>    8.8868    0.0000 </r>
       <r>    9.6194    0.0000 </r>
       <r>    9.7903    0.0000 </r>
      </set>
      <set comment="kpoint 13">
       <r>  -55.7942    1.0000 </r>
       <r>  -55.7857    1.0000 </r>
       <r>  -55.7782    1.0000 </r>
       <r>  -55.7748    1.0000 </r>
       <r>  -55.6663    1.0000 </r>
       <r>  -55.6629    1.0000 </r>
       <r>  -29.5080    1.0000 </r>
       <r>  -29.3993    1.0000 </r>
       <r>  -29.3416    1.0000 </r>
       <r>  -29.3019    1.0000 </r>
       <r>  -29.2705    1.0000 </r>
       <r>  -29.2657    1.0000 </r>
       <r>  -29.2441    1.0000 </r>
       <r>  -29.1968    1.0000 </r>
       <r>  -29.1910    1.0000 </r>
       <r>  -29.1818    1.0000 </r>
       <r>  -29.1153    1.0000 </r>
       <r>  -29.0751    1.0000 </r>
       <r>  -29.0702    1.0000 </r>
       <r>  -29.0158    1.0000 </r>
       <r>  -29.0010    1.0000 </r>
       <r>  -28.9870    1.0000 </r>
       <r>  -28.9676    1.0000 </r>
       <r>  -28.9161    1.0000 </r>
       <r>   -2.9817    1.0000 </r>
       <r>   -1.3463    1.0000 </r>
       <r>   -0.3347    1.0000 </r>
       <r>    0.0099    1.0000 </r>
       <r>    1.7749    1.0000 </r>
       <r>    1.8354    1.0000 </r>
       <r>    2.7869    1.0000 </r>
       <r>    2.8334    1.0000 </r>
       <r>    3.5964    1.0000 </r>
       <r>    3.7847    1.0000 </r>
       <r>    3.9237    1.0000 </r>
       <r>    4.1395    1.0000 </r>
       <r>    4.2423    1.0000 </r>
       <r>    4.3073    1.0000 </r>
       <r>    4.4095    1.0000 </r>
       <r>    4.5745    1.0000 </r>
       <r>    4.6619    1.0000 </r>
       <r>    5.0966    1.0000 </r>
       <r>    5.6150    1.0000 </r>
       <r>    5.6341    1.0000 </r>
       <r>    5.9302    1.0000 </r>
       <r>    6.2644    1.0000 </r>
       <r>    6.4651    1.0000 </r>
       <r>    6.6949    1.0000 </r>
       <r>    6.7655    1.0000 </r>
       <r>    6.9766    0.9756 </r>
       <r>    7.3667    0.0000 </r>
       <r>    7.3916    0.0000 </r>
       <r>    7.8913    0.0000 </r>
       <r>    7.9188    0.0000 </r>
       <r>    8.0568    0.0000 </r>
       <r>    8.3651    0.0000 </r>
       <r>    8.7716    0.0000 </r>
       <r>    9.3167    0.0000 </r>
       <r>    9.4035    0.0000 </r>
       <r>   10.0035    0.0000 </r>
      </set>
      <set comment="kpoint 14">
       <r>  -55.7993    1.0000 </r>
       <r>  -55.7819    1.0000 </r>
       <r>  -55.7816    1.0000 </r>
       <r>  -55.7709    1.0000 </r>
       <r>  -55.6664    1.0000 </r>
       <r>  -55.6619    1.0000 </r>
       <r>  -29.5531    1.0000 </r>
       <r>  -29.3963    1.0000 </r>
       <r>  -29.3790    1.0000 </r>
       <r>  -29.3285    1.0000 </r>
       <r>  -29.2866    1.0000 </r>
       <r>  -29.2262    1.0000 </r>
       <r>  -29.2124    1.0000 </r>
       <r>  -29.2047    1.0000 </r>
       <r>  -29.1979    1.0000 </r>
       <r>  -29.1600    1.0000 </r>
       <r>  -29.1435    1.0000 </r>
       <r>  -29.0635    1.0000 </r>
       <r>  -29.0350    1.0000 </r>
       <r>  -29.0285    1.0000 </r>
       <r>  -28.9957    1.0000 </r>
       <r>  -28.9634    1.0000 </r>
       <r>  -28.9598    1.0000 </r>
       <r>  -28.9094    1.0000 </r>
       <r>   -3.3160    1.0000 </r>
       <r>   -0.8701    1.0000 </r>
       <r>   -0.5184    1.0000 </r>
       <r>    0.1330    1.0000 </r>
       <r>    1.4766    1.0000 </r>
       <r>    1.6844    1.0000 </r>
       <r>    2.3954    1.0000 </r>
       <r>    3.3470    1.0000 </r>
       <r>    3.5967    1.0000 </r>
       <r>    3.7969    1.0000 </r>
       <r>    3.8454    1.0000 </r>
       <r>    4.0184    1.0000 </r>
       <r>    4.0936    1.0000 </r>
       <r>    4.2509    1.0000 </r>
       <r>    4.4989    1.0000 </r>
       <r>    4.6885    1.0000 </r>
       <r>    4.7827    1.0000 </r>
       <r>    5.3592    1.0000 </r>
       <r>    5.5292    1.0000 </r>
       <r>    5.7562    1.0000 </r>
       <r>    6.0515    1.0000 </r>
       <r>    6.7024    1.0000 </r>
       <r>    6.7136    1.0000 </r>
       <r>    6.7154    1.0000 </r>
       <r>    6.8461    1.0000 </r>
       <r>    7.1421    0.0000 </r>
       <r>    7.2729    0.0000 </r>
       <r>    7.3198    0.0000 </r>
       <r>    7.9074    0.0000 </r>
       <r>    8.1877    0.0000 </r>
       <r>    8.1967    0.0000 </r>
       <r>    8.3404    0.0000 </r>
       <r>    8.8891    0.0000 </r>
       <r>    9.1742    0.0000 </r>
       <r>   10.0522    0.0000 </r>
       <r>   10.0993    0.0000 </r>
      </set>
      <set comment="kpoint 15">
       <r>  -55.7866    1.0000 </r>
       <r>  -55.7862    1.0000 </r>
       <r>  -55.7817    1.0000 </r>
       <r>  -55.7778    1.0000 </r>
       <r>  -55.6663    1.0000 </r>
       <r>  -55.6635    1.0000 </r>
       <r>  -29.4593    1.0000 </r>
       <r>  -29.3830    1.0000 </r>
       <r>  -29.3182    1.0000 </r>
       <r>  -29.3130    1.0000 </r>
       <r>  -29.2768    1.0000 </r>
       <r>  -29.2453    1.0000 </r>
       <r>  -29.2423    1.0000 </r>
       <r>  -29.2349    1.0000 </r>
       <r>  -29.2170    1.0000 </r>
       <r>  -29.1905    1.0000 </r>
       <r>  -29.0886    1.0000 </r>
       <r>  -29.0835    1.0000 </r>
       <r>  -29.0570    1.0000 </r>
       <r>  -29.0339    1.0000 </r>
       <r>  -29.0174    1.0000 </r>
       <r>  -29.0028    1.0000 </r>
       <r>  -28.9732    1.0000 </r>
       <r>  -28.9162    1.0000 </r>
       <r>   -2.7089    1.0000 </r>
       <r>   -1.5130    1.0000 </r>
       <r>   -0.2374    1.0000 </r>
       <r>   -0.1376    1.0000 </r>
       <r>    1.8892    1.0000 </r>
       <r>    1.9802    1.0000 </r>
       <r>    2.5449    1.0000 </r>
       <r>    3.1739    1.0000 </r>
       <r>    3.3096    1.0000 </r>
       <r>    3.7237    1.0000 </r>
       <r>    3.8217    1.0000 </r>
       <r>    4.1435    1.0000 </r>
       <r>    4.2229    1.0000 </r>
       <r>    4.4164    1.0000 </r>
       <r>    4.5014    1.0000 </r>
       <r>    4.6729    1.0000 </r>
       <r>    4.6973    1.0000 </r>
       <r>    4.7635    1.0000 </r>
       <r>    5.5162    1.0000 </r>
       <r>    5.7554    1.0000 </r>
       <r>    5.8684    1.0000 </r>
       <r>    6.1326    1.0000 </r>
       <r>    6.1409    1.0000 </r>
       <r>    6.6778    1.0000 </r>
       <r>    6.7091    1.0000 </r>
       <r>    6.8634    1.0000 </r>
       <r>    7.3276    0.0000 </r>
       <r>    7.5223    0.0000 </r>
       <r>    7.6905    0.0000 </r>
       <r>    7.7343    0.0000 </r>
       <r>    7.9124    0.0000 </r>
       <r>    8.4259    0.0000 </r>
       <r>    8.8850    0.0000 </r>
       <r>    9.3845    0.0000 </r>
       <r>   10.1334    0.0000 </r>
       <r>   10.4560    0.0000 </r>
      </set>
      <set comment="kpoint 16">
       <r>  -55.7902    1.0000 </r>
       <r>  -55.7822    1.0000 </r>
       <r>  -55.7815    1.0000 </r>
       <r>  -55.7788    1.0000 </r>
       <r>  -55.6664    1.0000 </r>
       <r>  -55.6630    1.0000 </r>
       <r>  -29.4819    1.0000 </r>
       <r>  -29.3699    1.0000 </r>
       <r>  -29.3305    1.0000 </r>
       <r>  -29.2889    1.0000 </r>
       <r>  -29.2745    1.0000 </r>
       <r>  -29.2674    1.0000 </r>
       <r>  -29.2397    1.0000 </r>
       <r>  -29.2394    1.0000 </r>
       <r>  -29.2144    1.0000 </r>
       <r>  -29.1980    1.0000 </r>
       <r>  -29.0864    1.0000 </r>
       <r>  -29.0697    1.0000 </r>
       <r>  -29.0566    1.0000 </r>
       <r>  -29.0391    1.0000 </r>
       <r>  -29.0206    1.0000 </r>
       <r>  -28.9963    1.0000 </r>
       <r>  -28.9691    1.0000 </r>
       <r>  -28.9095    1.0000 </r>
       <r>   -2.8795    1.0000 </r>
       <r>   -1.2121    1.0000 </r>
       <r>   -0.3027    1.0000 </r>
       <r>   -0.1299    1.0000 </r>
       <r>    1.6665    1.0000 </r>
       <r>    1.8647    1.0000 </r>
       <r>    2.7058    1.0000 </r>
       <r>    3.0173    1.0000 </r>
       <r>    3.6070    1.0000 </r>
       <r>    3.6102    1.0000 </r>
       <r>    3.9185    1.0000 </r>
       <r>    3.9967    1.0000 </r>
       <r>    4.3403    1.0000 </r>
       <r>    4.3878    1.0000 </r>
       <r>    4.4352    1.0000 </r>
       <r>    4.4760    1.0000 </r>
       <r>    4.6480    1.0000 </r>
       <r>    4.9597    1.0000 </r>
       <r>    5.6509    1.0000 </r>
       <r>    5.7482    1.0000 </r>
       <r>    5.8966    1.0000 </r>
       <r>    6.1160    1.0000 </r>
       <r>    6.1984    1.0000 </r>
       <r>    6.6971    1.0000 </r>
       <r>    6.8516    1.0000 </r>
       <r>    6.9517    0.9999 </r>
       <r>    7.1647    0.0000 </r>
       <r>    7.4724    0.0000 </r>
       <r>    7.6009    0.0000 </r>
       <r>    7.7921    0.0000 </r>
       <r>    7.8911    0.0000 </r>
       <r>    8.4464    0.0000 </r>
       <r>    9.3321    0.0000 </r>
       <r>    9.6615    0.0000 </r>
       <r>   10.0562    0.0000 </r>
       <r>   10.4466    0.0000 </r>
      </set>
      <set comment="kpoint 17">
       <r>  -55.8067    1.0000 </r>
       <r>  -55.7817    1.0000 </r>
       <r>  -55.7815    1.0000 </r>
       <r>  -55.7652    1.0000 </r>
       <r>  -55.6664    1.0000 </r>
       <r>  -55.6603    1.0000 </r>
       <r>  -29.6188    1.0000 </r>
       <r>  -29.4232    1.0000 </r>
       <r>  -29.4200    1.0000 </r>
       <r>  -29.3689    1.0000 </r>
       <r>  -29.3093    1.0000 </r>
       <r>  -29.1976    1.0000 </r>
       <r>  -29.1869    1.0000 </r>
       <r>  -29.1866    1.0000 </r>
       <r>  -29.1837    1.0000 </r>
       <r>  -29.1745    1.0000 </r>
       <r>  -29.1189    1.0000 </r>
       <r>  -29.0506    1.0000 </r>
       <r>  -29.0198    1.0000 </r>
       <r>  -29.0042    1.0000 </r>
       <r>  -28.9948    1.0000 </r>
       <r>  -28.9448    1.0000 </r>
       <r>  -28.9202    1.0000 </r>
[...]
       <r>    0.9015    1.0000 </r>
       <r>    1.3566    1.0000 </r>
       <r>    1.5007    1.0000 </r>
       <r>    2.3704    1.0000 </r>
       <r>    3.5390    1.0000 </r>
       <r>    3.5658    1.0000 </r>
       <r>    3.6939    1.0000 </r>
       <r>    3.7298    1.0000 </r>
       <r>    3.7684    1.0000 </r>
       <r>    4.0052    1.0000 </r>
       <r>    4.6728    1.0000 </r>
       <r>    4.6806    1.0000 </r>
       <r>    5.1217    1.0000 </r>
       <r>    5.1744    1.0000 </r>
       <r>    5.6069    1.0000 </r>
       <r>    5.6889    1.0000 </r>
       <r>    5.9148    1.0000 </r>
       <r>    6.0351    1.0000 </r>
       <r>    6.0637    1.0000 </r>
       <r>    6.4044    1.0000 </r>
       <r>    7.0281    0.0470 </r>
       <r>    7.2748    0.0000 </r>
       <r>    7.2811    0.0000 </r>
       <r>    7.2963    0.0000 </r>
       <r>    7.3094    0.0000 </r>
       <r>    7.5937    0.0000 </r>
       <r>    7.7033    0.0000 </r>
       <r>    7.7247    0.0000 </r>
       <r>    7.9472    0.0000 </r>
       <r>    8.0320    0.0000 </r>
       <r>    8.2192    0.0000 </r>
       <r>    8.4370    0.0000 </r>
       <r>    9.5716    0.0000 </r>
      </set>
      <set comment="kpoint 116">
       <r>  -55.8001    1.0000 </r>
       <r>  -55.7820    1.0000 </r>
       <r>  -55.7817    1.0000 </r>
       <r>  -55.7641    1.0000 </r>
       <r>  -55.6676    1.0000 </r>
       <r>  -55.6665    1.0000 </r>
       <r>  -29.4646    1.0000 </r>
       <r>  -29.3915    1.0000 </r>
       <r>  -29.3841    1.0000 </r>
       <r>  -29.3764    1.0000 </r>
       <r>  -29.2280    1.0000 </r>
       <r>  -29.2012    1.0000 </r>
       <r>  -29.1719    1.0000 </r>
       <r>  -29.1617    1.0000 </r>
       <r>  -29.1520    1.0000 </r>
       <r>  -29.1121    1.0000 </r>
       <r>  -29.0915    1.0000 </r>
       <r>  -29.0633    1.0000 </r>
       <r>  -29.0616    1.0000 </r>
       <r>  -29.0579    1.0000 </r>
       <r>  -29.0514    1.0000 </r>
       <r>  -29.0403    1.0000 </r>
       <r>  -29.0353    1.0000 </r>
       <r>  -29.0113    1.0000 </r>
       <r>   -2.6490    1.0000 </r>
       <r>   -1.6806    1.0000 </r>
       <r>   -0.5942    1.0000 </r>
       <r>    0.9024    1.0000 </r>
       <r>    1.3845    1.0000 </r>
       <r>    1.5174    1.0000 </r>
       <r>    2.2056    1.0000 </r>
       <r>    3.5567    1.0000 </r>
       <r>    3.5781    1.0000 </r>
       <r>    3.7015    1.0000 </r>
       <r>    3.7743    1.0000 </r>
       <r>    3.8065    1.0000 </r>
       <r>    4.0216    1.0000 </r>
       <r>    4.6899    1.0000 </r>
       <r>    4.7346    1.0000 </r>
       <r>    5.1042    1.0000 </r>
       <r>    5.1666    1.0000 </r>
       <r>    5.5274    1.0000 </r>
       <r>    5.6144    1.0000 </r>
       <r>    5.8649    1.0000 </r>
       <r>    5.9872    1.0000 </r>
       <r>    6.1836    1.0000 </r>
       <r>    6.3681    1.0000 </r>
       <r>    7.2051    0.0000 </r>
       <r>    7.2300    0.0000 </r>
       <r>    7.2474    0.0000 </r>
       <r>    7.3234    0.0000 </r>
       <r>    7.3666    0.0000 </r>
       <r>    7.5799    0.0000 </r>
       <r>    7.6354    0.0000 </r>
       <r>    7.6604    0.0000 </r>
       <r>    7.8137    0.0000 </r>
       <r>    7.9885    0.0000 </r>
       <r>    8.2222    0.0000 </r>
       <r>    8.3592    0.0000 </r>
       <r>    9.7301    0.0000 </r>
      </set>
     </set>
    </set>
   </array>
  </eigenvalues>
  <separator name="orbital magnetization" >
   <v name="MAGDIPOLOUT">      0.00000000      0.00000000      0.00000000</v>
  </separator>
  <dos>
   <i name="efermi">      7.00444918 </i>
   <total>
    <array>
     <dimension dim="1">gridpoints</dimension>
     <dimension dim="2">spin</dimension>
     <field>energy</field>
     <field>total</field>
     <field>integrated</field>
     <set>
      <set comment="spin 1">
       <r>   -59.1256     0.0000     0.0000 </r>
       <r>   -58.8824     0.0000     0.0000 </r>
       <r>   -58.6391     0.0000     0.0000 </r>
       <r>   -58.3959     0.0000     0.0000 </r>
       <r>   -58.1526     0.0000     0.0000 </r>
       <r>   -57.9094     0.0000     0.0000 </r>
       <r>   -57.6662     0.0000     0.0000 </r>
       <r>   -57.4229     0.0000     0.0000 </r>
       <r>   -57.1797     0.0000     0.0000 </r>
       <r>   -56.9364     0.0000     0.0000 </r>
       <r>   -56.6932     0.0000     0.0000 </r>
       <r>   -56.4499     0.0000     0.0000 </r>
       <r>   -56.2067     0.0000     0.0000 </r>
       <r>   -55.9635     0.0000     0.0000 </r>
       <r>   -55.7202    32.8870     7.9996 </r>
       <r>   -55.4770     0.0000    12.0000 </r>
       <r>   -55.2337     0.0000    12.0000 </r>
       <r>   -54.9905     0.0000    12.0000 </r>
       <r>   -54.7472     0.0000    12.0000 </r>
       <r>   -54.5040     0.0000    12.0000 </r>
       <r>   -54.2608     0.0000    12.0000 </r>
       <r>   -54.0175     0.0000    12.0000 </r>
       <r>   -53.7743     0.0000    12.0000 </r>
       <r>   -53.5310     0.0000    12.0000 </r>
       <r>   -53.2878     0.0000    12.0000 </r>
       <r>   -53.0445     0.0000    12.0000 </r>
       <r>   -52.8013     0.0000    12.0000 </r>
       <r>   -52.5580     0.0000    12.0000 </r>
       <r>   -52.3148     0.0000    12.0000 </r>
       <r>   -52.0716     0.0000    12.0000 </r>
       <r>   -51.8283     0.0000    12.0000 </r>
       <r>   -51.5851     0.0000    12.0000 </r>
       <r>   -51.3418     0.0000    12.0000 </r>
       <r>   -51.0986     0.0000    12.0000 </r>
       <r>   -50.8553     0.0000    12.0000 </r>
       <r>   -50.6121     0.0000    12.0000 </r>
       <r>   -50.3689     0.0000    12.0000 </r>
       <r>   -50.1256     0.0000    12.0000 </r>
       <r>   -49.8824     0.0000    12.0000 </r>
       <r>   -49.6391     0.0000    12.0000 </r>
       <r>   -49.3959     0.0000    12.0000 </r>
       <r>   -49.1526     0.0000    12.0000 </r>
       <r>   -48.9094     0.0000    12.0000 </r>
       <r>   -48.6662     0.0000    12.0000 </r>
       <r>   -48.4229     0.0000    12.0000 </r>
       <r>   -48.1797     0.0000    12.0000 </r>
       <r>   -47.9364     0.0000    12.0000 </r>
       <r>   -47.6932     0.0000    12.0000 </r>
       <r>   -47.4499     0.0000    12.0000 </r>
       <r>   -47.2067     0.0000    12.0000 </r>
       <r>   -46.9635     0.0000    12.0000 </r>
       <r>   -46.7202     0.0000    12.0000 </r>
       <r>   -46.4770     0.0000    12.0000 </r>
       <r>   -46.2337     0.0000    12.0000 </r>
       <r>   -45.9905     0.0000    12.0000 </r>
       <r>   -45.7472     0.0000    12.0000 </r>
       <r>   -45.5040     0.0000    12.0000 </r>
       <r>   -45.2607     0.0000    12.0000 </r>
       <r>   -45.0175     0.0000    12.0000 </r>
       <r>   -44.7743     0.0000    12.0000 </r>
       <r>   -44.5310     0.0000    12.0000 </r>
       <r>   -44.2878     0.0000    12.0000 </r>
       <r>   -44.0445     0.0000    12.0000 </r>
       <r>   -43.8013     0.0000    12.0000 </r>
       <r>   -43.5580     0.0000    12.0000 </r>
       <r>   -43.3148     0.0000    12.0000 </r>
       <r>   -43.0716     0.0000    12.0000 </r>
       <r>   -42.8283     0.0000    12.0000 </r>
       <r>   -42.5851     0.0000    12.0000 </r>
       <r>   -42.3418     0.0000    12.0000 </r>
       <r>   -42.0986     0.0000    12.0000 </r>
       <r>   -41.8553     0.0000    12.0000 </r>
       <r>   -41.6121     0.0000    12.0000 </r>
       <r>   -41.3689     0.0000    12.0000 </r>
       <r>   -41.1256     0.0000    12.0000 </r>
       <r>   -40.8824     0.0000    12.0000 </r>
       <r>   -40.6391     0.0000    12.0000 </r>
       <r>   -40.3959     0.0000    12.0000 </r>
       <r>   -40.1526     0.0000    12.0000 </r>
       <r>   -39.9094     0.0000    12.0000 </r>
       <r>   -39.6661     0.0000    12.0000 </r>
       <r>   -39.4229     0.0000    12.0000 </r>
       <r>   -39.1797     0.0000    12.0000 </r>
       <r>   -38.9364     0.0000    12.0000 </r>
       <r>   -38.6932     0.0000    12.0000 </r>
       <r>   -38.4499     0.0000    12.0000 </r>
       <r>   -38.2067     0.0000    12.0000 </r>
       <r>   -37.9634     0.0000    12.0000 </r>
       <r>   -37.7202     0.0000    12.0000 </r>
       <r>   -37.4770     0.0000    12.0000 </r>
       <r>   -37.2337     0.0000    12.0000 </r>
       <r>   -36.9905     0.0000    12.0000 </r>
       <r>   -36.7472     0.0000    12.0000 </r>
       <r>   -36.5040     0.0000    12.0000 </r>
       <r>   -36.2607     0.0000    12.0000 </r>
       <r>   -36.0175     0.0000    12.0000 </r>
       <r>   -35.7743     0.0000    12.0000 </r>
       <r>   -35.5310     0.0000    12.0000 </r>
       <r>   -35.2878     0.0000    12.0000 </r>
       <r>   -35.0445     0.0000    12.0000 </r>
       <r>   -34.8013     0.0000    12.0000 </r>
       <r>   -34.5580     0.0000    12.0000 </r>
       <r>   -34.3148     0.0000    12.0000 </r>
       <r>   -34.0716     0.0000    12.0000 </r>
       <r>   -33.8283     0.0000    12.0000 </r>
       <r>   -33.5851     0.0000    12.0000 </r>
       <r>   -33.3418     0.0000    12.0000 </r>
       <r>   -33.0986     0.0000    12.0000 </r>
       <r>   -32.8553     0.0000    12.0000 </r>
       <r>   -32.6121     0.0000    12.0000 </r>
       <r>   -32.3688     0.0000    12.0000 </r>
       <r>   -32.1256     0.0000    12.0000 </r>
       <r>   -31.8824     0.0000    12.0000 </r>
       <r>   -31.6391     0.0000    12.0000 </r>
       <r>   -31.3959     0.0000    12.0000 </r>
       <r>   -31.1526     0.0000    12.0000 </r>
       <r>   -30.9094     0.0000    12.0000 </r>
       <r>   -30.6661     0.0000    12.0000 </r>
       <r>   -30.4229     0.0000    12.0000 </r>
       <r>   -30.1797     0.0000    12.0000 </r>
       <r>   -29.9364     0.0000    12.0000 </r>
       <r>   -29.6932     0.0000    12.0000 </r>
       <r>   -29.4499     8.5198    14.1489 </r>
       <r>   -29.2067    33.5555    25.0856 </r>
       <r>   -28.9634    47.3313    44.6457 </r>
       <r>   -28.7202     0.0000    48.0000 </r>
       <r>   -28.4770     0.0000    48.0000 </r>
       <r>   -28.2337     0.0000    48.0000 </r>
       <r>   -27.9905     0.0000    48.0000 </r>
       <r>   -27.7472     0.0000    48.0000 </r>
       <r>   -27.5040     0.0000    48.0000 </r>
       <r>   -27.2607     0.0000    48.0000 </r>
       <r>   -27.0175     0.0000    48.0000 </r>
       <r>   -26.7742     0.0000    48.0000 </r>
       <r>   -26.5310     0.0000    48.0000 </r>
       <r>   -26.2878     0.0000    48.0000 </r>
       <r>   -26.0445     0.0000    48.0000 </r>
       <r>   -25.8013     0.0000    48.0000 </r>
       <r>   -25.5580     0.0000    48.0000 </r>
       <r>   -25.3148     0.0000    48.0000 </r>
       <r>   -25.0715     0.0000    48.0000 </r>
       <r>   -24.8283     0.0000    48.0000 </r>
       <r>   -24.5851     0.0000    48.0000 </r>
       <r>   -24.3418     0.0000    48.0000 </r>
       <r>   -24.0986     0.0000    48.0000 </r>
       <r>   -23.8553     0.0000    48.0000 </r>
       <r>   -23.6121     0.0000    48.0000 </r>
       <r>   -23.3688     0.0000    48.0000 </r>
       <r>   -23.1256     0.0000    48.0000 </r>
       <r>   -22.8824     0.0000    48.0000 </r>
       <r>   -22.6391     0.0000    48.0000 </r>
       <r>   -22.3959     0.0000    48.0000 </r>
       <r>   -22.1526     0.0000    48.0000 </r>
       <r>   -21.9094     0.0000    48.0000 </r>
       <r>   -21.6661     0.0000    48.0000 </r>
       <r>   -21.4229     0.0000    48.0000 </r>
       <r>   -21.1796     0.0000    48.0000 </r>
       <r>   -20.9364     0.0000    48.0000 </r>
       <r>   -20.6932     0.0000    48.0000 </r>
       <r>   -20.4499     0.0000    48.0000 </r>
       <r>   -20.2067     0.0000    48.0000 </r>
       <r>   -19.9634     0.0000    48.0000 </r>
       <r>   -19.7202     0.0000    48.0000 </r>
       <r>   -19.4769     0.0000    48.0000 </r>
       <r>   -19.2337     0.0000    48.0000 </r>
       <r>   -18.9905     0.0000    48.0000 </r>
       <r>   -18.7472     0.0000    48.0000 </r>
       <r>   -18.5040     0.0000    48.0000 </r>
       <r>   -18.2607     0.0000    48.0000 </r>
       <r>   -18.0175     0.0000    48.0000 </r>
       <r>   -17.7742     0.0000    48.0000 </r>
       <r>   -17.5310     0.0000    48.0000 </r>
       <r>   -17.2878     0.0000    48.0000 </r>
       <r>   -17.0445     0.0000    48.0000 </r>
       <r>   -16.8013     0.0000    48.0000 </r>
       <r>   -16.5580     0.0000    48.0000 </r>
       <r>   -16.3148     0.0000    48.0000 </r>
       <r>   -16.0715     0.0000    48.0000 </r>
       <r>   -15.8283     0.0000    48.0000 </r>
       <r>   -15.5851     0.0000    48.0000 </r>
       <r>   -15.3418     0.0000    48.0000 </r>
       <r>   -15.0986     0.0000    48.0000 </r>
       <r>   -14.8553     0.0000    48.0000 </r>
       <r>   -14.6121     0.0000    48.0000 </r>
       <r>   -14.3688     0.0000    48.0000 </r>
       <r>   -14.1256     0.0000    48.0000 </r>
       <r>   -13.8823     0.0000    48.0000 </r>
       <r>   -13.6391     0.0000    48.0000 </r>
       <r>   -13.3959     0.0000    48.0000 </r>
       <r>   -13.1526     0.0000    48.0000 </r>
       <r>   -12.9094     0.0000    48.0000 </r>
       <r>   -12.6661     0.0000    48.0000 </r>
       <r>   -12.4229     0.0000    48.0000 </r>
       <r>   -12.1796     0.0000    48.0000 </r>
       <r>   -11.9364     0.0000    48.0000 </r>
       <r>   -11.6932     0.0000    48.0000 </r>
       <r>   -11.4499     0.0000    48.0000 </r>
       <r>   -11.2067     0.0000    48.0000 </r>
       <r>   -10.9634     0.0000    48.0000 </r>
       <r>   -10.7202     0.0000    48.0000 </r>
       <r>   -10.4769     0.0000    48.0000 </r>
       <r>   -10.2337     0.0000    48.0000 </r>
       <r>    -9.9905     0.0000    48.0000 </r>
       <r>    -9.7472     0.0000    48.0000 </r>
       <r>    -9.5040     0.0000    48.0000 </r>
       <r>    -9.2607     0.0000    48.0000 </r>
       <r>    -9.0175     0.0000    48.0000 </r>
       <r>    -8.7742     0.0000    48.0000 </r>
       <r>    -8.5310     0.0000    48.0000 </r>
       <r>    -8.2877     0.0000    48.0000 </r>
       <r>    -8.0445     0.0000    48.0000 </r>
       <r>    -7.8013     0.0000    48.0000 </r>
       <r>    -7.5580     0.0000    48.0000 </r>
       <r>    -7.3148     0.0000    48.0000 </r>
       <r>    -7.0715     0.0000    48.0000 </r>
       <r>    -6.8283     0.0000    48.0000 </r>
       <r>    -6.5850     0.0000    48.0000 </r>
       <r>    -6.3418     0.0000    48.0000 </r>
       <r>    -6.0986     0.0000    48.0000 </r>
       <r>    -5.8553     0.0000    48.0000 </r>
       <r>    -5.6121     0.0000    48.0000 </r>
       <r>    -5.3688     0.0000    48.0000 </r>
       <r>    -5.1256     0.0000    48.0000 </r>
       <r>    -4.8823     0.0000    48.0000 </r>
       <r>    -4.6391     0.0000    48.0000 </r>
       <r>    -4.3959     0.0000    48.0000 </r>
       <r>    -4.1526     0.0000    48.0000 </r>
       <r>    -3.9094     0.0056    48.0014 </r>
       <r>    -3.6661     0.2937    48.0765 </r>
       <r>    -3.4229     0.6686    48.2698 </r>
       <r>    -3.1796     0.5903    48.4548 </r>
       <r>    -2.9364     0.8524    48.7941 </r>
       <r>    -2.6932     1.4822    49.2432 </r>
       <r>    -2.4499     1.4882    49.7191 </r>
       <r>    -2.2067     1.0547    50.1647 </r>
       <r>    -1.9634     1.2614    50.6232 </r>
       <r>    -1.7202     0.8803    50.9794 </r>
       <r>    -1.4769     1.1035    51.3398 </r>
       <r>    -1.2337     0.6746    51.5927 </r>
       <r>    -0.9904     0.3602    51.7356 </r>
       <r>    -0.7472     1.1171    52.0166 </r>
       <r>    -0.5040     1.5106    52.5409 </r>
       <r>    -0.2607     2.3154    53.3285 </r>
       <r>    -0.0175     3.1048    54.5256 </r>
       <r>     0.2258     1.3776    55.0800 </r>
       <r>     0.4690     0.9034    55.4953 </r>
       <r>     0.7123     0.9358    55.8042 </r>
       <r>     0.9555     0.7131    56.0357 </r>
       <r>     1.1987     0.3574    56.1431 </r>
       <r>     1.4420     1.0052    56.4588 </r>
       <r>     1.6852     2.0522    57.2390 </r>
       <r>     1.9285     2.6325    58.2220 </r>
       <r>     2.1717     2.7273    59.3216 </r>
       <r>     2.4150     2.2062    60.2866 </r>
       <r>     2.6582     2.7957    61.2974 </r>
       <r>     2.9014     2.2654    62.1735 </r>
       <r>     3.1447     3.1070    63.2455 </r>
       <r>     3.3879     4.0298    64.6078 </r>
       <r>     3.6312     6.6349    66.7465 </r>
       <r>     3.8744     9.0492    69.7369 </r>
       <r>     4.1177     6.4992    72.0094 </r>
       <r>     4.3609     8.5650    74.9762 </r>
       <r>     4.6042     8.3218    77.5957 </r>
       <r>     4.8474     4.2034    79.5684 </r>
       <r>     5.0906     4.2398    81.0160 </r>
       <r>     5.3339     5.7446    83.2188 </r>
       <r>     5.5771     5.6967    85.5234 </r>
       <r>     5.8204     5.4710    87.6981 </r>
       <r>     6.0636     5.4288    89.8716 </r>
       <r>     6.3069     4.2766    91.6831 </r>
       <r>     6.5501     4.2298    93.0085 </r>
       <r>     6.7933     7.7187    95.7245 </r>
       <r>     7.0366     6.8899    98.3035 </r>
       <r>     7.2798     5.2013   100.2040 </r>
       <r>     7.5231     6.5588   102.4576 </r>
       <r>     7.7663     6.8159   105.0508 </r>
       <r>     8.0096     9.7328   108.3062 </r>
       <r>     8.2528     8.1172   111.2908 </r>
       <r>     8.4960     4.4808   113.2328 </r>
       <r>     8.7393     3.1898   114.5361 </r>
       <r>     8.9825     2.5227   115.7208 </r>
       <r>     9.2258     2.8721   116.7241 </r>
       <r>     9.4690     3.5518   118.2160 </r>
       <r>     9.7123     1.6627   118.7718 </r>
       <r>     9.9555     1.5512   119.4232 </r>
       <r>    10.1987     1.0752   119.7922 </r>
       <r>    10.4420     0.4413   119.9339 </r>
       <r>    10.6852     0.0210   120.0000 </r>
       <r>    10.9285     0.0000   120.0000 </r>
       <r>    11.1717     0.0000   120.0000 </r>
       <r>    11.4150     0.0000   120.0000 </r>
       <r>    11.6582     0.0000   120.0000 </r>
       <r>    11.9015     0.0000   120.0000 </r>
       <r>    12.1447     0.0000   120.0000 </r>
       <r>    12.3879     0.0000   120.0000 </r>
       <r>    12.6312     0.0000   120.0000 </r>
       <r>    12.8744     0.0000   120.0000 </r>
       <r>    13.1177     0.0000   120.0000 </r>
       <r>    13.3609     0.0000   120.0000 </r>
       <r>    13.6042     0.0000   120.0000 </r>
       <r>    13.8474     0.0000   120.0000 </r>
      </set>
     </set>
    </array>
   </total>
  </dos>
 </calculation>
 <structure name="finalpos" >
  <crystal>
   <varray name="basis" >
    <v>       5.54801693       0.00000000      -3.00368205 </v>
    <v>      -1.96912732       5.18681304      -3.00368205 </v>
    <v>       0.00000000       0.00000000       6.30893000 </v>
   </varray>
   <i name="volume">    181.54909185 </i>
   <varray name="rec_basis" >
    <v>       0.18024458       0.06842825       0.00000000 </v>
    <v>       0.00000000       0.19279662       0.00000000 </v>
    <v>       0.08581446       0.12436918       0.15850548 </v>
   </varray>
  </crystal>
  <varray name="positions" >
   <v>       0.00000000       0.50000000       0.50000000 </v>
   <v>       0.50000000       0.00000000       0.50000000 </v>
   <v>       0.24400000       0.74400000       0.98800000 </v>
   <v>       0.25000000       0.25000000       0.00000000 </v>
   <v>       0.75600000       0.25600000       0.01200000 </v>
   <v>       0.75000000       0.75000000       0.00000000 </v>
   <v>       0.74400000       0.75600000       0.50000000 </v>
   <v>       0.25600000       0.24400000       0.50000000 </v>
   <v>       0.00000000       0.00000000       0.00000000 </v>
   <v>       0.50000000       0.50000000       0.00000000 </v>
  </varray>
 </structure>
</modeling>
