<?xml version="1.0" encoding="ISO-8859-1"?>
<modeling>
 <generator>
  <i name="program" type="string">vasp </i>
  <i name="version" type="string">6.2.0  </i>
  <i name="subversion" type="string">18Jan21 (build Jan 05 2022 15:41:44) complex                          parallel </i>
  <i name="platform" type="string">LinuxIFC </i>
  <i name="date" type="string">2025 05 07 </i>
  <i name="time" type="string">18:51:58 </i>
 </generator>
 <incar>
  <i type="string" name="SYSTEM">routine with relax: pwdword</i>
  <i type="string" name="PREC">Acc</i>
  <i type="int" name="IALGO">    38</i>
  <i type="string" name="ALGO">A</i>
  <i type="logical" name="ADDGRID"> T  </i>
  <i type="int" name="ICHARG">     2</i>
  <i type="int" name="NELM">   100</i>
  <i type="int" name="NELMIN">     6</i>
  <i name="EDIFF">      0.00000000</i>
  <i type="int" name="NSW">     0</i>
  <i type="int" name="ISIF">    -1</i>
  <i name="SYMPREC">      0.00010000</i>
  <i name="ENCUT">    600.00000000</i>
  <i type="logical" name="LREAL"> F  </i>
  <i type="int" name="ISMEAR">     0</i>
  <i name="SIGMA">      0.02000000</i>
  <i type="logical" name="LASPH"> T  </i>
  <i type="string" name="METAGGA">R2SCAN</i>
  <i type="logical" name="LMIXTAU"> F  </i>
 </incar>
 <primitive_cell>
  <structure name="primitive_cell" >
   <crystal>
    <varray name="basis" >
     <v>       6.69699517       0.00000000      -2.72863088 </v>
     <v>      -3.02782919       5.97344078      -2.72863088 </v>
     <v>       0.00000000       0.00000000       7.23154000 </v>
    </varray>
    <i name="volume">    289.29127833 </i>
    <varray name="rec_basis" >
     <v>       0.14932070       0.07568796       0.00000000 </v>
     <v>       0.00000000       0.16740770       0.00000000 </v>
     <v>       0.05634223       0.09172574       0.13828313 </v>
    </varray>
   </crystal>
   <varray name="positions" >
    <v>       0.50000000       0.00000000       0.50000000 </v>
    <v>       0.00000000       0.50000000       0.50000000 </v>
    <v>       0.25000000       0.25000000       1.00000000 </v>
    <v>       0.71226000       0.21226000       0.24652000 </v>
    <v>       0.75000000       0.75000000       1.00000000 </v>
    <v>       0.28774000       0.78774000       0.75348000 </v>
    <v>       0.21226000       0.96574000       0.50000000 </v>
    <v>       0.78774000       0.03426000       0.50000000 </v>
    <v>       0.96574000       0.46574000       0.75348000 </v>
    <v>       0.03426000       0.53426000       0.24652000 </v>
    <v>       0.46574000       0.71226000       0.50000000 </v>
    <v>       0.53426000       0.28774000       0.50000000 </v>
    <v>       0.18930000       0.31070000       0.50000000 </v>
    <v>       0.81070000       0.68930000       0.50000000 </v>
    <v>       0.31070000       0.81070000       0.12139000 </v>
    <v>       0.68930000       0.18930000       0.87861000 </v>
   </varray>
  </structure>
  <varray name="primitive_index" >
   <v type="int" >        1 </v>
   <v type="int" >        2 </v>
   <v type="int" >        3 </v>
   <v type="int" >        4 </v>
   <v type="int" >        5 </v>
   <v type="int" >        6 </v>
   <v type="int" >        7 </v>
   <v type="int" >        8 </v>
   <v type="int" >        9 </v>
   <v type="int" >       10 </v>
   <v type="int" >       11 </v>
   <v type="int" >       12 </v>
   <v type="int" >       13 </v>
   <v type="int" >       14 </v>
   <v type="int" >       15 </v>
   <v type="int" >       16 </v>
  </varray>
 </primitive_cell>
 <kpoints>
  <generation param="Gamma">
   <v type="int" name="divisions">       6        6        6 </v>
   <v name="usershift">      0.00000000       0.00000000       0.00000000 </v>
   <v name="genvec1">      0.16666667       0.00000000       0.00000000 </v>
   <v name="genvec2">      0.00000000       0.16666667       0.00000000 </v>
   <v name="genvec3">     -0.00000000       0.00000000       0.16666667 </v>
   <v name="shift">      0.00000000       0.00000000       0.00000000 </v>
  </generation>
  <varray name="kpointlist" >
   <v>       0.00000000       0.00000000       0.00000000 </v>
   <v>       0.16666667       0.00000000       0.00000000 </v>
   <v>       0.33333333      -0.00000000       0.00000000 </v>
   <v>       0.50000000       0.00000000       0.00000000 </v>
   <v>       0.16666667       0.16666667       0.00000000 </v>
   <v>       0.33333333       0.16666667       0.00000000 </v>
   <v>       0.50000000       0.16666667       0.00000000 </v>
   <v>      -0.33333333       0.16666667       0.00000000 </v>
   <v>      -0.16666667       0.16666667       0.00000000 </v>
   <v>       0.33333333       0.33333333       0.00000000 </v>
   <v>       0.50000000       0.33333333       0.00000000 </v>
   <v>      -0.33333333       0.33333333       0.00000000 </v>
   <v>       0.50000000       0.50000000       0.00000000 </v>
   <v>       0.16666667       0.16666667       0.16666667 </v>
   <v>       0.33333333       0.16666667       0.16666667 </v>
   <v>      -0.16666667       0.16666667       0.16666667 </v>
   <v>       0.33333333       0.33333333       0.16666667 </v>
   <v>      -0.33333333       0.33333333       0.16666667 </v>
   <v>      -0.16666667       0.33333333       0.16666667 </v>
   <v>       0.50000000       0.50000000       0.16666667 </v>
   <v>      -0.33333333       0.50000000       0.16666667 </v>
   <v>      -0.16666667       0.50000000       0.16666667 </v>
   <v>      -0.33333333      -0.33333333       0.16666667 </v>
   <v>      -0.16666667      -0.33333333       0.16666667 </v>
   <v>      -0.16666667      -0.16666667       0.16666667 </v>
   <v>      -0.33333333       0.33333333       0.33333333 </v>
   <v>       0.50000000       0.50000000       0.33333333 </v>
   <v>      -0.33333333       0.50000000       0.33333333 </v>
   <v>      -0.33333333      -0.33333333       0.33333333 </v>
   <v>       0.50000000       0.50000000       0.50000000 </v>
  </varray>
  <varray name="weights" >
   <v>       0.00462963 </v>
   <v>       0.03703704 </v>
   <v>       0.03703704 </v>
   <v>       0.01851852 </v>
   <v>       0.03703704 </v>
   <v>       0.07407407 </v>
   <v>       0.07407407 </v>
   <v>       0.07407407 </v>
   <v>       0.01851852 </v>
   <v>       0.03703704 </v>
   <v>       0.07407407 </v>
   <v>       0.01851852 </v>
   <v>       0.00925926 </v>
   <v>       0.03703704 </v>
   <v>       0.03703704 </v>
   <v>       0.01851852 </v>
   <v>       0.01851852 </v>
   <v>       0.03703704 </v>
   <v>       0.03703704 </v>
   <v>       0.01851852 </v>
   <v>       0.07407407 </v>
   <v>       0.03703704 </v>
   <v>       0.03703704 </v>
   <v>       0.03703704 </v>
   <v>       0.00925926 </v>
   <v>       0.01851852 </v>
   <v>       0.01851852 </v>
   <v>       0.03703704 </v>
   <v>       0.00925926 </v>
   <v>       0.00462963 </v>
  </varray>
 </kpoints>
 <parameters>
  <separator name="general" >
   <i type="string" name="SYSTEM">routine with relax: pwdword</i>
   <i type="logical" name="LCOMPAT"> F  </i>
  </separator>
  <separator name="electronic" >
   <i type="string" name="PREC">acc</i>
   <i name="ENMAX">    600.00000000</i>
   <i name="ENAUG">    535.51400000</i>
   <i name="EDIFF">      0.00000000</i>
   <i type="int" name="IALGO">    58</i>
   <i type="int" name="IWAVPR">    10</i>
   <i type="int" name="NBANDS">   102</i>
   <i type="int" name="NBANDSLOW">    -1</i>
   <i type="int" name="NBANDSHIGH">    -1</i>
   <i name="NELECT">    162.00000000</i>
   <i type="int" name="TURBO">     0</i>
   <i type="int" name="IRESTART">     0</i>
   <i type="int" name="NREBOOT">     0</i>
   <i type="int" name="NMIN">     0</i>
   <i name="EREF">      0.00000000</i>
   <separator name="electronic smearing" >
    <i type="int" name="ISMEAR">     0</i>
    <i name="SIGMA">      0.02000000</i>
    <i name="KSPACING">      0.50000000</i>
    <i type="logical" name="KGAMMA"> T  </i>
    <i type="logical" name="KBLOWUP"> T  </i>
   </separator>
   <separator name="electronic projectors" >
    <i type="logical" name="LREAL"> F  </i>
    <v name="ROPT">      0.00000000      0.00000000      0.00000000</v>
    <i type="int" name="LMAXPAW">  -100</i>
    <i type="int" name="LMAXMIX">     2</i>
    <i type="logical" name="NLSPLINE"> F  </i>
   </separator>
   <separator name="electronic startup" >
    <i type="int" name="ISTART">     0</i>
    <i type="int" name="ICHARG">     2</i>
    <i type="int" name="INIWAV">     1</i>
   </separator>
   <separator name="electronic spin" >
    <i type="int" name="ISPIN">     1</i>
    <i type="logical" name="LNONCOLLINEAR"> F  </i>
    <v name="MAGMOM">      1.00000000      1.00000000      1.00000000      1.00000000      1.00000000      1.00000000      1.00000000      1.00000000      1.00000000      1.00000000      1.00000000      1.00000000      1.00000000      1.00000000      1.00000000      1.00000000</v>
    <i name="NUPDOWN">     -1.00000000</i>
    <i type="logical" name="LSORBIT"> F  </i>
    <v name="SAXIS">      0.00000000      0.00000000      1.00000000</v>
    <i type="logical" name="LSPIRAL"> F  </i>
    <v name="QSPIRAL">      0.00000000      0.00000000      0.00000000</v>
    <i type="logical" name="LZEROZ"> F  </i>
   </separator>
   <separator name="electronic exchange-correlation" >
    <i type="logical" name="LASPH"> T  </i>
    <i type="logical" name="LMETAGGA"> F  </i>
   </separator>
   <separator name="electronic convergence" >
    <i type="int" name="NELM">   100</i>
    <i type="int" name="NELMDL">    -5</i>
    <i type="int" name="NELMIN">     6</i>
    <i name="ENINI">    600.00000000</i>
    <separator name="electronic convergence detail" >
     <i type="logical" name="LDIAG"> T  </i>
     <i type="logical" name="LSUBROT"> F  </i>
     <i name="WEIMIN">      0.00000000</i>
     <i name="EBREAK">      0.00000000</i>
     <i name="DEPER">      0.30000000</i>
     <i type="int" name="NRMM">     4</i>
     <i name="TIME">      0.40000000</i>
    </separator>
   </separator>
   <separator name="electronic mixer" >
    <i name="AMIX">      0.40000000</i>
    <i name="BMIX">      1.00000000</i>
    <i name="AMIN">      0.10000000</i>
    <i name="AMIX_MAG">      1.60000000</i>
    <i name="BMIX_MAG">      1.00000000</i>
    <separator name="electronic mixer details" >
     <i type="int" name="IMIX">     4</i>
     <i type="logical" name="MIXFIRST"> F  </i>
     <i type="int" name="MAXMIX">   -45</i>
     <i name="WC">    100.00000000</i>
     <i type="int" name="INIMIX">     1</i>
     <i type="int" name="MIXPRE">     1</i>
     <i type="int" name="MREMOVE">     5</i>
    </separator>
   </separator>
   <separator name="electronic dipolcorrection" >
    <i type="logical" name="LDIPOL"> F  </i>
    <i type="logical" name="LMONO"> F  </i>
    <i type="int" name="IDIPOL">     0</i>
    <i name="EPSILON">      1.00000000</i>
    <v name="DIPOL">   -100.00000000   -100.00000000   -100.00000000</v>
    <i name="EFIELD">      0.00000000</i>
   </separator>
  </separator>
  <separator name="grids" >
   <i type="int" name="NGX">    60</i>
   <i type="int" name="NGY">    60</i>
   <i type="int" name="NGZ">    60</i>
   <i type="int" name="NGXF">   120</i>
   <i type="int" name="NGYF">   120</i>
   <i type="int" name="NGZF">   120</i>
   <i type="logical" name="ADDGRID"> T  </i>
  </separator>
  <separator name="ionic" >
   <i type="int" name="NSW">     0</i>
   <i type="int" name="IBRION">    -1</i>
   <i type="int" name="MDALGO">     0</i>
   <i type="int" name="ISIF">    -1</i>
   <i name="PSTRESS">      0.00000000</i>
   <i name="EDIFFG">      0.00000001</i>
   <i type="int" name="NFREE">     0</i>
   <i name="POTIM">      0.50000000</i>
   <i name="SMASS">     -3.00000000</i>
   <i name="SCALEE">      1.00000000</i>
  </separator>
  <separator name="ionic md" >
   <i name="TEBEG">      0.00010000</i>
   <i name="TEEND">      0.00010000</i>
   <i type="int" name="NBLOCK">     1</i>
   <i type="int" name="KBLOCK">     1</i>
   <i type="int" name="NPACO">   256</i>
   <i name="APACO">     16.00000000</i>
  </separator>
  <separator name="symmetry" >
   <i type="int" name="ISYM">     2</i>
   <i name="SYMPREC">      0.00010000</i>
  </separator>
  <separator name="dos" >
   <i type="int" name="LORBIT">     0</i>
   <v name="RWIGS">     -1.00000000     -1.00000000     -1.00000000</v>
   <i type="int" name="NEDOS">   301</i>
   <i name="EMIN">     10.00000000</i>
   <i name="EMAX">    -10.00000000</i>
   <i name="EFERMI">      0.00000000</i>
  </separator>
  <separator name="writing" >
   <i type="int" name="NWRITE">     2</i>
   <i type="logical" name="LWAVE"> T  </i>
   <i type="logical" name="LDOWNSAMPLE"> F  </i>
   <i type="logical" name="LCHARG"> T  </i>
   <i type="logical" name="LPARD"> F  </i>
   <i type="logical" name="LVTOT"> F  </i>
   <i type="logical" name="LVHAR"> F  </i>
   <i type="logical" name="LELF"> F  </i>
   <i type="logical" name="LOPTICS"> F  </i>
   <v name="STM">      0.00000000      0.00000000      0.00000000      0.00000000      0.00000000      0.00000000      0.00000000</v>
  </separator>
  <separator name="performance" >
   <i type="int" name="NPAR">     6</i>
   <i type="int" name="NSIM">     4</i>
   <i type="int" name="NBLK">    -1</i>
   <i type="logical" name="LPLANE"> T  </i>
   <i type="logical" name="LSCALAPACK"> T  </i>
   <i type="logical" name="LSCAAWARE"> F  </i>
   <i type="logical" name="LSCALU"> F  </i>
   <i type="logical" name="LASYNC"> F  </i>
   <i type="logical" name="LORBITALREAL"> F  </i>
  </separator>
  <separator name="miscellaneous" >
   <i type="int" name="IDIOT">     3</i>
   <i type="int" name="PHON_NSTRUCT">    -1</i>
   <i type="logical" name="LMUSIC"> F  </i>
   <v name="POMASS">     10.81100000     95.94000000     28.08500000</v>
   <v name="DARWINR">      0.00000000      0.00000000      0.00000000</v>
   <v name="DARWINV">      1.00000000      1.00000000      1.00000000</v>
   <i type="logical" name="LCORR"> T  </i>
  </separator>
  <i type="logical" name="GGA_COMPAT"> T  </i>
  <i type="logical" name="LBERRY"> F  </i>
  <i type="int" name="ICORELEVEL">     0</i>
  <i type="logical" name="LDAU"> F  </i>
  <i type="int" name="I_CONSTRAINED_M">     0</i>
  <separator name="electronic exchange-correlation" >
   <i type="string" name="GGA">--</i>
   <i type="int" name="VOSKOWN">     0</i>
   <i type="logical" name="LHFCALC"> F  </i>
   <i type="string" name="PRECFOCK"></i>
   <i type="logical" name="LSYMGRAD"> F  </i>
   <i type="logical" name="LHFONE"> F  </i>
   <i type="logical" name="LRHFCALC"> F  </i>
   <i type="logical" name="LTHOMAS"> F  </i>
   <i type="logical" name="LMODELHF"> F  </i>
   <i type="logical" name="LFOCKACE"> F  </i>
   <i name="ENCUT4O">     -1.00000000</i>
   <i type="int" name="EXXOEP">     0</i>
   <i type="int" name="FOURORBIT">     0</i>
   <i name="AEXX">      0.00000000</i>
   <i name="HFALPHA">      0.00000000</i>
   <i name="MCALPHA">      0.00000000</i>
   <i name="ALDAX">      1.00000000</i>
   <i name="AGGAX">      1.00000000</i>
   <i name="ALDAC">      1.00000000</i>
   <i name="AGGAC">      1.00000000</i>
   <i type="int" name="NKREDX">     1</i>
   <i type="int" name="NKREDY">     1</i>
   <i type="int" name="NKREDZ">     1</i>
   <i type="logical" name="SHIFTRED"> F  </i>
   <i type="logical" name="ODDONLY"> F  </i>
   <i type="logical" name="EVENONLY"> F  </i>
   <i type="int" name="LMAXFOCK">     0</i>
   <i type="int" name="NMAXFOCKAE">     0</i>
   <i type="logical" name="LFOCKAEDFT"> F  </i>
   <i name="HFSCREEN">      0.00000000</i>
   <i name="HFSCREENC">      0.00000000</i>
   <i type="int" name="NBANDSGWLOW">     0</i>
  </separator>
  <separator name="vdW DFT" >
   <i type="logical" name="LUSE_VDW"> F  </i>
   <i name="Zab_VDW">     -0.84910000</i>
   <i name="PARAM1">      0.12340000</i>
   <i name="PARAM2">      1.00000000</i>
   <i name="PARAM3">      0.00000000</i>
  </separator>
  <separator name="model GW" >
   <i type="int" name="MODEL_GW">     0</i>
   <i name="MODEL_EPS0">     10.84842294</i>
   <i name="MODEL_ALPHA">      1.00000000</i>
  </separator>
  <separator name="linear response parameters" >
   <i type="logical" name="LEPSILON"> F  </i>
   <i type="logical" name="LRPA"> F  </i>
   <i type="logical" name="LNABLA"> F  </i>
   <i type="logical" name="LVEL"> F  </i>
   <i type="int" name="KINTER">     0</i>
   <i name="CSHIFT">      0.10000000</i>
   <i name="OMEGAMAX">     -1.00000000</i>
   <i name="DEG_THRESHOLD">      0.00200000</i>
   <i name="RTIME">     -0.10000000</i>
   <i name="WPLASMAI">      0.00000000</i>
   <v name="DFIELD">      0.00000000      0.00000000      0.00000000</v>
   <v name="WPLASMA">      0.00000000      0.00000000      0.00000000      0.00000000      0.00000000      0.00000000      0.00000000      0.00000000      0.00000000</v>
  </separator>
  <separator name="orbital magnetization" >
   <i type="logical" name="NUCIND"> F  </i>
   <v name="MAGPOS">      0.00000000      0.00000000      0.00000000</v>
   <i type="logical" name="LNICSALL"> T  </i>
   <i type="logical" name="ORBITALMAG"> F  </i>
   <i type="logical" name="LMAGBLOCH"> F  </i>
   <i type="logical" name="LCHIMAG"> F  </i>
   <i type="logical" name="LGAUGE"> T  </i>
   <i type="int" name="MAGATOM">     0</i>
   <v name="MAGDIPOL">      0.00000000      0.00000000      0.00000000</v>
   <v name="AVECCONST">      0.00000000      0.00000000      0.00000000</v>
  </separator>
  <separator name="response functions" >
   <i type="logical" name="LFINITE_TEMPERATURE"> F  </i>
   <i type="logical" name="LADDER"> F  </i>
   <i type="logical" name="LRPAFORCE"> F  </i>
   <i type="logical" name="LFXC"> F  </i>
   <i type="logical" name="LHARTREE"> T  </i>
   <i type="int" name="IBSE">     0</i>
   <v type="int" name="KPOINT">    -1     0     0     0</v>
   <i type="logical" name="LTCTC"> F  </i>
   <i type="logical" name="LTCTE"> F  </i>
   <i type="logical" name="LTETE"> F  </i>
   <i type="logical" name="LTRIPLET"> F  </i>
   <i type="logical" name="LFXCEPS"> F  </i>
   <i type="logical" name="LFXHEG"> F  </i>
   <i type="int" name="NATURALO">     2</i>
   <i type="logical" name="LHOLEGF"> F  </i>
   <i type="logical" name="L2ORDER"> F  </i>
   <i type="logical" name="LDMP1"> F  </i>
   <i type="logical" name="LMP2LT"> F  </i>
   <i type="logical" name="LSMP2LT"> F  </i>
   <i type="logical" name="LGWLF"> F  </i>
   <i name="ENCUTGW">     -2.00000000</i>
   <i name="ENCUTGWSOFT">     -2.00000000</i>
   <i name="ENCUTLF">     -1.00000000</i>
   <i type="logical" name="LESF_SPLINES"> F  </i>
   <i type="int" name="LMAXMP2">    -1</i>
   <i name="SCISSOR">      0.00000000</i>
   <i type="int" name="NOMEGA">     0</i>
   <i type="int" name="NOMEGAR">     0</i>
   <i type="int" name="NBANDSGW">    -1</i>
   <i type="int" name="NBANDSO">    -1</i>
   <i type="int" name="NBANDSV">    -1</i>
   <i type="int" name="NELM">   100</i>
   <i type="int" name="NELMHF">     1</i>
   <i type="int" name="DIM">     3</i>
   <i type="int" name="IESPILON">     4</i>
   <i type="int" name="ANTIRES">     0</i>
   <i name="OMEGAMAX">    -30.00000000</i>
   <i name="OMEGAMIN">    -30.00000000</i>
   <i name="OMEGATL">   -200.00000000</i>
   <i type="int" name="OMEGAGRID">     0</i>
   <i name="CSHIFT">     -0.10000000</i>
   <i type="logical" name="LSELFENERGY"> F  </i>
   <i type="logical" name="LSPECTRAL"> F  </i>
   <i type="logical" name="LSPECTRALGW"> F  </i>
   <i type="logical" name="LSINGLES"> F  </i>
   <i type="logical" name="LFERMIGW"> F  </i>
   <i type="logical" name="ODDONLYGW"> F  </i>
   <i type="logical" name="EVENONLYGW"> F  </i>
   <i type="int" name="NKREDLFX">     1</i>
   <i type="int" name="NKREDLFY">     1</i>
   <i type="int" name="NKREDLFZ">     1</i>
   <i type="int" name="MAXMEM">  2800</i>
   <i type="int" name="TELESCOPE">     0</i>
   <i type="int" name="NTAUPAR">    -1</i>
   <i type="int" name="NOMEGAPAR">    -1</i>
   <i name="DAMP_NEWTON">      0.80000001</i>
   <i name="LAMBDA">      1.00000000</i>
  </separator>
  <separator name="External order field" >
   <i name="OFIELD_KAPPA">      0.00000000</i>
   <v name="OFIELD_K">      0.00000000      0.00000000      0.00000000</v>
   <i name="OFIELD_Q6_NEAR">      0.00000000</i>
   <i name="OFIELD_Q6_FAR">      0.00000000</i>
   <i name="OFIELD_A">      0.00000000</i>
  </separator>
 </parameters>
 <atominfo>
  <atoms>      16 </atoms>
  <types>       3 </types>
  <array name="atoms" >
   <dimension dim="1">ion</dimension>
   <field type="string">element</field>
   <field type="int">atomtype</field>
   <set>
    <rc><c>B </c><c>   1</c></rc>
    <rc><c>B </c><c>   1</c></rc>
    <rc><c>Mo</c><c>   2</c></rc>
    <rc><c>Mo</c><c>   2</c></rc>
    <rc><c>Mo</c><c>   2</c></rc>
    <rc><c>Mo</c><c>   2</c></rc>
    <rc><c>Mo</c><c>   2</c></rc>
    <rc><c>Mo</c><c>   2</c></rc>
    <rc><c>Mo</c><c>   2</c></rc>
    <rc><c>Mo</c><c>   2</c></rc>
    <rc><c>Mo</c><c>   2</c></rc>
    <rc><c>Mo</c><c>   2</c></rc>
    <rc><c>Si</c><c>   3</c></rc>
    <rc><c>Si</c><c>   3</c></rc>
    <rc><c>Si</c><c>   3</c></rc>
    <rc><c>Si</c><c>   3</c></rc>
   </set>
  </array>
  <array name="atomtypes" >
   <dimension dim="1">type</dimension>
   <field type="int">atomspertype</field>
   <field type="string">element</field>
   <field>mass</field>
   <field>valence</field>
   <field type="string">pseudopotential</field>
   <set>
    <rc><c>   2</c><c>B </c><c>     10.81100000</c><c>      3.00000000</c><c>  PAW_PBE B 06Sep2000                   </c></rc>
    <rc><c>  10</c><c>Mo</c><c>     95.94000000</c><c>     14.00000000</c><c>  PAW_PBE Mo_sv 02Feb2006               </c></rc>
    <rc><c>   4</c><c>Si</c><c>     28.08500000</c><c>      4.00000000</c><c>  PAW_PBE Si 05Jan2001                  </c></rc>
   </set>
  </array>
 </atominfo>
 <structure name="initialpos" >
  <crystal>
   <varray name="basis" >
    <v>       6.69699517       0.00000000      -2.72863088 </v>
    <v>      -3.02782919       5.97344078      -2.72863088 </v>
    <v>       0.00000000       0.00000000       7.23154000 </v>
   </varray>
   <i name="volume">    289.29127833 </i>
   <varray name="rec_basis" >
    <v>       0.14932070       0.07568796       0.00000000 </v>
    <v>       0.00000000       0.16740770       0.00000000 </v>
    <v>       0.05634223       0.09172574       0.13828313 </v>
   </varray>
  </crystal>
  <varray name="positions" >
   <v>       0.50000000       0.00000000       0.50000000 </v>
   <v>       0.00000000       0.50000000       0.50000000 </v>
   <v>       0.25000000       0.25000000       0.00000000 </v>
   <v>       0.71226000       0.21226000       0.24652000 </v>
   <v>       0.75000000       0.75000000       0.00000000 </v>
   <v>       0.28774000       0.78774000       0.75348000 </v>
   <v>       0.21226000       0.96574000       0.50000000 </v>
   <v>       0.78774000       0.03426000       0.50000000 </v>
   <v>       0.96574000       0.46574000       0.75348000 </v>
   <v>       0.03426000       0.53426000       0.24652000 </v>
   <v>       0.46574000       0.71226000       0.50000000 </v>
   <v>       0.53426000       0.28774000       0.50000000 </v>
   <v>       0.18930000       0.31070000       0.50000000 </v>
   <v>       0.81070000       0.68930000       0.50000000 </v>
   <v>       0.31070000       0.81070000       0.12139000 </v>
   <v>       0.68930000       0.18930000       0.87861000 </v>
  </varray>
 </structure>
 <calculation>
  <scstep>
   <time name="total">   23.79   24.67</time>
   <energy>
    <i name="alphaZ">    781.66590977 </i>
    <i name="ewald"> -13720.18634171 </i>
    <i name="hartreedc">  -5157.61603340 </i>
    <i name="XCdc">    755.57271316 </i>
    <i name="pawpsdc">  15278.13859621 </i>
    <i name="pawaedc"> -15202.21075033 </i>
    <i name="eentropy">     -0.00106125 </i>
    <i name="bandstr">   -143.04252598 </i>
    <i name="atom">  19177.43064738 </i>
    <i name="e_fr_energy">   1769.75115384 </i>
    <i name="e_wo_entrp">   1769.75221509 </i>
    <i name="e_0_energy">   1769.75168447 </i>
   </energy>
  </scstep>
  <scstep>
   <time name="total">   23.57   23.82</time>
   <energy>
    <i name="e_fr_energy">   -282.45661570 </i>
    <i name="e_wo_entrp">   -282.45385365 </i>
    <i name="e_0_energy">   -282.45523467 </i>
   </energy>
  </scstep>
  <scstep>
   <time name="total">   26.29   26.55</time>
   <energy>
    <i name="e_fr_energy">   -370.87082000 </i>
    <i name="e_wo_entrp">   -370.86622586 </i>
    <i name="e_0_energy">   -370.86852293 </i>
   </energy>
  </scstep>
  <scstep>
   <time name="total">   25.46   25.71</time>
   <energy>
    <i name="e_fr_energy">   -373.47938659 </i>
    <i name="e_wo_entrp">   -373.47548363 </i>
    <i name="e_0_energy">   -373.47743511 </i>
   </energy>
  </scstep>
  <scstep>
   <time name="total">   27.59   27.86</time>
   <energy>
    <i name="e_fr_energy">   -373.55203449 </i>
    <i name="e_wo_entrp">   -373.54815427 </i>
    <i name="e_0_energy">   -373.55009438 </i>
   </energy>
  </scstep>
  <scstep>
   <time name="total">   29.52   29.84</time>
   <energy>
    <i name="e_fr_energy">   -202.37400974 </i>
    <i name="e_wo_entrp">   -202.37021716 </i>
    <i name="e_0_energy">   -202.37211345 </i>
   </energy>
  </scstep>
  <scstep>
   <time name="total">   30.22   30.50</time>
   <energy>
    <i name="e_fr_energy">   -280.54172972 </i>
    <i name="e_wo_entrp">   -280.53842080 </i>
    <i name="e_0_energy">   -280.54007526 </i>
   </energy>
  </scstep>
  <scstep>
   <time name="total">   31.17   31.45</time>
   <energy>
    <i name="e_fr_energy">   -288.83768850 </i>
    <i name="e_wo_entrp">   -288.83530707 </i>
    <i name="e_0_energy">   -288.83649779 </i>
   </energy>
  </scstep>
  <scstep>
   <time name="total">   30.18   30.45</time>
   <energy>
    <i name="e_fr_energy">   -293.47448216 </i>
    <i name="e_wo_entrp">   -293.47214948 </i>
    <i name="e_0_energy">   -293.47331582 </i>
   </energy>
  </scstep>
  <scstep>
   <time name="total">   30.94   31.22</time>
   <energy>
    <i name="e_fr_energy">   -294.73315750 </i>
    <i name="e_wo_entrp">   -294.73099355 </i>
    <i name="e_0_energy">   -294.73207552 </i>
   </energy>
  </scstep>
  <scstep>
   <time name="total">   30.96   31.24</time>
   <energy>
    <i name="e_fr_energy">   -295.63128043 </i>
    <i name="e_wo_entrp">   -295.62884761 </i>
    <i name="e_0_energy">   -295.63006402 </i>
   </energy>
  </scstep>
  <scstep>
   <time name="total">   31.43   31.71</time>
   <energy>
    <i name="e_fr_energy">   -296.06179226 </i>
    <i name="e_wo_entrp">   -296.05929128 </i>
    <i name="e_0_energy">   -296.06054177 </i>
   </energy>
  </scstep>
  <scstep>
   <time name="total">   31.13   31.41</time>
   <energy>
    <i name="e_fr_energy">   -296.24263968 </i>
    <i name="e_wo_entrp">   -296.24001271 </i>
    <i name="e_0_energy">   -296.24132620 </i>
   </energy>
  </scstep>
  <scstep>
   <time name="total">   30.66   30.94</time>
   <energy>
    <i name="e_fr_energy">   -296.37745667 </i>
    <i name="e_wo_entrp">   -296.37477086 </i>
    <i name="e_0_energy">   -296.37611377 </i>
   </energy>
  </scstep>
  <scstep>
   <time name="total">   30.21   30.48</time>
   <energy>
    <i name="e_fr_energy">   -296.42768647 </i>
    <i name="e_wo_entrp">   -296.42488331 </i>
    <i name="e_0_energy">   -296.42628489 </i>
   </energy>
  </scstep>
  <scstep>
   <time name="total">   31.11   31.40</time>
   <energy>
    <i name="e_fr_energy">   -296.49192286 </i>
    <i name="e_wo_entrp">   -296.48908821 </i>
    <i name="e_0_energy">   -296.49050553 </i>
   </energy>
  </scstep>
  <scstep>
   <time name="total">   31.31   31.59</time>
   <energy>
    <i name="e_fr_energy">   -296.50976685 </i>
    <i name="e_wo_entrp">   -296.50685608 </i>
    <i name="e_0_energy">   -296.50831146 </i>
   </energy>
  </scstep>
  <scstep>
   <time name="total">   31.08   31.35</time>
   <energy>
    <i name="e_fr_energy">   -296.53604036 </i>
    <i name="e_wo_entrp">   -296.53306983 </i>
    <i name="e_0_energy">   -296.53455509 </i>
   </energy>
  </scstep>
  <scstep>
   <time name="total">   30.39   30.66</time>
   <energy>
    <i name="e_fr_energy">   -296.54717232 </i>
    <i name="e_wo_entrp">   -296.54413305 </i>
    <i name="e_0_energy">   -296.54565268 </i>
   </energy>
  </scstep>
  <scstep>
   <time name="total">   31.14   31.42</time>
   <energy>
    <i name="e_fr_energy">   -296.55749696 </i>
    <i name="e_wo_entrp">   -296.55442879 </i>
    <i name="e_0_energy">   -296.55596288 </i>
   </energy>
  </scstep>
  <scstep>
   <time name="total">   30.85   31.14</time>
   <energy>
    <i name="e_fr_energy">   -296.56482451 </i>
    <i name="e_wo_entrp">   -296.56175897 </i>
    <i name="e_0_energy">   -296.56329174 </i>
   </energy>
  </scstep>
  <scstep>
   <time name="total">   31.72   32.00</time>
   <energy>
    <i name="e_fr_energy">   -296.56795361 </i>
    <i name="e_wo_entrp">   -296.56486690 </i>
    <i name="e_0_energy">   -296.56641026 </i>
   </energy>
  </scstep>
  <scstep>
   <time name="total">   31.00   31.29</time>
   <energy>
    <i name="e_fr_energy">   -296.57250625 </i>
    <i name="e_wo_entrp">   -296.56941166 </i>
    <i name="e_0_energy">   -296.57095895 </i>
   </energy>
  </scstep>
  <scstep>
   <time name="total">   31.32   31.62</time>
   <energy>
    <i name="e_fr_energy">   -296.57346022 </i>
    <i name="e_wo_entrp">   -296.57037591 </i>
    <i name="e_0_energy">   -296.57191807 </i>
   </energy>
  </scstep>
  <scstep>
   <time name="total">   30.56   30.83</time>
   <energy>
    <i name="e_fr_energy">   -296.57513786 </i>
    <i name="e_wo_entrp">   -296.57206293 </i>
    <i name="e_0_energy">   -296.57360039 </i>
   </energy>
  </scstep>
  <scstep>
   <time name="total">   31.12   31.40</time>
   <energy>
    <i name="e_fr_energy">   -296.57562717 </i>
    <i name="e_wo_entrp">   -296.57256674 </i>
    <i name="e_0_energy">   -296.57409695 </i>
   </energy>
  </scstep>
  <scstep>
   <time name="total">   31.34   31.62</time>
   <energy>
    <i name="e_fr_energy">   -296.57609006 </i>
    <i name="e_wo_entrp">   -296.57303765 </i>
    <i name="e_0_energy">   -296.57456386 </i>
   </energy>
  </scstep>
  <scstep>
   <time name="total">   31.30   31.58</time>
   <energy>
    <i name="e_fr_energy">   -296.57643453 </i>
    <i name="e_wo_entrp">   -296.57338441 </i>
    <i name="e_0_energy">   -296.57490947 </i>
   </energy>
  </scstep>
  <scstep>
   <time name="total">   31.09   31.37</time>
   <energy>
    <i name="e_fr_energy">   -296.57653633 </i>
    <i name="e_wo_entrp">   -296.57349238 </i>
    <i name="e_0_energy">   -296.57501436 </i>
   </energy>
  </scstep>
  <scstep>
   <time name="total">   31.02   31.29</time>
   <energy>
    <i name="e_fr_energy">   -296.57671488 </i>
    <i name="e_wo_entrp">   -296.57367247 </i>
    <i name="e_0_energy">   -296.57519368 </i>
   </energy>
  </scstep>
  <scstep>
   <time name="total">   31.22   31.49</time>
   <energy>
    <i name="e_fr_energy">   -296.57675163 </i>
    <i name="e_wo_entrp">   -296.57371027 </i>
    <i name="e_0_energy">   -296.57523095 </i>
   </energy>
  </scstep>
  <scstep>
   <time name="total">   31.25   31.52</time>
   <energy>
    <i name="e_fr_energy">   -296.57681506 </i>
    <i name="e_wo_entrp">   -296.57377338 </i>
    <i name="e_0_energy">   -296.57529422 </i>
   </energy>
  </scstep>
  <scstep>
   <time name="total">   30.87   31.15</time>
   <energy>
    <i name="e_fr_energy">   -296.57683412 </i>
    <i name="e_wo_entrp">   -296.57379200 </i>
    <i name="e_0_energy">   -296.57531306 </i>
   </energy>
  </scstep>
  <scstep>
   <time name="total">   30.51   30.78</time>
   <energy>
    <i name="e_fr_energy">   -296.57685164 </i>
    <i name="e_wo_entrp">   -296.57380949 </i>
    <i name="e_0_energy">   -296.57533057 </i>
   </energy>
  </scstep>
  <scstep>
   <time name="total">   31.24   31.51</time>
   <energy>
    <i name="e_fr_energy">   -296.57686646 </i>
    <i name="e_wo_entrp">   -296.57382408 </i>
    <i name="e_0_energy">   -296.57534527 </i>
   </energy>
  </scstep>
  <scstep>
   <time name="total">   31.19   31.47</time>
   <energy>
    <i name="e_fr_energy">   -296.57687248 </i>
    <i name="e_wo_entrp">   -296.57382913 </i>
    <i name="e_0_energy">   -296.57535081 </i>
   </energy>
  </scstep>
  <scstep>
   <time name="total">   30.51   30.78</time>
   <energy>
    <i name="e_fr_energy">   -296.57687989 </i>
    <i name="e_wo_entrp">   -296.57383606 </i>
    <i name="e_0_energy">   -296.57535797 </i>
   </energy>
  </scstep>
  <scstep>
   <time name="total">   30.85   31.12</time>
   <energy>
    <i name="e_fr_energy">   -296.57688284 </i>
    <i name="e_wo_entrp">   -296.57383871 </i>
    <i name="e_0_energy">   -296.57536077 </i>
   </energy>
  </scstep>
  <scstep>
   <time name="total">   54.44   54.92</time>
   <energy>
    <i name="e_fr_energy">   -296.57688598 </i>
    <i name="e_wo_entrp">   -296.57384145 </i>
    <i name="e_0_energy">   -296.57536371 </i>
   </energy>
  </scstep>
  <scstep>
   <time name="total">   31.42   31.71</time>
   <energy>
    <i name="e_fr_energy">   -296.57688579 </i>
    <i name="e_wo_entrp">   -296.57384133 </i>
    <i name="e_0_energy">   -296.57536356 </i>
   </energy>
  </scstep>
  <scstep>
   <time name="total">   31.19   31.46</time>
   <energy>
    <i name="e_fr_energy">   -296.57688759 </i>
    <i name="e_wo_entrp">   -296.57384298 </i>
    <i name="e_0_energy">   -296.57536528 </i>
   </energy>
  </scstep>
  <scstep>
   <time name="total">   31.57   31.85</time>
   <energy>
    <i name="e_fr_energy">   -296.57688826 </i>
    <i name="e_wo_entrp">   -296.57384361 </i>
    <i name="e_0_energy">   -296.57536593 </i>
   </energy>
  </scstep>
  <scstep>
   <time name="total">   31.16   31.44</time>
   <energy>
    <i name="e_fr_energy">   -296.57688839 </i>
    <i name="e_wo_entrp">   -296.57384377 </i>
    <i name="e_0_energy">   -296.57536608 </i>
   </energy>
  </scstep>
  <scstep>
   <time name="total">   31.06   31.33</time>
   <energy>
    <i name="e_fr_energy">   -296.57688852 </i>
    <i name="e_wo_entrp">   -296.57384390 </i>
    <i name="e_0_energy">   -296.57536621 </i>
   </energy>
  </scstep>
  <scstep>
   <time name="total">   30.42   30.69</time>
   <energy>
    <i name="e_fr_energy">   -296.57688858 </i>
    <i name="e_wo_entrp">   -296.57384400 </i>
    <i name="e_0_energy">   -296.57536629 </i>
   </energy>
  </scstep>
  <scstep>
   <time name="total">   30.52   30.79</time>
   <energy>
    <i name="e_fr_energy">   -296.57688863 </i>
    <i name="e_wo_entrp">   -296.57384404 </i>
    <i name="e_0_energy">   -296.57536634 </i>
   </energy>
  </scstep>
  <scstep>
   <time name="total">   30.86   31.13</time>
   <energy>
    <i name="e_fr_energy">   -296.57688864 </i>
    <i name="e_wo_entrp">   -296.57384403 </i>
    <i name="e_0_energy">   -296.57536633 </i>
   </energy>
  </scstep>
  <scstep>
   <time name="total">   30.93   31.22</time>
   <energy>
    <i name="e_fr_energy">   -296.57688865 </i>
    <i name="e_wo_entrp">   -296.57384404 </i>
    <i name="e_0_energy">   -296.57536635 </i>
   </energy>
  </scstep>
  <scstep>
   <time name="total">   31.06   31.34</time>
   <energy>
    <i name="e_fr_energy">   -296.57688867 </i>
    <i name="e_wo_entrp">   -296.57384407 </i>
    <i name="e_0_energy">   -296.57536637 </i>
   </energy>
  </scstep>
  <scstep>
   <time name="total">   31.01   31.28</time>
   <energy>
    <i name="e_fr_energy">   -296.57688870 </i>
    <i name="e_wo_entrp">   -296.57384412 </i>
    <i name="e_0_energy">   -296.57536641 </i>
   </energy>
  </scstep>
  <scstep>
   <time name="total">   31.60   31.88</time>
   <energy>
    <i name="e_fr_energy">   -296.57688874 </i>
    <i name="e_wo_entrp">   -296.57384415 </i>
    <i name="e_0_energy">   -296.57536644 </i>
   </energy>
  </scstep>
  <scstep>
   <time name="total">   31.20   31.48</time>
   <energy>
    <i name="e_fr_energy">   -296.57688874 </i>
    <i name="e_wo_entrp">   -296.57384415 </i>
    <i name="e_0_energy">   -296.57536645 </i>
   </energy>
  </scstep>
  <scstep>
   <time name="total">   30.57   30.84</time>
   <energy>
    <i name="e_fr_energy">   -296.57688874 </i>
    <i name="e_wo_entrp">   -296.57384415 </i>
    <i name="e_0_energy">   -296.57536644 </i>
   </energy>
  </scstep>
  <scstep>
   <time name="total">   30.66   30.94</time>
   <energy>
    <i name="e_fr_energy">   -296.57688873 </i>
    <i name="e_wo_entrp">   -296.57384414 </i>
    <i name="e_0_energy">   -296.57536644 </i>
   </energy>
  </scstep>
  <scstep>
   <time name="total">   36.02   36.35</time>
   <energy>
    <i name="alphaZ">    781.66590977 </i>
    <i name="ewald"> -13720.18634171 </i>
    <i name="hartreedc">  -4969.78795896 </i>
    <i name="XCdc">    768.74096742 </i>
    <i name="pawpsdc">  18819.91725075 </i>
    <i name="pawaedc"> -18773.81212234 </i>
    <i name="eentropy">     -0.00304459 </i>
    <i name="bandstr">  -2380.54219646 </i>
    <i name="atom">  19177.43064738 </i>
    <i name="e_fr_energy">   -296.57688873 </i>
    <i name="e_wo_entrp">   -296.57384414 </i>
    <i name="e_0_energy">   -296.57536644 </i>
   </energy>
  </scstep>
  <structure>
   <crystal>
    <varray name="basis" >
     <v>       6.69699517       0.00000000      -2.72863088 </v>
     <v>      -3.02782919       5.97344078      -2.72863088 </v>
     <v>       0.00000000       0.00000000       7.23154000 </v>
    </varray>
    <i name="volume">    289.29127833 </i>
    <varray name="rec_basis" >
     <v>       0.14932070       0.07568796       0.00000000 </v>
     <v>       0.00000000       0.16740770       0.00000000 </v>
     <v>       0.05634223       0.09172574       0.13828313 </v>
    </varray>
   </crystal>
   <varray name="positions" >
    <v>       0.50000000       0.00000000       0.50000000 </v>
    <v>       0.00000000       0.50000000       0.50000000 </v>
    <v>       0.25000000       0.25000000       0.00000000 </v>
    <v>       0.71226000       0.21226000       0.24652000 </v>
    <v>       0.75000000       0.75000000       0.00000000 </v>
    <v>       0.28774000       0.78774000       0.75348000 </v>
    <v>       0.21226000       0.96574000       0.50000000 </v>
    <v>       0.78774000       0.03426000       0.50000000 </v>
    <v>       0.96574000       0.46574000       0.75348000 </v>
    <v>       0.03426000       0.53426000       0.24652000 </v>
    <v>       0.46574000       0.71226000       0.50000000 </v>
    <v>       0.53426000       0.28774000       0.50000000 </v>
    <v>       0.18930000       0.31070000       0.50000000 </v>
    <v>       0.81070000       0.68930000       0.50000000 </v>
    <v>       0.31070000       0.81070000       0.12139000 </v>
    <v>       0.68930000       0.18930000       0.87861000 </v>
   </varray>
  </structure>
  <varray name="forces" >
   <v>       0.00000000       0.00000000       0.00000000 </v>
   <v>       0.00000000       0.00000000       0.00000000 </v>
   <v>       0.00000000       0.00000000       0.00000000 </v>
   <v>       0.00000000       0.00000000       0.00000000 </v>
   <v>       0.00000000       0.00000000       0.00000000 </v>
   <v>       0.00000000       0.00000000       0.00000000 </v>
   <v>       0.00000000       0.00000000       0.00000000 </v>
   <v>       0.00000000       0.00000000       0.00000000 </v>
   <v>       0.00000000       0.00000000       0.00000000 </v>
   <v>       0.00000000       0.00000000       0.00000000 </v>
   <v>       0.00000000       0.00000000       0.00000000 </v>
   <v>       0.00000000       0.00000000       0.00000000 </v>
   <v>       0.00000000       0.00000000       0.00000000 </v>
   <v>       0.00000000       0.00000000       0.00000000 </v>
   <v>       0.00000000       0.00000000       0.00000000 </v>
   <v>       0.00000000       0.00000000       0.00000000 </v>
  </varray>
  <varray name="stress" >
   <v>       0.00000000       0.00000000       0.00000000 </v>
   <v>       0.00000000       0.00000000       0.00000000 </v>
   <v>       0.00000000       0.00000000       0.00000000 </v>
  </varray>
  <energy>
   <i name="e_fr_energy">   -296.57688873 </i>
   <i name="e_wo_entrp">   -296.57384414 </i>
   <i name="e_0_energy">   -296.57536644 </i>
  </energy>
  <time name="totalsc"> 1706.73 1723.03</time>
  <eigenvalues>
   <array>
    <dimension dim="1">band</dimension>
    <dimension dim="2">kpoint</dimension>
    <dimension dim="3">spin</dimension>
    <field>eigene</field>
    <field>occ</field>
    <set>
     <set comment="spin 1">
      <set comment="kpoint 1">
       <r>  -54.8377    1.0000 </r>
       <r>  -54.8365    1.0000 </r>
       <r>  -54.6915    1.0000 </r>
       <r>  -54.6458    1.0000 </r>
       <r>  -54.5370    1.0000 </r>
       <r>  -54.5361    1.0000 </r>
       <r>  -54.5045    1.0000 </r>
       <r>  -54.5036    1.0000 </r>
       <r>  -54.4672    1.0000 </r>
       <r>  -54.4191    1.0000 </r>
       <r>  -28.7076    1.0000 </r>
       <r>  -28.5572    1.0000 </r>
       <r>  -28.4109    1.0000 </r>
       <r>  -28.4105    1.0000 </r>
       <r>  -28.3899    1.0000 </r>
       <r>  -28.3330    1.0000 </r>
       <r>  -28.3285    1.0000 </r>
       <r>  -28.2911    1.0000 </r>
       <r>  -28.1936    1.0000 </r>
       <r>  -28.1935    1.0000 </r>
       <r>  -28.1437    1.0000 </r>
       <r>  -28.1195    1.0000 </r>
       <r>  -28.0825    1.0000 </r>
       <r>  -28.0491    1.0000 </r>
       <r>  -28.0491    1.0000 </r>
       <r>  -28.0456    1.0000 </r>
       <r>  -28.0454    1.0000 </r>
       <r>  -27.9344    1.0000 </r>
       <r>  -27.9336    1.0000 </r>
       <r>  -27.9326    1.0000 </r>
       <r>  -27.8751    1.0000 </r>
       <r>  -27.8742    1.0000 </r>
       <r>  -27.5885    1.0000 </r>
       <r>  -27.5815    1.0000 </r>
       <r>  -27.5786    1.0000 </r>
       <r>  -27.5784    1.0000 </r>
       <r>  -27.5580    1.0000 </r>
       <r>  -27.4567    1.0000 </r>
       <r>  -27.4565    1.0000 </r>
       <r>  -27.3601    1.0000 </r>
       <r>   -2.8753    1.0000 </r>
       <r>   -1.8324    1.0000 </r>
       <r>   -0.7812    1.0000 </r>
       <r>   -0.7810    1.0000 </r>
       <r>    1.2858    1.0000 </r>
       <r>    1.3563    1.0000 </r>
       <r>    3.0412    1.0000 </r>
       <r>    3.0418    1.0000 </r>
       <r>    3.1559    1.0000 </r>
       <r>    3.7824    1.0000 </r>
       <r>    3.8050    1.0000 </r>
       <r>    3.8058    1.0000 </r>
       <r>    4.1328    1.0000 </r>
       <r>    4.2760    1.0000 </r>
       <r>    4.2761    1.0000 </r>
       <r>    4.3465    1.0000 </r>
       <r>    4.6511    1.0000 </r>
       <r>    5.1026    1.0000 </r>
       <r>    5.4998    1.0000 </r>
       <r>    5.5233    1.0000 </r>
       <r>    5.5233    1.0000 </r>
       <r>    5.7131    1.0000 </r>
       <r>    5.7340    1.0000 </r>
       <r>    5.9333    1.0000 </r>
       <r>    6.0154    1.0000 </r>
       <r>    6.0157    1.0000 </r>
       <r>    6.1003    1.0000 </r>
       <r>    6.3128    1.0000 </r>
       <r>    6.3129    1.0000 </r>
       <r>    6.3678    1.0000 </r>
       <r>    6.4942    1.0000 </r>
       <r>    6.7136    1.0000 </r>
       <r>    6.7136    1.0000 </r>
       <r>    6.7987    1.0000 </r>
       <r>    7.2814    1.0000 </r>
       <r>    7.3898    1.0000 </r>
       <r>    7.4222    1.0000 </r>
       <r>    7.5975    1.0000 </r>
       <r>    7.5977    1.0000 </r>
       <r>    7.9088    1.0000 </r>
       <r>    8.0674    1.0000 </r>
       <r>    8.2393    0.0000 </r>
       <r>    8.2395    0.0000 </r>
       <r>    8.4111    0.0000 </r>
       <r>    8.4278    0.0000 </r>
       <r>    8.8403    0.0000 </r>
       <r>    8.8684    0.0000 </r>
       <r>    9.1914    0.0000 </r>
       <r>    9.1922    0.0000 </r>
       <r>    9.3601    0.0000 </r>
       <r>    9.4754    0.0000 </r>
       <r>    9.4756    0.0000 </r>
       <r>    9.8096    0.0000 </r>
       <r>   10.0009    0.0000 </r>
       <r>   10.0010    0.0000 </r>
       <r>   10.1909    0.0000 </r>
       <r>   10.1922    0.0000 </r>
       <r>   10.9321    0.0000 </r>
       <r>   11.0602    0.0000 </r>
       <r>   11.1147    0.0000 </r>
       <r>   11.2423    0.0000 </r>
       <r>   11.5032    0.0000 </r>
      </set>
      <set comment="kpoint 2">
       <r>  -54.8375    1.0000 </r>
       <r>  -54.8366    1.0000 </r>
       <r>  -54.6889    1.0000 </r>
       <r>  -54.6495    1.0000 </r>
       <r>  -54.5380    1.0000 </r>
       <r>  -54.5371    1.0000 </r>
       <r>  -54.5034    1.0000 </r>
       <r>  -54.5026    1.0000 </r>
       <r>  -54.4634    1.0000 </r>
       <r>  -54.4219    1.0000 </r>
       <r>  -28.6995    1.0000 </r>
       <r>  -28.5713    1.0000 </r>
       <r>  -28.4088    1.0000 </r>
       <r>  -28.4057    1.0000 </r>
       <r>  -28.3754    1.0000 </r>
       <r>  -28.3320    1.0000 </r>
       <r>  -28.3293    1.0000 </r>
       <r>  -28.2895    1.0000 </r>
       <r>  -28.2022    1.0000 </r>
       <r>  -28.1987    1.0000 </r>
       <r>  -28.1518    1.0000 </r>
       <r>  -28.1338    1.0000 </r>
       <r>  -28.0927    1.0000 </r>
       <r>  -28.0428    1.0000 </r>
       <r>  -28.0424    1.0000 </r>
       <r>  -28.0421    1.0000 </r>
       <r>  -28.0313    1.0000 </r>
       <r>  -27.9566    1.0000 </r>
       <r>  -27.9420    1.0000 </r>
       <r>  -27.9372    1.0000 </r>
       <r>  -27.8613    1.0000 </r>
       <r>  -27.8603    1.0000 </r>
       <r>  -27.5862    1.0000 </r>
       <r>  -27.5764    1.0000 </r>
       <r>  -27.5746    1.0000 </r>
       <r>  -27.5599    1.0000 </r>
       <r>  -27.5598    1.0000 </r>
       <r>  -27.4621    1.0000 </r>
       <r>  -27.4612    1.0000 </r>
       <r>  -27.3715    1.0000 </r>
       <r>   -2.7923    1.0000 </r>
       <r>   -1.8818    1.0000 </r>
       <r>   -0.8110    1.0000 </r>
       <r>   -0.7971    1.0000 </r>
       <r>    1.2903    1.0000 </r>
       <r>    1.4216    1.0000 </r>
       <r>    2.9244    1.0000 </r>
       <r>    2.9961    1.0000 </r>
       <r>    3.0859    1.0000 </r>
       <r>    3.5126    1.0000 </r>
       <r>    3.6686    1.0000 </r>
       <r>    3.7596    1.0000 </r>
       <r>    4.1228    1.0000 </r>
       <r>    4.3399    1.0000 </r>
       <r>    4.6021    1.0000 </r>
       <r>    4.6074    1.0000 </r>
       <r>    4.6802    1.0000 </r>
       <r>    5.2850    1.0000 </r>
       <r>    5.2927    1.0000 </r>
       <r>    5.3938    1.0000 </r>
       <r>    5.5306    1.0000 </r>
       <r>    5.6456    1.0000 </r>
       <r>    5.6775    1.0000 </r>
       <r>    5.6804    1.0000 </r>
       <r>    5.8582    1.0000 </r>
       <r>    5.9135    1.0000 </r>
       <r>    6.1206    1.0000 </r>
       <r>    6.3347    1.0000 </r>
       <r>    6.4118    1.0000 </r>
       <r>    6.4378    1.0000 </r>
       <r>    6.6404    1.0000 </r>
       <r>    6.7561    1.0000 </r>
       <r>    6.8866    1.0000 </r>
       <r>    7.0412    1.0000 </r>
       <r>    7.3014    1.0000 </r>
       <r>    7.3934    1.0000 </r>
       <r>    7.5631    1.0000 </r>
       <r>    7.7217    1.0000 </r>
       <r>    7.7994    1.0000 </r>
       <r>    7.9435    1.0000 </r>
       <r>    7.9632    1.0000 </r>
       <r>    8.1961    0.0162 </r>
       <r>    8.1992    0.0091 </r>
       <r>    8.3812    0.0000 </r>
       <r>    8.3983    0.0000 </r>
       <r>    8.8636    0.0000 </r>
       <r>    9.0423    0.0000 </r>
       <r>    9.1282    0.0000 </r>
       <r>    9.1829    0.0000 </r>
       <r>    9.4556    0.0000 </r>
       <r>    9.5039    0.0000 </r>
       <r>    9.5567    0.0000 </r>
       <r>    9.7506    0.0000 </r>
       <r>    9.8442    0.0000 </r>
       <r>    9.8651    0.0000 </r>
       <r>   10.2053    0.0000 </r>
       <r>   10.3933    0.0000 </r>
       <r>   10.5801    0.0000 </r>
       <r>   10.7692    0.0000 </r>
       <r>   11.0172    0.0000 </r>
       <r>   11.2500    0.0000 </r>
       <r>   11.2841    0.0000 </r>
      </set>
      <set comment="kpoint 3">
       <r>  -54.8372    1.0000 </r>
       <r>  -54.8367    1.0000 </r>
       <r>  -54.6816    1.0000 </r>
       <r>  -54.6590    1.0000 </r>
       <r>  -54.5399    1.0000 </r>
       <r>  -54.5391    1.0000 </r>
       <r>  -54.5015    1.0000 </r>
       <r>  -54.5006    1.0000 </r>
       <r>  -54.4536    1.0000 </r>
       <r>  -54.4298    1.0000 </r>
       <r>  -28.6768    1.0000 </r>
       <r>  -28.6046    1.0000 </r>
       <r>  -28.4011    1.0000 </r>
       <r>  -28.3959    1.0000 </r>
       <r>  -28.3444    1.0000 </r>
       <r>  -28.3307    1.0000 </r>
       <r>  -28.3305    1.0000 </r>
       <r>  -28.2921    1.0000 </r>
       <r>  -28.2181    1.0000 </r>
       <r>  -28.2102    1.0000 </r>
       <r>  -28.1637    1.0000 </r>
       <r>  -28.1584    1.0000 </r>
       <r>  -28.0997    1.0000 </r>
       <r>  -28.0477    1.0000 </r>
       <r>  -28.0377    1.0000 </r>
       <r>  -28.0357    1.0000 </r>
       <r>  -28.0067    1.0000 </r>
       <r>  -27.9849    1.0000 </r>
       <r>  -27.9508    1.0000 </r>
       <r>  -27.9451    1.0000 </r>
       <r>  -27.8426    1.0000 </r>
       <r>  -27.8405    1.0000 </r>
       <r>  -27.5801    1.0000 </r>
       <r>  -27.5701    1.0000 </r>
       <r>  -27.5664    1.0000 </r>
       <r>  -27.5648    1.0000 </r>
       <r>  -27.5097    1.0000 </r>
       <r>  -27.4741    1.0000 </r>
       <r>  -27.4721    1.0000 </r>
       <r>  -27.4040    1.0000 </r>
       <r>   -2.5696    1.0000 </r>
       <r>   -2.0346    1.0000 </r>
       <r>   -0.8618    1.0000 </r>
       <r>   -0.8400    1.0000 </r>
       <r>    1.3506    1.0000 </r>
       <r>    1.5025    1.0000 </r>
       <r>    2.6707    1.0000 </r>
       <r>    2.7173    1.0000 </r>
       <r>    3.0172    1.0000 </r>
       <r>    3.4951    1.0000 </r>
       <r>    3.6101    1.0000 </r>
       <r>    3.6513    1.0000 </r>
       <r>    4.2457    1.0000 </r>
       <r>    4.3027    1.0000 </r>
       <r>    4.6282    1.0000 </r>
       <r>    4.9693    1.0000 </r>
       <r>    4.9912    1.0000 </r>
       <r>    5.1021    1.0000 </r>
       <r>    5.1055    1.0000 </r>
       <r>    5.2854    1.0000 </r>
       <r>    5.2860    1.0000 </r>
       <r>    5.6134    1.0000 </r>
       <r>    5.6705    1.0000 </r>
       <r>    5.7891    1.0000 </r>
       <r>    5.8522    1.0000 </r>
       <r>    5.9003    1.0000 </r>
       <r>    5.9914    1.0000 </r>
       <r>    6.0830    1.0000 </r>
       <r>    6.5011    1.0000 </r>
       <r>    6.5987    1.0000 </r>
       <r>    6.8800    1.0000 </r>
       <r>    7.0469    1.0000 </r>
       <r>    7.1875    1.0000 </r>
       <r>    7.2643    1.0000 </r>
       <r>    7.3256    1.0000 </r>
       <r>    7.4347    1.0000 </r>
       <r>    7.6736    1.0000 </r>
       <r>    7.7684    1.0000 </r>
       <r>    7.7942    1.0000 </r>
       <r>    8.0173    1.0000 </r>
       <r>    8.0253    1.0000 </r>
       <r>    8.1635    0.5646 </r>
       <r>    8.2946    0.0000 </r>
       <r>    8.3122    0.0000 </r>
       <r>    8.3644    0.0000 </r>
       <r>    8.8561    0.0000 </r>
       <r>    9.0862    0.0000 </r>
       <r>    9.2849    0.0000 </r>
       <r>    9.3047    0.0000 </r>
       <r>    9.4755    0.0000 </r>
       <r>    9.5274    0.0000 </r>
       <r>    9.6405    0.0000 </r>
       <r>    9.7955    0.0000 </r>
       <r>    9.8896    0.0000 </r>
       <r>    9.9606    0.0000 </r>
       <r>   10.0536    0.0000 </r>
       <r>   10.2169    0.0000 </r>
       <r>   10.3519    0.0000 </r>
       <r>   10.4382    0.0000 </r>
       <r>   10.6482    0.0000 </r>
       <r>   10.9262    0.0000 </r>
       <r>   11.1816    0.0000 </r>
      </set>
      <set comment="kpoint 4">
       <r>  -54.8369    1.0000 </r>
       <r>  -54.8369    1.0000 </r>
       <r>  -54.6709    1.0000 </r>
       <r>  -54.6707    1.0000 </r>
       <r>  -54.5408    1.0000 </r>
       <r>  -54.5400    1.0000 </r>
       <r>  -54.5006    1.0000 </r>
       <r>  -54.4997    1.0000 </r>
       <r>  -54.4413    1.0000 </r>
       <r>  -54.4412    1.0000 </r>
       <r>  -28.6430    1.0000 </r>
       <r>  -28.6430    1.0000 </r>
       <r>  -28.3937    1.0000 </r>
       <r>  -28.3933    1.0000 </r>
       <r>  -28.3306    1.0000 </r>
       <r>  -28.3306    1.0000 </r>
       <r>  -28.3122    1.0000 </r>
       <r>  -28.3114    1.0000 </r>
       <r>  -28.2210    1.0000 </r>
       <r>  -28.2210    1.0000 </r>
       <r>  -28.1693    1.0000 </r>
       <r>  -28.1693    1.0000 </r>
       <r>  -28.0808    1.0000 </r>
       <r>  -28.0799    1.0000 </r>
       <r>  -28.0346    1.0000 </r>
       <r>  -28.0345    1.0000 </r>
       <r>  -27.9919    1.0000 </r>
       <r>  -27.9919    1.0000 </r>
       <r>  -27.9516    1.0000 </r>
       <r>  -27.9511    1.0000 </r>
       <r>  -27.8343    1.0000 </r>
       <r>  -27.8332    1.0000 </r>
       <r>  -27.5722    1.0000 </r>
       <r>  -27.5722    1.0000 </r>
       <r>  -27.5636    1.0000 </r>
       <r>  -27.5635    1.0000 </r>
       <r>  -27.4799    1.0000 </r>
       <r>  -27.4796    1.0000 </r>
       <r>  -27.4530    1.0000 </r>
       <r>  -27.4528    1.0000 </r>
       <r>   -2.2846    1.0000 </r>
       <r>   -2.2837    1.0000 </r>
       <r>   -0.8751    1.0000 </r>
       <r>   -0.8749    1.0000 </r>
       <r>    1.4582    1.0000 </r>
       <r>    1.4586    1.0000 </r>
       <r>    2.5568    1.0000 </r>
       <r>    2.5571    1.0000 </r>
       <r>    3.2333    1.0000 </r>
       <r>    3.2335    1.0000 </r>
       <r>    3.6246    1.0000 </r>
       <r>    3.6253    1.0000 </r>
       <r>    4.2827    1.0000 </r>
       <r>    4.2827    1.0000 </r>
       <r>    4.8557    1.0000 </r>
       <r>    4.8559    1.0000 </r>
       <r>    5.0238    1.0000 </r>
       <r>    5.0238    1.0000 </r>
       <r>    5.1569    1.0000 </r>
       <r>    5.1572    1.0000 </r>
       <r>    5.4492    1.0000 </r>
       <r>    5.4494    1.0000 </r>
       <r>    5.7395    1.0000 </r>
       <r>    5.7399    1.0000 </r>
       <r>    5.8780    1.0000 </r>
       <r>    5.8781    1.0000 </r>
       <r>    6.0170    1.0000 </r>
       <r>    6.0173    1.0000 </r>
       <r>    6.5645    1.0000 </r>
       <r>    6.5645    1.0000 </r>
       <r>    7.1010    1.0000 </r>
       <r>    7.1012    1.0000 </r>
       <r>    7.2991    1.0000 </r>
       <r>    7.2994    1.0000 </r>
       <r>    7.4405    1.0000 </r>
       <r>    7.4407    1.0000 </r>
       <r>    7.7016    1.0000 </r>
       <r>    7.7017    1.0000 </r>
       <r>    7.8914    1.0000 </r>
       <r>    7.8915    1.0000 </r>
       <r>    8.0509    1.0000 </r>
       <r>    8.0509    1.0000 </r>
       <r>    8.3860    0.0000 </r>
       <r>    8.3862    0.0000 </r>
       <r>    8.6126    0.0000 </r>
       <r>    8.6131    0.0000 </r>
       <r>    9.2727    0.0000 </r>
       <r>    9.2729    0.0000 </r>
       <r>    9.4006    0.0000 </r>
       <r>    9.4007    0.0000 </r>
       <r>    9.5995    0.0000 </r>
       <r>    9.5996    0.0000 </r>
       <r>    9.7940    0.0000 </r>
       <r>    9.7942    0.0000 </r>
       <r>    9.9298    0.0000 </r>
       <r>    9.9298    0.0000 </r>
       <r>   10.2044    0.0000 </r>
       <r>   10.2081    0.0000 </r>
       <r>   10.5398    0.0000 </r>
       <r>   10.6492    0.0000 </r>
       <r>   10.9958    0.0000 </r>
       <r>   11.0113    0.0000 </r>
      </set>
      <set comment="kpoint 5">
       <r>  -54.8374    1.0000 </r>
       <r>  -54.8366    1.0000 </r>
       <r>  -54.6823    1.0000 </r>
       <r>  -54.6581    1.0000 </r>
       <r>  -54.5399    1.0000 </r>
       <r>  -54.5383    1.0000 </r>
       <r>  -54.5015    1.0000 </r>
       <r>  -54.5013    1.0000 </r>
       <r>  -54.4546    1.0000 </r>
       <r>  -54.4289    1.0000 </r>
       <r>  -28.6766    1.0000 </r>
       <r>  -28.6036    1.0000 </r>
       <r>  -28.3994    1.0000 </r>
       <r>  -28.3994    1.0000 </r>
       <r>  -28.3514    1.0000 </r>
       <r>  -28.3311    1.0000 </r>
       <r>  -28.3303    1.0000 </r>
       <r>  -28.2927    1.0000 </r>
       <r>  -28.2162    1.0000 </r>
       <r>  -28.2140    1.0000 </r>
       <r>  -28.1543    1.0000 </r>
       <r>  -28.1482    1.0000 </r>
       <r>  -28.0941    1.0000 </r>
       <r>  -28.0514    1.0000 </r>
       <r>  -28.0299    1.0000 </r>
       <r>  -28.0295    1.0000 </r>
       <r>  -28.0211    1.0000 </r>
       <r>  -27.9902    1.0000 </r>
       <r>  -27.9542    1.0000 </r>
       <r>  -27.9475    1.0000 </r>
       <r>  -27.8456    1.0000 </r>
       <r>  -27.8409    1.0000 </r>
       <r>  -27.5790    1.0000 </r>
       <r>  -27.5679    1.0000 </r>
       <r>  -27.5664    1.0000 </r>
       <r>  -27.5652    1.0000 </r>
       <r>  -27.5091    1.0000 </r>
       <r>  -27.4723    1.0000 </r>
       <r>  -27.4722    1.0000 </r>
       <r>  -27.4053    1.0000 </r>
       <r>   -2.6367    1.0000 </r>
       <r>   -1.9822    1.0000 </r>
       <r>   -0.8497    1.0000 </r>
       <r>   -0.8237    1.0000 </r>
       <r>    1.3381    1.0000 </r>
       <r>    1.4438    1.0000 </r>
       <r>    2.7705    1.0000 </r>
       <r>    2.8519    1.0000 </r>
       <r>    2.9017    1.0000 </r>
       <r>    3.4918    1.0000 </r>
       <r>    3.6431    1.0000 </r>
       <r>    3.6836    1.0000 </r>
       <r>    4.1992    1.0000 </r>
       <r>    4.4149    1.0000 </r>
       <r>    4.4815    1.0000 </r>
       <r>    4.8320    1.0000 </r>
       <r>    5.0548    1.0000 </r>
       <r>    5.1761    1.0000 </r>
       <r>    5.2519    1.0000 </r>
       <r>    5.2605    1.0000 </r>
       <r>    5.4154    1.0000 </r>
       <r>    5.4933    1.0000 </r>
       <r>    5.6646    1.0000 </r>
       <r>    5.7187    1.0000 </r>
       <r>    5.8330    1.0000 </r>
       <r>    5.9234    1.0000 </r>
       <r>    5.9966    1.0000 </r>
       <r>    6.2583    1.0000 </r>
       <r>    6.4148    1.0000 </r>
       <r>    6.4405    1.0000 </r>
       <r>    6.8422    1.0000 </r>
       <r>    6.9886    1.0000 </r>
       <r>    7.0146    1.0000 </r>
       <r>    7.3010    1.0000 </r>
       <r>    7.4095    1.0000 </r>
       <r>    7.5698    1.0000 </r>
       <r>    7.6970    1.0000 </r>
       <r>    7.7557    1.0000 </r>
       <r>    7.8552    1.0000 </r>
       <r>    7.9580    1.0000 </r>
       <r>    8.1008    1.0000 </r>
       <r>    8.1508    0.8551 </r>
       <r>    8.1857    0.0800 </r>
       <r>    8.2920    0.0000 </r>
       <r>    8.3296    0.0000 </r>
       <r>    8.7645    0.0000 </r>
       <r>    9.0903    0.0000 </r>
       <r>    9.2396    0.0000 </r>
       <r>    9.3444    0.0000 </r>
       <r>    9.3960    0.0000 </r>
       <r>    9.4450    0.0000 </r>
       <r>    9.7216    0.0000 </r>
       <r>    9.7512    0.0000 </r>
       <r>    9.7941    0.0000 </r>
       <r>    9.8506    0.0000 </r>
       <r>   10.2178    0.0000 </r>
       <r>   10.3631    0.0000 </r>
       <r>   10.5047    0.0000 </r>
       <r>   10.5649    0.0000 </r>
       <r>   10.8659    0.0000 </r>
       <r>   11.0344    0.0000 </r>
       <r>   11.1777    0.0000 </r>
      </set>
      <set comment="kpoint 6">
       <r>  -54.8371    1.0000 </r>
       <r>  -54.8367    1.0000 </r>
       <r>  -54.6722    1.0000 </r>
       <r>  -54.6693    1.0000 </r>
       <r>  -54.5408    1.0000 </r>
       <r>  -54.5402    1.0000 </r>
       <r>  -54.5006    1.0000 </r>
       <r>  -54.4994    1.0000 </r>
       <r>  -54.4429    1.0000 </r>
       <r>  -54.4397    1.0000 </r>
       <r>  -28.6436    1.0000 </r>
       <r>  -28.6426    1.0000 </r>
       <r>  -28.3936    1.0000 </r>
       <r>  -28.3934    1.0000 </r>
       <r>  -28.3307    1.0000 </r>
       <r>  -28.3306    1.0000 </r>
       <r>  -28.3186    1.0000 </r>
       <r>  -28.3063    1.0000 </r>
       <r>  -28.2235    1.0000 </r>
       <r>  -28.2198    1.0000 </r>
       <r>  -28.1715    1.0000 </r>
       <r>  -28.1617    1.0000 </r>
       <r>  -28.0889    1.0000 </r>
       <r>  -28.0701    1.0000 </r>
       <r>  -28.0281    1.0000 </r>
       <r>  -28.0212    1.0000 </r>
       <r>  -28.0019    1.0000 </r>
       <r>  -27.9981    1.0000 </r>
       <r>  -27.9658    1.0000 </r>
       <r>  -27.9516    1.0000 </r>
       <r>  -27.8342    1.0000 </r>
       <r>  -27.8265    1.0000 </r>
       <r>  -27.5743    1.0000 </r>
       <r>  -27.5701    1.0000 </r>
       <r>  -27.5636    1.0000 </r>
       <r>  -27.5630    1.0000 </r>
       <r>  -27.4800    1.0000 </r>
       <r>  -27.4796    1.0000 </r>
       <r>  -27.4547    1.0000 </r>
       <r>  -27.4512    1.0000 </r>
       <r>   -2.3856    1.0000 </r>
       <r>   -2.1702    1.0000 </r>
       <r>   -0.8857    1.0000 </r>
       <r>   -0.8752    1.0000 </r>
       <r>    1.4065    1.0000 </r>
       <r>    1.4658    1.0000 </r>
       <r>    2.5334    1.0000 </r>
       <r>    2.6881    1.0000 </r>
       <r>    3.0052    1.0000 </r>
       <r>    3.4004    1.0000 </r>
       <r>    3.5943    1.0000 </r>
       <r>    3.7172    1.0000 </r>
       <r>    4.3199    1.0000 </r>
       <r>    4.4029    1.0000 </r>
       <r>    4.5714    1.0000 </r>
       <r>    4.9371    1.0000 </r>
       <r>    4.9782    1.0000 </r>
       <r>    5.0961    1.0000 </r>
       <r>    5.1171    1.0000 </r>
       <r>    5.1908    1.0000 </r>
       <r>    5.3869    1.0000 </r>
       <r>    5.4101    1.0000 </r>
       <r>    5.6220    1.0000 </r>
       <r>    5.7858    1.0000 </r>
       <r>    5.8391    1.0000 </r>
       <r>    5.9670    1.0000 </r>
       <r>    6.0869    1.0000 </r>
       <r>    6.1871    1.0000 </r>
       <r>    6.3861    1.0000 </r>
       <r>    6.5996    1.0000 </r>
       <r>    6.8901    1.0000 </r>
       <r>    7.0808    1.0000 </r>
       <r>    7.1800    1.0000 </r>
       <r>    7.3517    1.0000 </r>
       <r>    7.4183    1.0000 </r>
       <r>    7.6146    1.0000 </r>
       <r>    7.6890    1.0000 </r>
       <r>    7.7505    1.0000 </r>
       <r>    7.9738    1.0000 </r>
       <r>    8.0284    1.0000 </r>
       <r>    8.0466    1.0000 </r>
       <r>    8.1629    0.5828 </r>
       <r>    8.2661    0.0000 </r>
       <r>    8.3727    0.0000 </r>
       <r>    8.4254    0.0000 </r>
       <r>    8.7102    0.0000 </r>
       <r>    9.1141    0.0000 </r>
       <r>    9.2151    0.0000 </r>
       <r>    9.3158    0.0000 </r>
       <r>    9.4376    0.0000 </r>
       <r>    9.5559    0.0000 </r>
       <r>    9.6286    0.0000 </r>
       <r>    9.6924    0.0000 </r>
       <r>    9.7582    0.0000 </r>
       <r>   10.0471    0.0000 </r>
       <r>   10.1813    0.0000 </r>
       <r>   10.2218    0.0000 </r>
       <r>   10.4366    0.0000 </r>
       <r>   10.5387    0.0000 </r>
       <r>   10.7072    0.0000 </r>
       <r>   11.0454    0.0000 </r>
       <r>   11.2342    0.0000 </r>
      </set>
      <set comment="kpoint 7">
       <r>  -54.8369    1.0000 </r>
       <r>  -54.8369    1.0000 </r>
       <r>  -54.6801    1.0000 </r>
       <r>  -54.6608    1.0000 </r>
       <r>  -54.5409    1.0000 </r>
       <r>  -54.5399    1.0000 </r>
       <r>  -54.5014    1.0000 </r>
       <r>  -54.4987    1.0000 </r>
       <r>  -54.4517    1.0000 </r>
       <r>  -54.4317    1.0000 </r>
       <r>  -28.6772    1.0000 </r>
       <r>  -28.6068    1.0000 </r>
       <r>  -28.3992    1.0000 </r>
       <r>  -28.3938    1.0000 </r>
       <r>  -28.3342    1.0000 </r>
       <r>  -28.3313    1.0000 </r>
       <r>  -28.3293    1.0000 </r>
       <r>  -28.2884    1.0000 </r>
       <r>  -28.2164    1.0000 </r>
       <r>  -28.2108    1.0000 </r>
       <r>  -28.1813    1.0000 </r>
       <r>  -28.1665    1.0000 </r>
       <r>  -28.1096    1.0000 </r>
       <r>  -28.0590    1.0000 </r>
       <r>  -28.0301    1.0000 </r>
       <r>  -28.0168    1.0000 </r>
       <r>  -27.9980    1.0000 </r>
       <r>  -27.9823    1.0000 </r>
       <r>  -27.9669    1.0000 </r>
       <r>  -27.9487    1.0000 </r>
       <r>  -27.8445    1.0000 </r>
       <r>  -27.8193    1.0000 </r>
       <r>  -27.5823    1.0000 </r>
       <r>  -27.5736    1.0000 </r>
       <r>  -27.5684    1.0000 </r>
       <r>  -27.5622    1.0000 </r>
       <r>  -27.5110    1.0000 </r>
       <r>  -27.4759    1.0000 </r>
       <r>  -27.4737    1.0000 </r>
       <r>  -27.4017    1.0000 </r>
       <r>   -2.4190    1.0000 </r>
       <r>   -2.1318    1.0000 </r>
       <r>   -0.9259    1.0000 </r>
       <r>   -0.8519    1.0000 </r>
       <r>    1.3174    1.0000 </r>
       <r>    1.5984    1.0000 </r>
       <r>    2.5240    1.0000 </r>
       <r>    2.6843    1.0000 </r>
       <r>    3.1484    1.0000 </r>
       <r>    3.2940    1.0000 </r>
       <r>    3.6114    1.0000 </r>
       <r>    3.7234    1.0000 </r>
       <r>    4.2799    1.0000 </r>
       <r>    4.4105    1.0000 </r>
       <r>    4.7106    1.0000 </r>
       <r>    4.8842    1.0000 </r>
       <r>    4.9107    1.0000 </r>
       <r>    5.0098    1.0000 </r>
       <r>    5.1447    1.0000 </r>
       <r>    5.1866    1.0000 </r>
       <r>    5.2194    1.0000 </r>
       <r>    5.5792    1.0000 </r>
       <r>    5.6433    1.0000 </r>
       <r>    5.7125    1.0000 </r>
       <r>    5.9054    1.0000 </r>
       <r>    5.9805    1.0000 </r>
       <r>    6.0078    1.0000 </r>
       <r>    6.1876    1.0000 </r>
       <r>    6.4872    1.0000 </r>
       <r>    6.6244    1.0000 </r>
       <r>    6.8483    1.0000 </r>
       <r>    7.0403    1.0000 </r>
       <r>    7.0761    1.0000 </r>
       <r>    7.2600    1.0000 </r>
       <r>    7.3755    1.0000 </r>
       <r>    7.5966    1.0000 </r>
       <r>    7.6716    1.0000 </r>
       <r>    7.7108    1.0000 </r>
       <r>    7.8374    1.0000 </r>
       <r>    8.0070    1.0000 </r>
       <r>    8.0674    1.0000 </r>
       <r>    8.1990    0.0095 </r>
       <r>    8.3394    0.0000 </r>
       <r>    8.4019    0.0000 </r>
       <r>    8.6287    0.0000 </r>
       <r>    8.7261    0.0000 </r>
       <r>    9.1394    0.0000 </r>
       <r>    9.1695    0.0000 </r>
       <r>    9.4385    0.0000 </r>
       <r>    9.4804    0.0000 </r>
       <r>    9.5146    0.0000 </r>
       <r>    9.6363    0.0000 </r>
       <r>    9.7283    0.0000 </r>
       <r>    9.8640    0.0000 </r>
       <r>    9.9862    0.0000 </r>
       <r>   10.0163    0.0000 </r>
       <r>   10.1831    0.0000 </r>
       <r>   10.3580    0.0000 </r>
       <r>   10.6196    0.0000 </r>
       <r>   10.7148    0.0000 </r>
       <r>   10.9292    0.0000 </r>
       <r>   11.1293    0.0000 </r>
      </set>
      <set comment="kpoint 8">
       <r>  -54.8372    1.0000 </r>
       <r>  -54.8367    1.0000 </r>
       <r>  -54.6877    1.0000 </r>
       <r>  -54.6512    1.0000 </r>
       <r>  -54.5399    1.0000 </r>
       <r>  -54.5380    1.0000 </r>
       <r>  -54.5033    1.0000 </r>
       <r>  -54.4998    1.0000 </r>
       <r>  -54.4616    1.0000 </r>
       <r>  -54.4235    1.0000 </r>
       <r>  -28.7004    1.0000 </r>
       <r>  -28.5750    1.0000 </r>
       <r>  -28.4078    1.0000 </r>
       <r>  -28.4019    1.0000 </r>
       <r>  -28.3627    1.0000 </r>
       <r>  -28.3307    1.0000 </r>
       <r>  -28.3299    1.0000 </r>
       <r>  -28.2779    1.0000 </r>
       <r>  -28.2032    1.0000 </r>
       <r>  -28.1944    1.0000 </r>
       <r>  -28.1767    1.0000 </r>
       <r>  -28.1577    1.0000 </r>
       <r>  -28.1206    1.0000 </r>
       <r>  -28.0452    1.0000 </r>
       <r>  -28.0346    1.0000 </r>
       <r>  -28.0117    1.0000 </r>
       <r>  -28.0085    1.0000 </r>
       <r>  -27.9717    1.0000 </r>
       <r>  -27.9517    1.0000 </r>
       <r>  -27.9402    1.0000 </r>
       <r>  -27.8656    1.0000 </r>
       <r>  -27.8278    1.0000 </r>
       <r>  -27.5880    1.0000 </r>
       <r>  -27.5833    1.0000 </r>
       <r>  -27.5766    1.0000 </r>
       <r>  -27.5600    1.0000 </r>
       <r>  -27.5574    1.0000 </r>
       <r>  -27.4651    1.0000 </r>
       <r>  -27.4631    1.0000 </r>
       <r>  -27.3693    1.0000 </r>
       <r>   -2.6570    1.0000 </r>
       <r>   -1.9540    1.0000 </r>
       <r>   -0.9033    1.0000 </r>
       <r>   -0.8022    1.0000 </r>
       <r>    1.2275    1.0000 </r>
       <r>    1.6227    1.0000 </r>
       <r>    2.8063    1.0000 </r>
       <r>    2.8555    1.0000 </r>
       <r>    3.0673    1.0000 </r>
       <r>    3.3793    1.0000 </r>
       <r>    3.6835    1.0000 </r>
       <r>    3.6993    1.0000 </r>
       <r>    4.2401    1.0000 </r>
       <r>    4.3433    1.0000 </r>
       <r>    4.5390    1.0000 </r>
       <r>    4.7640    1.0000 </r>
       <r>    4.9939    1.0000 </r>
       <r>    5.0801    1.0000 </r>
       <r>    5.1422    1.0000 </r>
       <r>    5.2497    1.0000 </r>
       <r>    5.4071    1.0000 </r>
       <r>    5.4989    1.0000 </r>
       <r>    5.6057    1.0000 </r>
       <r>    5.6763    1.0000 </r>
       <r>    5.7668    1.0000 </r>
       <r>    5.9503    1.0000 </r>
       <r>    6.1870    1.0000 </r>
       <r>    6.3767    1.0000 </r>
       <r>    6.4593    1.0000 </r>
       <r>    6.5224    1.0000 </r>
       <r>    6.6929    1.0000 </r>
       <r>    6.8549    1.0000 </r>
       <r>    7.0339    1.0000 </r>
       <r>    7.1562    1.0000 </r>
       <r>    7.2414    1.0000 </r>
       <r>    7.5078    1.0000 </r>
       <r>    7.6060    1.0000 </r>
       <r>    7.7066    1.0000 </r>
       <r>    7.8843    1.0000 </r>
       <r>    8.0314    1.0000 </r>
       <r>    8.0433    1.0000 </r>
       <r>    8.1889    0.0511 </r>
       <r>    8.2388    0.0000 </r>
       <r>    8.4205    0.0000 </r>
       <r>    8.4296    0.0000 </r>
       <r>    8.7643    0.0000 </r>
       <r>    9.0248    0.0000 </r>
       <r>    9.2699    0.0000 </r>
       <r>    9.3139    0.0000 </r>
       <r>    9.4696    0.0000 </r>
       <r>    9.5331    0.0000 </r>
       <r>    9.6560    0.0000 </r>
       <r>    9.7500    0.0000 </r>
       <r>    9.8679    0.0000 </r>
       <r>    9.9715    0.0000 </r>
       <r>   10.0696    0.0000 </r>
       <r>   10.2953    0.0000 </r>
       <r>   10.4118    0.0000 </r>
       <r>   10.6722    0.0000 </r>
       <r>   11.0421    0.0000 </r>
       <r>   11.2290    0.0000 </r>
       <r>   11.2990    0.0000 </r>
      </set>
      <set comment="kpoint 9">
       <r>  -54.8375    1.0000 </r>
       <r>  -54.8366    1.0000 </r>
       <r>  -54.6909    1.0000 </r>
       <r>  -54.6469    1.0000 </r>
       <r>  -54.5380    1.0000 </r>
       <r>  -54.5370    1.0000 </r>
       <r>  -54.5044    1.0000 </r>
       <r>  -54.5017    1.0000 </r>
       <r>  -54.4661    1.0000 </r>
       <r>  -54.4200    1.0000 </r>
       <r>  -28.7081    1.0000 </r>
       <r>  -28.5599    1.0000 </r>
       <r>  -28.4105    1.0000 </r>
       <r>  -28.4095    1.0000 </r>
       <r>  -28.3796    1.0000 </r>
       <r>  -28.3315    1.0000 </r>
       <r>  -28.3295    1.0000 </r>
       <r>  -28.2841    1.0000 </r>
       <r>  -28.1934    1.0000 </r>
       <r>  -28.1915    1.0000 </r>
       <r>  -28.1638    1.0000 </r>
       <r>  -28.1396    1.0000 </r>
       <r>  -28.1068    1.0000 </r>
       <r>  -28.0441    1.0000 </r>
       <r>  -28.0412    1.0000 </r>
       <r>  -28.0262    1.0000 </r>
       <r>  -28.0253    1.0000 </r>
       <r>  -27.9510    1.0000 </r>
       <r>  -27.9374    1.0000 </r>
       <r>  -27.9344    1.0000 </r>
       <r>  -27.8785    1.0000 </r>
       <r>  -27.8474    1.0000 </r>
       <r>  -27.5896    1.0000 </r>
       <r>  -27.5840    1.0000 </r>
       <r>  -27.5806    1.0000 </r>
       <r>  -27.5796    1.0000 </r>
       <r>  -27.5566    1.0000 </r>
       <r>  -27.4584    1.0000 </r>
       <r>  -27.4580    1.0000 </r>
       <r>  -27.3588    1.0000 </r>
       <r>   -2.7988    1.0000 </r>
       <r>   -1.8723    1.0000 </r>
       <r>   -0.8435    1.0000 </r>
       <r>   -0.7797    1.0000 </r>
       <r>    1.2337    1.0000 </r>
       <r>    1.4984    1.0000 </r>
       <r>    3.0156    1.0000 </r>
       <r>    3.0646    1.0000 </r>
       <r>    3.1404    1.0000 </r>
       <r>    3.3573    1.0000 </r>
       <r>    3.7078    1.0000 </r>
       <r>    3.8067    1.0000 </r>
       <r>    4.1835    1.0000 </r>
       <r>    4.1901    1.0000 </r>
       <r>    4.4298    1.0000 </r>
       <r>    4.7243    1.0000 </r>
       <r>    4.7526    1.0000 </r>
       <r>    5.0971    1.0000 </r>
       <r>    5.2685    1.0000 </r>
       <r>    5.4581    1.0000 </r>
       <r>    5.4588    1.0000 </r>
       <r>    5.6234    1.0000 </r>
       <r>    5.6733    1.0000 </r>
       <r>    5.7645    1.0000 </r>
       <r>    5.8465    1.0000 </r>
       <r>    5.9004    1.0000 </r>
       <r>    6.2075    1.0000 </r>
       <r>    6.3456    1.0000 </r>
       <r>    6.4068    1.0000 </r>
       <r>    6.4503    1.0000 </r>
       <r>    6.6053    1.0000 </r>
       <r>    6.7446    1.0000 </r>
       <r>    6.8166    1.0000 </r>
       <r>    7.1109    1.0000 </r>
       <r>    7.2796    1.0000 </r>
       <r>    7.3977    1.0000 </r>
       <r>    7.4352    1.0000 </r>
       <r>    7.7344    1.0000 </r>
       <r>    7.8339    1.0000 </r>
       <r>    7.8755    1.0000 </r>
       <r>    8.0375    1.0000 </r>
       <r>    8.1766    0.2234 </r>
       <r>    8.2466    0.0000 </r>
       <r>    8.3658    0.0000 </r>
       <r>    8.3987    0.0000 </r>
       <r>    8.8134    0.0000 </r>
       <r>    9.0347    0.0000 </r>
       <r>    9.1131    0.0000 </r>
       <r>    9.1764    0.0000 </r>
       <r>    9.4564    0.0000 </r>
       <r>    9.4581    0.0000 </r>
       <r>    9.5799    0.0000 </r>
       <r>    9.6669    0.0000 </r>
       <r>   10.0064    0.0000 </r>
       <r>   10.1010    0.0000 </r>
       <r>   10.1305    0.0000 </r>
       <r>   10.2117    0.0000 </r>
       <r>   10.6617    0.0000 </r>
       <r>   10.9535    0.0000 </r>
       <r>   11.2591    0.0000 </r>
       <r>   11.3234    0.0000 </r>
       <r>   11.4150    0.0000 </r>
      </set>
      <set comment="kpoint 10">
       <r>  -54.8369    1.0000 </r>
       <r>  -54.8368    1.0000 </r>
       <r>  -54.6793    1.0000 </r>
       <r>  -54.6617    1.0000 </r>
       <r>  -54.5420    1.0000 </r>
       <r>  -54.5399    1.0000 </r>
       <r>  -54.5014    1.0000 </r>
       <r>  -54.4975    1.0000 </r>
       <r>  -54.4508    1.0000 </r>
       <r>  -54.4327    1.0000 </r>
       <r>  -28.6775    1.0000 </r>
       <r>  -28.6081    1.0000 </r>
       <r>  -28.3966    1.0000 </r>
       <r>  -28.3944    1.0000 </r>
       <r>  -28.3315    1.0000 </r>
       <r>  -28.3312    1.0000 </r>
       <r>  -28.3286    1.0000 </r>
       <r>  -28.2857    1.0000 </r>
       <r>  -28.2158    1.0000 </r>
       <r>  -28.2115    1.0000 </r>
       <r>  -28.1899    1.0000 </r>
       <r>  -28.1664    1.0000 </r>
       <r>  -28.1072    1.0000 </r>
       <r>  -28.0633    1.0000 </r>
       <r>  -28.0226    1.0000 </r>
       <r>  -28.0109    1.0000 </r>
       <r>  -27.9939    1.0000 </r>
       <r>  -27.9890    1.0000 </r>
       <r>  -27.9810    1.0000 </r>
       <r>  -27.9495    1.0000 </r>
       <r>  -27.8457    1.0000 </r>
       <r>  -27.8063    1.0000 </r>
       <r>  -27.5834    1.0000 </r>
       <r>  -27.5749    1.0000 </r>
       <r>  -27.5695    1.0000 </r>
       <r>  -27.5610    1.0000 </r>
       <r>  -27.5117    1.0000 </r>
       <r>  -27.4763    1.0000 </r>
       <r>  -27.4749    1.0000 </r>
       <r>  -27.4006    1.0000 </r>
       <r>   -2.3329    1.0000 </r>
       <r>   -2.1763    1.0000 </r>
       <r>   -0.9742    1.0000 </r>
       <r>   -0.8552    1.0000 </r>
       <r>    1.2809    1.0000 </r>
       <r>    1.6297    1.0000 </r>
       <r>    2.4558    1.0000 </r>
       <r>    2.7923    1.0000 </r>
       <r>    3.0818    1.0000 </r>
       <r>    3.2136    1.0000 </r>
       <r>    3.6110    1.0000 </r>
       <r>    3.8733    1.0000 </r>
       <r>    4.4008    1.0000 </r>
       <r>    4.4923    1.0000 </r>
       <r>    4.5370    1.0000 </r>
       <r>    4.7788    1.0000 </r>
       <r>    4.9778    1.0000 </r>
       <r>    5.0028    1.0000 </r>
       <r>    5.0712    1.0000 </r>
       <r>    5.0907    1.0000 </r>
       <r>    5.2513    1.0000 </r>
       <r>    5.5660    1.0000 </r>
       <r>    5.5946    1.0000 </r>
       <r>    5.6300    1.0000 </r>
       <r>    6.0126    1.0000 </r>
       <r>    6.0333    1.0000 </r>
       <r>    6.1415    1.0000 </r>
       <r>    6.2786    1.0000 </r>
       <r>    6.3814    1.0000 </r>
       <r>    6.5360    1.0000 </r>
       <r>    6.7894    1.0000 </r>
       <r>    6.8468    1.0000 </r>
       <r>    7.0434    1.0000 </r>
       <r>    7.2340    1.0000 </r>
       <r>    7.5141    1.0000 </r>
       <r>    7.6151    1.0000 </r>
       <r>    7.6313    1.0000 </r>
       <r>    7.7573    1.0000 </r>
       <r>    7.8940    1.0000 </r>
       <r>    8.1132    0.9999 </r>
       <r>    8.1962    0.0158 </r>
       <r>    8.2214    0.0000 </r>
       <r>    8.3277    0.0000 </r>
       <r>    8.4241    0.0000 </r>
       <r>    8.6618    0.0000 </r>
       <r>    8.8014    0.0000 </r>
       <r>    8.9827    0.0000 </r>
       <r>    9.2254    0.0000 </r>
       <r>    9.2267    0.0000 </r>
       <r>    9.5109    0.0000 </r>
       <r>    9.5113    0.0000 </r>
       <r>    9.5764    0.0000 </r>
       <r>    9.6298    0.0000 </r>
       <r>    9.9202    0.0000 </r>
       <r>    9.9478    0.0000 </r>
       <r>   10.2831    0.0000 </r>
       <r>   10.3706    0.0000 </r>
       <r>   10.4967    0.0000 </r>
       <r>   10.6040    0.0000 </r>
       <r>   10.8641    0.0000 </r>
       <r>   10.9538    0.0000 </r>
       <r>   11.2845    0.0000 </r>
      </set>
      <set comment="kpoint 11">
       <r>  -54.8369    1.0000 </r>
       <r>  -54.8368    1.0000 </r>
       <r>  -54.6865    1.0000 </r>
       <r>  -54.6529    1.0000 </r>
       <r>  -54.5427    1.0000 </r>
       <r>  -54.5380    1.0000 </r>
       <r>  -54.5033    1.0000 </r>
       <r>  -54.4967    1.0000 </r>
       <r>  -54.4600    1.0000 </r>
       <r>  -54.4252    1.0000 </r>
       <r>  -28.7012    1.0000 </r>
       <r>  -28.5789    1.0000 </r>
       <r>  -28.4035    1.0000 </r>
       <r>  -28.3994    1.0000 </r>
       <r>  -28.3567    1.0000 </r>
       <r>  -28.3320    1.0000 </r>
       <r>  -28.3276    1.0000 </r>
       <r>  -28.2579    1.0000 </r>
       <r>  -28.2013    1.0000 </r>
       <r>  -28.1990    1.0000 </r>
       <r>  -28.1934    1.0000 </r>
       <r>  -28.1716    1.0000 </r>
       <r>  -28.1360    1.0000 </r>
       <r>  -28.0488    1.0000 </r>
       <r>  -28.0273    1.0000 </r>
       <r>  -28.0079    1.0000 </r>
       <r>  -27.9885    1.0000 </r>
       <r>  -27.9824    1.0000 </r>
       <r>  -27.9606    1.0000 </r>
       <r>  -27.9417    1.0000 </r>
       <r>  -27.8707    1.0000 </r>
       <r>  -27.7982    1.0000 </r>
       <r>  -27.5902    1.0000 </r>
       <r>  -27.5896    1.0000 </r>
       <r>  -27.5786    1.0000 </r>
       <r>  -27.5604    1.0000 </r>
       <r>  -27.5551    1.0000 </r>
       <r>  -27.4674    1.0000 </r>
       <r>  -27.4657    1.0000 </r>
       <r>  -27.3673    1.0000 </r>
       <r>   -2.4973    1.0000 </r>
       <r>   -2.0212    1.0000 </r>
       <r>   -1.0239    1.0000 </r>
       <r>   -0.8039    1.0000 </r>
       <r>    1.1447    1.0000 </r>
       <r>    1.8216    1.0000 </r>
       <r>    2.6362    1.0000 </r>
       <r>    2.8225    1.0000 </r>
       <r>    2.9965    1.0000 </r>
       <r>    3.2519    1.0000 </r>
       <r>    3.7001    1.0000 </r>
       <r>    3.9446    1.0000 </r>
       <r>    4.2643    1.0000 </r>
       <r>    4.4070    1.0000 </r>
       <r>    4.5882    1.0000 </r>
       <r>    4.7165    1.0000 </r>
       <r>    4.8604    1.0000 </r>
       <r>    4.9601    1.0000 </r>
       <r>    5.1093    1.0000 </r>
       <r>    5.1527    1.0000 </r>
       <r>    5.3834    1.0000 </r>
[...]
       <r>  -28.2218    1.0000 </r>
       <r>  -28.2037    1.0000 </r>
       <r>  -28.1823    1.0000 </r>
       <r>  -28.1568    1.0000 </r>
       <r>  -28.1068    1.0000 </r>
       <r>  -28.0605    1.0000 </r>
       <r>  -28.0604    1.0000 </r>
       <r>  -28.0194    1.0000 </r>
       <r>  -28.0192    1.0000 </r>
       <r>  -28.0004    1.0000 </r>
       <r>  -27.9967    1.0000 </r>
       <r>  -27.9963    1.0000 </r>
       <r>  -27.7905    1.0000 </r>
       <r>  -27.7894    1.0000 </r>
       <r>  -27.5980    1.0000 </r>
       <r>  -27.5865    1.0000 </r>
       <r>  -27.5863    1.0000 </r>
       <r>  -27.5800    1.0000 </r>
       <r>  -27.5483    1.0000 </r>
       <r>  -27.4615    1.0000 </r>
       <r>  -27.4613    1.0000 </r>
       <r>  -27.3503    1.0000 </r>
       <r>   -2.2104    1.0000 </r>
       <r>   -2.0908    1.0000 </r>
       <r>   -1.0143    1.0000 </r>
       <r>   -1.0141    1.0000 </r>
       <r>    1.5040    1.0000 </r>
       <r>    1.5170    1.0000 </r>
       <r>    1.9150    1.0000 </r>
       <r>    3.1073    1.0000 </r>
       <r>    3.1075    1.0000 </r>
       <r>    3.3628    1.0000 </r>
       <r>    3.9205    1.0000 </r>
       <r>    4.1582    1.0000 </r>
       <r>    4.1593    1.0000 </r>
       <r>    4.4936    1.0000 </r>
       <r>    4.5089    1.0000 </r>
       <r>    4.6826    1.0000 </r>
       <r>    4.6827    1.0000 </r>
       <r>    4.7564    1.0000 </r>
       <r>    4.8174    1.0000 </r>
       <r>    5.0692    1.0000 </r>
       <r>    5.0694    1.0000 </r>
       <r>    5.3417    1.0000 </r>
       <r>    5.4149    1.0000 </r>
       <r>    5.5747    1.0000 </r>
       <r>    6.0546    1.0000 </r>
       <r>    6.2847    1.0000 </r>
       <r>    6.2853    1.0000 </r>
       <r>    6.3559    1.0000 </r>
       <r>    6.3971    1.0000 </r>
       <r>    6.3972    1.0000 </r>
       <r>    6.5017    1.0000 </r>
       <r>    6.5017    1.0000 </r>
       <r>    7.3934    1.0000 </r>
       <r>    7.5355    1.0000 </r>
       <r>    7.5951    1.0000 </r>
       <r>    7.6369    1.0000 </r>
       <r>    7.7603    1.0000 </r>
       <r>    7.8078    1.0000 </r>
       <r>    7.9432    1.0000 </r>
       <r>    7.9437    1.0000 </r>
       <r>    8.0106    1.0000 </r>
       <r>    8.0106    1.0000 </r>
       <r>    8.4226    0.0000 </r>
       <r>    8.4226    0.0000 </r>
       <r>    8.6085    0.0000 </r>
       <r>    8.6141    0.0000 </r>
       <r>    8.9627    0.0000 </r>
       <r>    9.1019    0.0000 </r>
       <r>    9.7805    0.0000 </r>
       <r>    9.8375    0.0000 </r>
       <r>    9.9546    0.0000 </r>
       <r>   10.1552    0.0000 </r>
       <r>   10.1675    0.0000 </r>
       <r>   10.2350    0.0000 </r>
       <r>   10.2354    0.0000 </r>
       <r>   10.3546    0.0000 </r>
       <r>   10.4472    0.0000 </r>
       <r>   10.6811    0.0000 </r>
       <r>   10.7198    0.0000 </r>
       <r>   10.7960    0.0000 </r>
       <r>   11.0171    0.0000 </r>
       <r>   11.1478    0.0000 </r>
      </set>
     </set>
    </set>
   </array>
  </eigenvalues>
  <separator name="orbital magnetization" >
   <v name="MAGDIPOLOUT">      0.00000000      0.00000000      0.00000000</v>
  </separator>
  <dos>
   <i name="efermi">      8.16581032 </i>
   <total>
    <array>
     <dimension dim="1">gridpoints</dimension>
     <dimension dim="2">spin</dimension>
     <field>energy</field>
     <field>total</field>
     <field>integrated</field>
     <set>
      <set comment="spin 1">
       <r>   -58.1547     0.0000     0.0000 </r>
       <r>   -57.9115     0.0000     0.0000 </r>
       <r>   -57.6682     0.0000     0.0000 </r>
       <r>   -57.4250     0.0000     0.0000 </r>
       <r>   -57.1817     0.0000     0.0000 </r>
       <r>   -56.9385     0.0000     0.0000 </r>
       <r>   -56.6952     0.0000     0.0000 </r>
       <r>   -56.4520     0.0000     0.0000 </r>
       <r>   -56.2087     0.0000     0.0000 </r>
       <r>   -55.9655     0.0000     0.0000 </r>
       <r>   -55.7222     0.0000     0.0000 </r>
       <r>   -55.4790     0.0000     0.0000 </r>
       <r>   -55.2357     0.0000     0.0000 </r>
       <r>   -54.9925     0.0000     0.0000 </r>
       <r>   -54.7492    16.4440     4.0000 </r>
       <r>   -54.5060    28.7485    13.3264 </r>
       <r>   -54.2627     0.7994    20.0000 </r>
       <r>   -54.0195     0.0000    20.0000 </r>
       <r>   -53.7762     0.0000    20.0000 </r>
       <r>   -53.5330     0.0000    20.0000 </r>
       <r>   -53.2897     0.0000    20.0000 </r>
       <r>   -53.0465     0.0000    20.0000 </r>
       <r>   -52.8032     0.0000    20.0000 </r>
       <r>   -52.5600     0.0000    20.0000 </r>
       <r>   -52.3167     0.0000    20.0000 </r>
       <r>   -52.0735     0.0000    20.0000 </r>
       <r>   -51.8302     0.0000    20.0000 </r>
       <r>   -51.5870     0.0000    20.0000 </r>
       <r>   -51.3437     0.0000    20.0000 </r>
       <r>   -51.1005     0.0000    20.0000 </r>
       <r>   -50.8572     0.0000    20.0000 </r>
       <r>   -50.6140     0.0000    20.0000 </r>
       <r>   -50.3707     0.0000    20.0000 </r>
       <r>   -50.1275     0.0000    20.0000 </r>
       <r>   -49.8842     0.0000    20.0000 </r>
       <r>   -49.6410     0.0000    20.0000 </r>
       <r>   -49.3977     0.0000    20.0000 </r>
       <r>   -49.1545     0.0000    20.0000 </r>
       <r>   -48.9112     0.0000    20.0000 </r>
       <r>   -48.6680     0.0000    20.0000 </r>
       <r>   -48.4247     0.0000    20.0000 </r>
       <r>   -48.1815     0.0000    20.0000 </r>
       <r>   -47.9382     0.0000    20.0000 </r>
       <r>   -47.6950     0.0000    20.0000 </r>
       <r>   -47.4517     0.0000    20.0000 </r>
       <r>   -47.2085     0.0000    20.0000 </r>
       <r>   -46.9652     0.0000    20.0000 </r>
       <r>   -46.7220     0.0000    20.0000 </r>
       <r>   -46.4787     0.0000    20.0000 </r>
       <r>   -46.2355     0.0000    20.0000 </r>
       <r>   -45.9922     0.0000    20.0000 </r>
       <r>   -45.7490     0.0000    20.0000 </r>
       <r>   -45.5057     0.0000    20.0000 </r>
       <r>   -45.2625     0.0000    20.0000 </r>
       <r>   -45.0192     0.0000    20.0000 </r>
       <r>   -44.7760     0.0000    20.0000 </r>
       <r>   -44.5327     0.0000    20.0000 </r>
       <r>   -44.2895     0.0000    20.0000 </r>
       <r>   -44.0462     0.0000    20.0000 </r>
       <r>   -43.8030     0.0000    20.0000 </r>
       <r>   -43.5597     0.0000    20.0000 </r>
       <r>   -43.3165     0.0000    20.0000 </r>
       <r>   -43.0732     0.0000    20.0000 </r>
       <r>   -42.8300     0.0000    20.0000 </r>
       <r>   -42.5867     0.0000    20.0000 </r>
       <r>   -42.3435     0.0000    20.0000 </r>
       <r>   -42.1002     0.0000    20.0000 </r>
       <r>   -41.8570     0.0000    20.0000 </r>
       <r>   -41.6137     0.0000    20.0000 </r>
       <r>   -41.3705     0.0000    20.0000 </r>
       <r>   -41.1272     0.0000    20.0000 </r>
       <r>   -40.8840     0.0000    20.0000 </r>
       <r>   -40.6407     0.0000    20.0000 </r>
       <r>   -40.3975     0.0000    20.0000 </r>
       <r>   -40.1542     0.0000    20.0000 </r>
       <r>   -39.9110     0.0000    20.0000 </r>
       <r>   -39.6677     0.0000    20.0000 </r>
       <r>   -39.4245     0.0000    20.0000 </r>
       <r>   -39.1812     0.0000    20.0000 </r>
       <r>   -38.9380     0.0000    20.0000 </r>
       <r>   -38.6947     0.0000    20.0000 </r>
       <r>   -38.4515     0.0000    20.0000 </r>
       <r>   -38.2082     0.0000    20.0000 </r>
       <r>   -37.9650     0.0000    20.0000 </r>
       <r>   -37.7217     0.0000    20.0000 </r>
       <r>   -37.4785     0.0000    20.0000 </r>
       <r>   -37.2352     0.0000    20.0000 </r>
       <r>   -36.9920     0.0000    20.0000 </r>
       <r>   -36.7487     0.0000    20.0000 </r>
       <r>   -36.5055     0.0000    20.0000 </r>
       <r>   -36.2622     0.0000    20.0000 </r>
       <r>   -36.0190     0.0000    20.0000 </r>
       <r>   -35.7757     0.0000    20.0000 </r>
       <r>   -35.5325     0.0000    20.0000 </r>
       <r>   -35.2892     0.0000    20.0000 </r>
       <r>   -35.0460     0.0000    20.0000 </r>
       <r>   -34.8027     0.0000    20.0000 </r>
       <r>   -34.5595     0.0000    20.0000 </r>
       <r>   -34.3162     0.0000    20.0000 </r>
       <r>   -34.0730     0.0000    20.0000 </r>
       <r>   -33.8297     0.0000    20.0000 </r>
       <r>   -33.5865     0.0000    20.0000 </r>
       <r>   -33.3432     0.0000    20.0000 </r>
       <r>   -33.1000     0.0000    20.0000 </r>
       <r>   -32.8567     0.0000    20.0000 </r>
       <r>   -32.6135     0.0000    20.0000 </r>
       <r>   -32.3702     0.0000    20.0000 </r>
       <r>   -32.1270     0.0000    20.0000 </r>
       <r>   -31.8837     0.0000    20.0000 </r>
       <r>   -31.6405     0.0000    20.0000 </r>
       <r>   -31.3972     0.0000    20.0000 </r>
       <r>   -31.1540     0.0000    20.0000 </r>
       <r>   -30.9107     0.0000    20.0000 </r>
       <r>   -30.6675     0.0000    20.0000 </r>
       <r>   -30.4242     0.0000    20.0000 </r>
       <r>   -30.1810     0.0000    20.0000 </r>
       <r>   -29.9377     0.0000    20.0000 </r>
       <r>   -29.6945     0.0000    20.0000 </r>
       <r>   -29.4512     0.0000    20.0000 </r>
       <r>   -29.2080     0.0000    20.0000 </r>
       <r>   -28.9647     0.0000    20.0000 </r>
       <r>   -28.7215     0.4802    20.1168 </r>
       <r>   -28.4782     6.8517    24.0000 </r>
       <r>   -28.2350    37.2325    36.2050 </r>
       <r>   -27.9917    45.7918    54.3611 </r>
       <r>   -27.7485    16.4427    63.9997 </r>
       <r>   -27.5052    39.0009    73.4870 </r>
       <r>   -27.2620     6.8517    80.0000 </r>
       <r>   -27.0187     0.0000    80.0000 </r>
       <r>   -26.7755     0.0000    80.0000 </r>
       <r>   -26.5322     0.0000    80.0000 </r>
       <r>   -26.2890     0.0000    80.0000 </r>
       <r>   -26.0457     0.0000    80.0000 </r>
       <r>   -25.8025     0.0000    80.0000 </r>
       <r>   -25.5592     0.0000    80.0000 </r>
       <r>   -25.3160     0.0000    80.0000 </r>
       <r>   -25.0727     0.0000    80.0000 </r>
       <r>   -24.8295     0.0000    80.0000 </r>
       <r>   -24.5862     0.0000    80.0000 </r>
       <r>   -24.3430     0.0000    80.0000 </r>
       <r>   -24.0997     0.0000    80.0000 </r>
       <r>   -23.8565     0.0000    80.0000 </r>
       <r>   -23.6132     0.0000    80.0000 </r>
       <r>   -23.3700     0.0000    80.0000 </r>
       <r>   -23.1267     0.0000    80.0000 </r>
       <r>   -22.8835     0.0000    80.0000 </r>
       <r>   -22.6402     0.0000    80.0000 </r>
       <r>   -22.3970     0.0000    80.0000 </r>
       <r>   -22.1537     0.0000    80.0000 </r>
       <r>   -21.9105     0.0000    80.0000 </r>
       <r>   -21.6672     0.0000    80.0000 </r>
       <r>   -21.4240     0.0000    80.0000 </r>
       <r>   -21.1807     0.0000    80.0000 </r>
       <r>   -20.9375     0.0000    80.0000 </r>
       <r>   -20.6942     0.0000    80.0000 </r>
       <r>   -20.4510     0.0000    80.0000 </r>
       <r>   -20.2077     0.0000    80.0000 </r>
       <r>   -19.9645     0.0000    80.0000 </r>
       <r>   -19.7212     0.0000    80.0000 </r>
       <r>   -19.4780     0.0000    80.0000 </r>
       <r>   -19.2347     0.0000    80.0000 </r>
       <r>   -18.9915     0.0000    80.0000 </r>
       <r>   -18.7482     0.0000    80.0000 </r>
       <r>   -18.5050     0.0000    80.0000 </r>
       <r>   -18.2617     0.0000    80.0000 </r>
       <r>   -18.0185     0.0000    80.0000 </r>
       <r>   -17.7752     0.0000    80.0000 </r>
       <r>   -17.5320     0.0000    80.0000 </r>
       <r>   -17.2887     0.0000    80.0000 </r>
       <r>   -17.0455     0.0000    80.0000 </r>
       <r>   -16.8022     0.0000    80.0000 </r>
       <r>   -16.5590     0.0000    80.0000 </r>
       <r>   -16.3157     0.0000    80.0000 </r>
       <r>   -16.0725     0.0000    80.0000 </r>
       <r>   -15.8292     0.0000    80.0000 </r>
       <r>   -15.5860     0.0000    80.0000 </r>
       <r>   -15.3427     0.0000    80.0000 </r>
       <r>   -15.0995     0.0000    80.0000 </r>
       <r>   -14.8562     0.0000    80.0000 </r>
       <r>   -14.6130     0.0000    80.0000 </r>
       <r>   -14.3697     0.0000    80.0000 </r>
       <r>   -14.1265     0.0000    80.0000 </r>
       <r>   -13.8832     0.0000    80.0000 </r>
       <r>   -13.6400     0.0000    80.0000 </r>
       <r>   -13.3967     0.0000    80.0000 </r>
       <r>   -13.1535     0.0000    80.0000 </r>
       <r>   -12.9102     0.0000    80.0000 </r>
       <r>   -12.6670     0.0000    80.0000 </r>
       <r>   -12.4237     0.0000    80.0000 </r>
       <r>   -12.1805     0.0000    80.0000 </r>
       <r>   -11.9372     0.0000    80.0000 </r>
       <r>   -11.6940     0.0000    80.0000 </r>
       <r>   -11.4507     0.0000    80.0000 </r>
       <r>   -11.2075     0.0000    80.0000 </r>
       <r>   -10.9642     0.0000    80.0000 </r>
       <r>   -10.7210     0.0000    80.0000 </r>
       <r>   -10.4777     0.0000    80.0000 </r>
       <r>   -10.2345     0.0000    80.0000 </r>
       <r>    -9.9912     0.0000    80.0000 </r>
       <r>    -9.7480     0.0000    80.0000 </r>
       <r>    -9.5047     0.0000    80.0000 </r>
       <r>    -9.2615     0.0000    80.0000 </r>
       <r>    -9.0182     0.0000    80.0000 </r>
       <r>    -8.7750     0.0000    80.0000 </r>
       <r>    -8.5317     0.0000    80.0000 </r>
       <r>    -8.2885     0.0000    80.0000 </r>
       <r>    -8.0452     0.0000    80.0000 </r>
       <r>    -7.8020     0.0000    80.0000 </r>
       <r>    -7.5587     0.0000    80.0000 </r>
       <r>    -7.3155     0.0000    80.0000 </r>
       <r>    -7.0722     0.0000    80.0000 </r>
       <r>    -6.8290     0.0000    80.0000 </r>
       <r>    -6.5857     0.0000    80.0000 </r>
       <r>    -6.3425     0.0000    80.0000 </r>
       <r>    -6.0992     0.0000    80.0000 </r>
       <r>    -5.8560     0.0000    80.0000 </r>
       <r>    -5.6127     0.0000    80.0000 </r>
       <r>    -5.3695     0.0000    80.0000 </r>
       <r>    -5.1262     0.0000    80.0000 </r>
       <r>    -4.8830     0.0000    80.0000 </r>
       <r>    -4.6397     0.0000    80.0000 </r>
       <r>    -4.3965     0.0000    80.0000 </r>
       <r>    -4.1532     0.0000    80.0000 </r>
       <r>    -3.9100     0.0000    80.0000 </r>
       <r>    -3.6667     0.0000    80.0000 </r>
       <r>    -3.4235     0.0000    80.0000 </r>
       <r>    -3.1802     0.0000    80.0000 </r>
       <r>    -2.9370     0.0000    80.0000 </r>
       <r>    -2.6937     0.6696    80.1721 </r>
       <r>    -2.4505     2.2945    80.9933 </r>
       <r>    -2.2072     2.7215    82.1898 </r>
       <r>    -1.9640     3.7698    83.6578 </r>
       <r>    -1.7207     0.1903    84.0000 </r>
       <r>    -1.4775     0.0000    84.0000 </r>
       <r>    -1.2342     0.0000    84.0000 </r>
       <r>    -0.9910     1.9841    84.4826 </r>
       <r>    -0.7477    10.8033    87.9983 </r>
       <r>    -0.5045     0.0000    88.0000 </r>
       <r>    -0.2612     0.0000    88.0000 </r>
       <r>    -0.0180     0.0000    88.0000 </r>
       <r>     0.2253     0.0000    88.0000 </r>
       <r>     0.4685     0.0000    88.0000 </r>
       <r>     0.7118     0.0000    88.0000 </r>
       <r>     0.9550     0.0000    88.0000 </r>
       <r>     1.1983     1.0241    88.2491 </r>
       <r>     1.4415     5.9341    90.1657 </r>
       <r>     1.6848     3.2053    91.4278 </r>
       <r>     1.9280     1.2471    91.9885 </r>
       <r>     2.1713     0.4574    92.1205 </r>
       <r>     2.4145     1.3640    92.4892 </r>
       <r>     2.6578     4.1164    93.5847 </r>
       <r>     2.9010     5.8347    95.6508 </r>
       <r>     3.1443     5.3919    97.4505 </r>
       <r>     3.3875     5.1180    99.2820 </r>
       <r>     3.6308     5.0367   100.8270 </r>
       <r>     3.8740     5.0637   103.3336 </r>
       <r>     4.1173     1.8005   104.1139 </r>
       <r>     4.3605     7.2713   106.3613 </r>
       <r>     4.6038     8.8189   109.4507 </r>
       <r>     4.8470     7.1251   111.9739 </r>
       <r>     5.0903    13.1362   116.6398 </r>
       <r>     5.3335     9.4683   120.6643 </r>
       <r>     5.5768     8.4574   124.1221 </r>
       <r>     5.8200     9.6928   128.3115 </r>
       <r>     6.0633     9.1460   131.8822 </r>
       <r>     6.3065     7.7293   135.1024 </r>
       <r>     6.5498    10.8189   138.9835 </r>
       <r>     6.7930     7.0471   141.7975 </r>
       <r>     7.0363     7.5358   144.6294 </r>
       <r>     7.2795     6.3306   147.5584 </r>
       <r>     7.5228     8.0342   150.4821 </r>
       <r>     7.7660    14.3811   155.1278 </r>
       <r>     8.0093     9.7717   158.8677 </r>
       <r>     8.2525    11.0872   163.6321 </r>
       <r>     8.4958    10.8147   168.1955 </r>
       <r>     8.7390     7.5498   170.6976 </r>
       <r>     8.9823     4.1882   172.9540 </r>
       <r>     9.2255     8.7996   175.6775 </r>
       <r>     9.4688    10.0842   179.4437 </r>
       <r>     9.7120    10.5992   183.3005 </r>
       <r>     9.9553     9.8710   187.2808 </r>
       <r>    10.1985    10.4100   191.2174 </r>
       <r>    10.4418     7.4324   194.4746 </r>
       <r>    10.6850     8.6416   197.4539 </r>
       <r>    10.9283     5.1662   199.6271 </r>
       <r>    11.1715     5.9391   202.0743 </r>
       <r>    11.4148     2.2006   203.7853 </r>
       <r>    11.6580     0.0381   204.0000 </r>
       <r>    11.9013     0.0000   204.0000 </r>
       <r>    12.1445     0.0000   204.0000 </r>
       <r>    12.3878     0.0000   204.0000 </r>
       <r>    12.6310     0.0000   204.0000 </r>
       <r>    12.8743     0.0000   204.0000 </r>
       <r>    13.1175     0.0000   204.0000 </r>
       <r>    13.3608     0.0000   204.0000 </r>
       <r>    13.6040     0.0000   204.0000 </r>
       <r>    13.8473     0.0000   204.0000 </r>
       <r>    14.0905     0.0000   204.0000 </r>
       <r>    14.3338     0.0000   204.0000 </r>
       <r>    14.5770     0.0000   204.0000 </r>
       <r>    14.8203     0.0000   204.0000 </r>
      </set>
     </set>
    </array>
   </total>
  </dos>
 </calculation>
 <structure name="finalpos" >
  <crystal>
   <varray name="basis" >
    <v>       6.69699517       0.00000000      -2.72863088 </v>
    <v>      -3.02782919       5.97344078      -2.72863088 </v>
    <v>       0.00000000       0.00000000       7.23154000 </v>
   </varray>
   <i name="volume">    289.29127833 </i>
   <varray name="rec_basis" >
    <v>       0.14932070       0.07568796       0.00000000 </v>
    <v>       0.00000000       0.16740770       0.00000000 </v>
    <v>       0.05634223       0.09172574       0.13828313 </v>
   </varray>
  </crystal>
  <varray name="positions" >
   <v>       0.50000000       0.00000000       0.50000000 </v>
   <v>       0.00000000       0.50000000       0.50000000 </v>
   <v>       0.25000000       0.25000000       0.00000000 </v>
   <v>       0.71226000       0.21226000       0.24652000 </v>
   <v>       0.75000000       0.75000000       0.00000000 </v>
   <v>       0.28774000       0.78774000       0.75348000 </v>
   <v>       0.21226000       0.96574000       0.50000000 </v>
   <v>       0.78774000       0.03426000       0.50000000 </v>
   <v>       0.96574000       0.46574000       0.75348000 </v>
   <v>       0.03426000       0.53426000       0.24652000 </v>
   <v>       0.46574000       0.71226000       0.50000000 </v>
   <v>       0.53426000       0.28774000       0.50000000 </v>
   <v>       0.18930000       0.31070000       0.50000000 </v>
   <v>       0.81070000       0.68930000       0.50000000 </v>
   <v>       0.31070000       0.81070000       0.12139000 </v>
   <v>       0.68930000       0.18930000       0.87861000 </v>
  </varray>
 </structure>
</modeling>
