<?xml version="1.0" encoding="ISO-8859-1"?>
<modeling>
 <generator>
  <i name="program" type="string">vasp </i>
  <i name="version" type="string">6.2.0  </i>
  <i name="subversion" type="string">18Jan21 (build Jan 05 2022 15:41:44) complex                          parallel </i>
  <i name="platform" type="string">LinuxIFC </i>
  <i name="date" type="string">2025 05 07 </i>
  <i name="time" type="string">17:03:01 </i>
 </generator>
 <incar>
  <i type="string" name="SYSTEM">routine with relax: pwdword</i>
  <i type="string" name="PREC">Acc</i>
  <i type="int" name="IALGO">    38</i>
  <i type="string" name="ALGO">A</i>
  <i type="logical" name="ADDGRID"> T  </i>
  <i type="int" name="ICHARG">     2</i>
  <i type="int" name="NELM">   100</i>
  <i type="int" name="NELMIN">     6</i>
  <i name="EDIFF">      0.00000000</i>
  <i type="int" name="NSW">     0</i>
  <i type="int" name="ISIF">    -1</i>
  <i name="ENCUT">    600.00000000</i>
  <i type="logical" name="LREAL"> F  </i>
  <i type="int" name="ISMEAR">     0</i>
  <i name="SIGMA">      0.02000000</i>
  <i type="logical" name="LASPH"> T  </i>
  <i type="string" name="METAGGA">R2SCAN</i>
  <i type="logical" name="LMIXTAU"> F  </i>
 </incar>
 <primitive_cell>
  <structure name="primitive_cell" >
   <crystal>
    <varray name="basis" >
     <v>       5.19494076       0.00000000      -2.88873612 </v>
     <v>      -1.79693413       4.87426274      -2.88873612 </v>
     <v>       0.00000000       0.00000000       5.94409000 </v>
    </varray>
    <i name="volume">    150.51331191 </i>
    <varray name="rec_basis" >
     <v>       0.19249498       0.07096474       0.00000000 </v>
     <v>       0.00000000       0.20515923       0.00000000 </v>
     <v>       0.09354959       0.13419199       0.16823433 </v>
    </varray>
   </crystal>
   <varray name="positions" >
    <v>       0.25000000       0.75000000       0.50000000 </v>
    <v>       0.75000000       0.25000000       0.50000000 </v>
    <v>       0.74153000       0.24153000       0.98306000 </v>
    <v>       0.25000000       0.25000000       1.00000000 </v>
    <v>       0.25847000       0.75847000       0.01694000 </v>
    <v>       0.75000000       0.75000000       1.00000000 </v>
    <v>       0.24153000       0.25847000       0.50000000 </v>
    <v>       0.75847000       0.74153000       0.50000000 </v>
    <v>       0.50000000       0.00000000       1.00000000 </v>
    <v>       0.00000000       0.00000000       0.50000000 </v>
    <v>       0.00000000       0.50000000       0.00000000 </v>
    <v>       0.50000000       0.50000000       0.50000000 </v>
   </varray>
  </structure>
  <varray name="primitive_index" >
   <v type="int" >        1 </v>
   <v type="int" >        2 </v>
   <v type="int" >        3 </v>
   <v type="int" >        4 </v>
   <v type="int" >        5 </v>
   <v type="int" >        6 </v>
   <v type="int" >        7 </v>
   <v type="int" >        8 </v>
   <v type="int" >        9 </v>
   <v type="int" >       10 </v>
   <v type="int" >       11 </v>
   <v type="int" >       12 </v>
  </varray>
 </primitive_cell>
 <kpoints>
  <generation param="Gamma">
   <v type="int" name="divisions">       7        7        8 </v>
   <v name="usershift">      0.00000000       0.00000000       0.00000000 </v>
   <v name="genvec1">      0.14285714       0.00000000       0.00000000 </v>
   <v name="genvec2">      0.00000000       0.14285714       0.00000000 </v>
   <v name="genvec3">     -0.00000000       0.00000000       0.12500000 </v>
   <v name="shift">      0.00000000       0.00000000       0.00000000 </v>
  </generation>
  <varray name="kpointlist" >
   <v>       0.00000000       0.00000000       0.00000000 </v>
   <v>       0.14285714       0.00000000       0.00000000 </v>
   <v>       0.28571429       0.00000000       0.00000000 </v>
   <v>       0.42857143       0.00000000       0.00000000 </v>
   <v>       0.14285714       0.14285714       0.00000000 </v>
   <v>       0.28571429       0.14285714       0.00000000 </v>
   <v>       0.42857143       0.14285714       0.00000000 </v>
   <v>      -0.42857143       0.14285714       0.00000000 </v>
   <v>      -0.28571429       0.14285714       0.00000000 </v>
   <v>      -0.14285714       0.14285714       0.00000000 </v>
   <v>       0.28571429       0.28571429       0.00000000 </v>
   <v>       0.42857143       0.28571429       0.00000000 </v>
   <v>      -0.42857143       0.28571429       0.00000000 </v>
   <v>      -0.28571429       0.28571429       0.00000000 </v>
   <v>       0.42857143       0.42857143       0.00000000 </v>
   <v>      -0.42857143       0.42857143       0.00000000 </v>
   <v>      -0.00000000       0.00000000       0.12500000 </v>
   <v>       0.14285714       0.00000000       0.12500000 </v>
   <v>       0.28571429       0.00000000       0.12500000 </v>
   <v>       0.42857143       0.00000000       0.12500000 </v>
   <v>      -0.42857143       0.00000000       0.12500000 </v>
   <v>      -0.28571429       0.00000000       0.12500000 </v>
   <v>      -0.14285714      -0.00000000       0.12500000 </v>
   <v>       0.14285714       0.14285714       0.12500000 </v>
   <v>       0.28571429       0.14285714       0.12500000 </v>
   <v>       0.42857143       0.14285714       0.12500000 </v>
   <v>      -0.42857143       0.14285714       0.12500000 </v>
   <v>      -0.28571429       0.14285714       0.12500000 </v>
   <v>      -0.14285714       0.14285714       0.12500000 </v>
   <v>       0.28571429       0.28571429       0.12500000 </v>
   <v>       0.42857143       0.28571429       0.12500000 </v>
   <v>      -0.42857143       0.28571429       0.12500000 </v>
   <v>      -0.28571429       0.28571429       0.12500000 </v>
   <v>      -0.14285714       0.28571429       0.12500000 </v>
   <v>       0.42857143       0.42857143       0.12500000 </v>
   <v>      -0.42857143       0.42857143       0.12500000 </v>
   <v>      -0.28571429       0.42857143       0.12500000 </v>
   <v>      -0.14285714       0.42857143       0.12500000 </v>
   <v>      -0.42857143      -0.42857143       0.12500000 </v>
   <v>      -0.28571429      -0.42857143       0.12500000 </v>
   <v>      -0.14285714      -0.42857143       0.12500000 </v>
   <v>      -0.28571429      -0.28571429       0.12500000 </v>
   <v>      -0.14285714      -0.28571429       0.12500000 </v>
   <v>      -0.14285714      -0.14285714       0.12500000 </v>
   <v>      -0.00000000       0.00000000       0.25000000 </v>
   <v>       0.14285714      -0.00000000       0.25000000 </v>
   <v>       0.28571429       0.00000000       0.25000000 </v>
   <v>       0.42857143       0.00000000       0.25000000 </v>
   <v>      -0.42857143       0.00000000       0.25000000 </v>
   <v>      -0.28571429       0.00000000       0.25000000 </v>
   <v>      -0.14285714       0.00000000       0.25000000 </v>
   <v>       0.14285714       0.14285714       0.25000000 </v>
   <v>       0.28571429       0.14285714       0.25000000 </v>
   <v>       0.42857143       0.14285714       0.25000000 </v>
   <v>      -0.42857143       0.14285714       0.25000000 </v>
   <v>      -0.28571429       0.14285714       0.25000000 </v>
   <v>      -0.14285714       0.14285714       0.25000000 </v>
   <v>       0.28571429       0.28571429       0.25000000 </v>
   <v>       0.42857143       0.28571429       0.25000000 </v>
   <v>      -0.42857143       0.28571429       0.25000000 </v>
   <v>      -0.28571429       0.28571429       0.25000000 </v>
   <v>      -0.14285714       0.28571429       0.25000000 </v>
   <v>       0.42857143       0.42857143       0.25000000 </v>
   <v>      -0.42857143       0.42857143       0.25000000 </v>
   <v>      -0.28571429       0.42857143       0.25000000 </v>
   <v>      -0.14285714       0.42857143       0.25000000 </v>
   <v>      -0.42857143      -0.42857143       0.25000000 </v>
   <v>      -0.28571429      -0.42857143       0.25000000 </v>
   <v>      -0.14285714      -0.42857143       0.25000000 </v>
   <v>      -0.28571429      -0.28571429       0.25000000 </v>
   <v>      -0.14285714      -0.28571429       0.25000000 </v>
   <v>      -0.14285714      -0.14285714       0.25000000 </v>
   <v>       0.00000000       0.00000000       0.37500000 </v>
   <v>       0.14285714       0.00000000       0.37500000 </v>
   <v>       0.28571429       0.00000000       0.37500000 </v>
   <v>       0.42857143      -0.00000000       0.37500000 </v>
   <v>      -0.42857143       0.00000000       0.37500000 </v>
   <v>      -0.28571429      -0.00000000       0.37500000 </v>
   <v>      -0.14285714      -0.00000000       0.37500000 </v>
   <v>       0.14285714       0.14285714       0.37500000 </v>
   <v>       0.28571429       0.14285714       0.37500000 </v>
   <v>       0.42857143       0.14285714       0.37500000 </v>
   <v>      -0.42857143       0.14285714       0.37500000 </v>
   <v>      -0.28571429       0.14285714       0.37500000 </v>
   <v>      -0.14285714       0.14285714       0.37500000 </v>
   <v>       0.28571429       0.28571429       0.37500000 </v>
   <v>       0.42857143       0.28571429       0.37500000 </v>
   <v>      -0.42857143       0.28571429       0.37500000 </v>
   <v>      -0.28571429       0.28571429       0.37500000 </v>
   <v>      -0.14285714       0.28571429       0.37500000 </v>
   <v>       0.42857143       0.42857143       0.37500000 </v>
   <v>      -0.42857143       0.42857143       0.37500000 </v>
   <v>      -0.28571429       0.42857143       0.37500000 </v>
   <v>      -0.14285714       0.42857143       0.37500000 </v>
   <v>      -0.42857143      -0.42857143       0.37500000 </v>
   <v>      -0.28571429      -0.42857143       0.37500000 </v>
   <v>      -0.14285714      -0.42857143       0.37500000 </v>
   <v>      -0.28571429      -0.28571429       0.37500000 </v>
   <v>      -0.14285714      -0.28571429       0.37500000 </v>
   <v>      -0.14285714      -0.14285714       0.37500000 </v>
   <v>      -0.00000000       0.00000000       0.50000000 </v>
   <v>       0.14285714      -0.00000000       0.50000000 </v>
   <v>       0.28571429      -0.00000000       0.50000000 </v>
   <v>       0.42857143       0.00000000       0.50000000 </v>
   <v>       0.14285714       0.14285714       0.50000000 </v>
   <v>       0.28571429       0.14285714       0.50000000 </v>
   <v>       0.42857143       0.14285714       0.50000000 </v>
   <v>      -0.42857143       0.14285714       0.50000000 </v>
   <v>      -0.28571429       0.14285714       0.50000000 </v>
   <v>      -0.14285714       0.14285714       0.50000000 </v>
   <v>       0.28571429       0.28571429       0.50000000 </v>
   <v>       0.42857143       0.28571429       0.50000000 </v>
   <v>      -0.42857143       0.28571429       0.50000000 </v>
   <v>      -0.28571429       0.28571429       0.50000000 </v>
   <v>       0.42857143       0.42857143       0.50000000 </v>
   <v>      -0.42857143       0.42857143       0.50000000 </v>
  </varray>
  <varray name="weights" >
   <v>       0.00255102 </v>
   <v>       0.01020408 </v>
   <v>       0.01020408 </v>
   <v>       0.01020408 </v>
   <v>       0.00510204 </v>
   <v>       0.01020408 </v>
   <v>       0.01020408 </v>
   <v>       0.01020408 </v>
   <v>       0.01020408 </v>
   <v>       0.00510204 </v>
   <v>       0.00510204 </v>
   <v>       0.01020408 </v>
   <v>       0.01020408 </v>
   <v>       0.00510204 </v>
   <v>       0.00510204 </v>
   <v>       0.00510204 </v>
   <v>       0.00510204 </v>
   <v>       0.01020408 </v>
   <v>       0.01020408 </v>
   <v>       0.01020408 </v>
   <v>       0.01020408 </v>
   <v>       0.01020408 </v>
   <v>       0.01020408 </v>
   <v>       0.00510204 </v>
   <v>       0.01020408 </v>
   <v>       0.01020408 </v>
   <v>       0.01020408 </v>
   <v>       0.01020408 </v>
   <v>       0.01020408 </v>
   <v>       0.00510204 </v>
   <v>       0.01020408 </v>
   <v>       0.01020408 </v>
   <v>       0.01020408 </v>
   <v>       0.01020408 </v>
   <v>       0.00510204 </v>
   <v>       0.01020408 </v>
   <v>       0.01020408 </v>
   <v>       0.01020408 </v>
   <v>       0.00510204 </v>
   <v>       0.01020408 </v>
   <v>       0.01020408 </v>
   <v>       0.00510204 </v>
   <v>       0.01020408 </v>
   <v>       0.00510204 </v>
   <v>       0.00510204 </v>
   <v>       0.01020408 </v>
   <v>       0.01020408 </v>
   <v>       0.01020408 </v>
   <v>       0.01020408 </v>
   <v>       0.01020408 </v>
   <v>       0.01020408 </v>
   <v>       0.00510204 </v>
   <v>       0.01020408 </v>
   <v>       0.01020408 </v>
   <v>       0.01020408 </v>
   <v>       0.01020408 </v>
   <v>       0.01020408 </v>
   <v>       0.00510204 </v>
   <v>       0.01020408 </v>
   <v>       0.01020408 </v>
   <v>       0.01020408 </v>
   <v>       0.01020408 </v>
   <v>       0.00510204 </v>
   <v>       0.01020408 </v>
   <v>       0.01020408 </v>
   <v>       0.01020408 </v>
   <v>       0.00510204 </v>
   <v>       0.01020408 </v>
   <v>       0.01020408 </v>
   <v>       0.00510204 </v>
   <v>       0.01020408 </v>
   <v>       0.00510204 </v>
   <v>       0.00510204 </v>
   <v>       0.01020408 </v>
   <v>       0.01020408 </v>
   <v>       0.01020408 </v>
   <v>       0.01020408 </v>
   <v>       0.01020408 </v>
   <v>       0.01020408 </v>
   <v>       0.00510204 </v>
   <v>       0.01020408 </v>
   <v>       0.01020408 </v>
   <v>       0.01020408 </v>
   <v>       0.01020408 </v>
   <v>       0.01020408 </v>
   <v>       0.00510204 </v>
   <v>       0.01020408 </v>
   <v>       0.01020408 </v>
   <v>       0.01020408 </v>
   <v>       0.01020408 </v>
   <v>       0.00510204 </v>
   <v>       0.01020408 </v>
   <v>       0.01020408 </v>
   <v>       0.01020408 </v>
   <v>       0.00510204 </v>
   <v>       0.01020408 </v>
   <v>       0.01020408 </v>
   <v>       0.00510204 </v>
   <v>       0.01020408 </v>
   <v>       0.00510204 </v>
   <v>       0.00255102 </v>
   <v>       0.01020408 </v>
   <v>       0.01020408 </v>
   <v>       0.01020408 </v>
   <v>       0.00510204 </v>
   <v>       0.01020408 </v>
   <v>       0.01020408 </v>
   <v>       0.01020408 </v>
   <v>       0.01020408 </v>
   <v>       0.00510204 </v>
   <v>       0.00510204 </v>
   <v>       0.01020408 </v>
   <v>       0.01020408 </v>
   <v>       0.00510204 </v>
   <v>       0.00510204 </v>
   <v>       0.00510204 </v>
  </varray>
 </kpoints>
 <parameters>
  <separator name="general" >
   <i type="string" name="SYSTEM">routine with relax: pwdword</i>
   <i type="logical" name="LCOMPAT"> F  </i>
  </separator>
  <separator name="electronic" >
   <i type="string" name="PREC">acc</i>
   <i name="ENMAX">    600.00000000</i>
   <i name="ENAUG">    535.51400000</i>
   <i name="EDIFF">      0.00000000</i>
   <i type="int" name="IALGO">    58</i>
   <i type="int" name="IWAVPR">    10</i>
   <i type="int" name="NBANDS">    66</i>
   <i type="int" name="NBANDSLOW">    -1</i>
   <i type="int" name="NBANDSHIGH">    -1</i>
   <i name="NELECT">    106.00000000</i>
   <i type="int" name="TURBO">     0</i>
   <i type="int" name="IRESTART">     0</i>
   <i type="int" name="NREBOOT">     0</i>
   <i type="int" name="NMIN">     0</i>
   <i name="EREF">      0.00000000</i>
   <separator name="electronic smearing" >
    <i type="int" name="ISMEAR">     0</i>
    <i name="SIGMA">      0.02000000</i>
    <i name="KSPACING">      0.50000000</i>
    <i type="logical" name="KGAMMA"> T  </i>
    <i type="logical" name="KBLOWUP"> F  </i>
   </separator>
   <separator name="electronic projectors" >
    <i type="logical" name="LREAL"> F  </i>
    <v name="ROPT">      0.00000000      0.00000000      0.00000000</v>
    <i type="int" name="LMAXPAW">  -100</i>
    <i type="int" name="LMAXMIX">     2</i>
    <i type="logical" name="NLSPLINE"> F  </i>
   </separator>
   <separator name="electronic startup" >
    <i type="int" name="ISTART">     0</i>
    <i type="int" name="ICHARG">     2</i>
    <i type="int" name="INIWAV">     1</i>
   </separator>
   <separator name="electronic spin" >
    <i type="int" name="ISPIN">     1</i>
    <i type="logical" name="LNONCOLLINEAR"> F  </i>
    <v name="MAGMOM">      1.00000000      1.00000000      1.00000000      1.00000000      1.00000000      1.00000000      1.00000000      1.00000000      1.00000000      1.00000000      1.00000000      1.00000000</v>
    <i name="NUPDOWN">     -1.00000000</i>
    <i type="logical" name="LSORBIT"> F  </i>
    <v name="SAXIS">      0.00000000      0.00000000      1.00000000</v>
    <i type="logical" name="LSPIRAL"> F  </i>
    <v name="QSPIRAL">      0.00000000      0.00000000      0.00000000</v>
    <i type="logical" name="LZEROZ"> F  </i>
   </separator>
   <separator name="electronic exchange-correlation" >
    <i type="logical" name="LASPH"> T  </i>
    <i type="logical" name="LMETAGGA"> F  </i>
   </separator>
   <separator name="electronic convergence" >
    <i type="int" name="NELM">   100</i>
    <i type="int" name="NELMDL">    -5</i>
    <i type="int" name="NELMIN">     6</i>
    <i name="ENINI">    600.00000000</i>
    <separator name="electronic convergence detail" >
     <i type="logical" name="LDIAG"> T  </i>
     <i type="logical" name="LSUBROT"> F  </i>
     <i name="WEIMIN">      0.00000000</i>
     <i name="EBREAK">      0.00000000</i>
     <i name="DEPER">      0.30000000</i>
     <i type="int" name="NRMM">     4</i>
     <i name="TIME">      0.40000000</i>
    </separator>
   </separator>
   <separator name="electronic mixer" >
    <i name="AMIX">      0.40000000</i>
    <i name="BMIX">      1.00000000</i>
    <i name="AMIN">      0.10000000</i>
    <i name="AMIX_MAG">      1.60000000</i>
    <i name="BMIX_MAG">      1.00000000</i>
    <separator name="electronic mixer details" >
     <i type="int" name="IMIX">     4</i>
     <i type="logical" name="MIXFIRST"> F  </i>
     <i type="int" name="MAXMIX">   -45</i>
     <i name="WC">    100.00000000</i>
     <i type="int" name="INIMIX">     1</i>
     <i type="int" name="MIXPRE">     1</i>
     <i type="int" name="MREMOVE">     5</i>
    </separator>
   </separator>
   <separator name="electronic dipolcorrection" >
    <i type="logical" name="LDIPOL"> F  </i>
    <i type="logical" name="LMONO"> F  </i>
    <i type="int" name="IDIPOL">     0</i>
    <i name="EPSILON">      1.00000000</i>
    <v name="DIPOL">   -100.00000000   -100.00000000   -100.00000000</v>
    <i name="EFIELD">      0.00000000</i>
   </separator>
  </separator>
  <separator name="grids" >
   <i type="int" name="NGX">    48</i>
   <i type="int" name="NGY">    48</i>
   <i type="int" name="NGZ">    48</i>
   <i type="int" name="NGXF">    96</i>
   <i type="int" name="NGYF">    96</i>
   <i type="int" name="NGZF">    96</i>
   <i type="logical" name="ADDGRID"> T  </i>
  </separator>
  <separator name="ionic" >
   <i type="int" name="NSW">     0</i>
   <i type="int" name="IBRION">    -1</i>
   <i type="int" name="MDALGO">     0</i>
   <i type="int" name="ISIF">    -1</i>
   <i name="PSTRESS">      0.00000000</i>
   <i name="EDIFFG">      0.00000001</i>
   <i type="int" name="NFREE">     0</i>
   <i name="POTIM">      0.50000000</i>
   <i name="SMASS">     -3.00000000</i>
   <i name="SCALEE">      1.00000000</i>
  </separator>
  <separator name="ionic md" >
   <i name="TEBEG">      0.00010000</i>
   <i name="TEEND">      0.00010000</i>
   <i type="int" name="NBLOCK">     1</i>
   <i type="int" name="KBLOCK">     1</i>
   <i type="int" name="NPACO">   256</i>
   <i name="APACO">     16.00000000</i>
  </separator>
  <separator name="symmetry" >
   <i type="int" name="ISYM">     2</i>
   <i name="SYMPREC">      0.00001000</i>
  </separator>
  <separator name="dos" >
   <i type="int" name="LORBIT">     0</i>
   <v name="RWIGS">     -1.00000000     -1.00000000     -1.00000000</v>
   <i type="int" name="NEDOS">   301</i>
   <i name="EMIN">     10.00000000</i>
   <i name="EMAX">    -10.00000000</i>
   <i name="EFERMI">      0.00000000</i>
  </separator>
  <separator name="writing" >
   <i type="int" name="NWRITE">     2</i>
   <i type="logical" name="LWAVE"> T  </i>
   <i type="logical" name="LDOWNSAMPLE"> F  </i>
   <i type="logical" name="LCHARG"> T  </i>
   <i type="logical" name="LPARD"> F  </i>
   <i type="logical" name="LVTOT"> F  </i>
   <i type="logical" name="LVHAR"> F  </i>
   <i type="logical" name="LELF"> F  </i>
   <i type="logical" name="LOPTICS"> F  </i>
   <v name="STM">      0.00000000      0.00000000      0.00000000      0.00000000      0.00000000      0.00000000      0.00000000</v>
  </separator>
  <separator name="performance" >
   <i type="int" name="NPAR">     6</i>
   <i type="int" name="NSIM">     4</i>
   <i type="int" name="NBLK">    -1</i>
   <i type="logical" name="LPLANE"> T  </i>
   <i type="logical" name="LSCALAPACK"> T  </i>
   <i type="logical" name="LSCAAWARE"> F  </i>
   <i type="logical" name="LSCALU"> F  </i>
   <i type="logical" name="LASYNC"> F  </i>
   <i type="logical" name="LORBITALREAL"> F  </i>
  </separator>
  <separator name="miscellaneous" >
   <i type="int" name="IDIOT">     3</i>
   <i type="int" name="PHON_NSTRUCT">    -1</i>
   <i type="logical" name="LMUSIC"> F  </i>
   <v name="POMASS">     10.81100000     95.94000000     28.08500000</v>
   <v name="DARWINR">      0.00000000      0.00000000      0.00000000</v>
   <v name="DARWINV">      1.00000000      1.00000000      1.00000000</v>
   <i type="logical" name="LCORR"> T  </i>
  </separator>
  <i type="logical" name="GGA_COMPAT"> T  </i>
  <i type="logical" name="LBERRY"> F  </i>
  <i type="int" name="ICORELEVEL">     0</i>
  <i type="logical" name="LDAU"> F  </i>
  <i type="int" name="I_CONSTRAINED_M">     0</i>
  <separator name="electronic exchange-correlation" >
   <i type="string" name="GGA">--</i>
   <i type="int" name="VOSKOWN">     0</i>
   <i type="logical" name="LHFCALC"> F  </i>
   <i type="string" name="PRECFOCK"></i>
   <i type="logical" name="LSYMGRAD"> F  </i>
   <i type="logical" name="LHFONE"> F  </i>
   <i type="logical" name="LRHFCALC"> F  </i>
   <i type="logical" name="LTHOMAS"> F  </i>
   <i type="logical" name="LMODELHF"> F  </i>
   <i type="logical" name="LFOCKACE"> F  </i>
   <i name="ENCUT4O">     -1.00000000</i>
   <i type="int" name="EXXOEP">     0</i>
   <i type="int" name="FOURORBIT">     0</i>
   <i name="AEXX">      0.00000000</i>
   <i name="HFALPHA">      0.00000000</i>
   <i name="MCALPHA">      0.00000000</i>
   <i name="ALDAX">      1.00000000</i>
   <i name="AGGAX">      1.00000000</i>
   <i name="ALDAC">      1.00000000</i>
   <i name="AGGAC">      1.00000000</i>
   <i type="int" name="NKREDX">     1</i>
   <i type="int" name="NKREDY">     1</i>
   <i type="int" name="NKREDZ">     1</i>
   <i type="logical" name="SHIFTRED"> F  </i>
   <i type="logical" name="ODDONLY"> F  </i>
   <i type="logical" name="EVENONLY"> F  </i>
   <i type="int" name="LMAXFOCK">     0</i>
   <i type="int" name="NMAXFOCKAE">     0</i>
   <i type="logical" name="LFOCKAEDFT"> F  </i>
   <i name="HFSCREEN">      0.00000000</i>
   <i name="HFSCREENC">      0.00000000</i>
   <i type="int" name="NBANDSGWLOW">     0</i>
  </separator>
  <separator name="vdW DFT" >
   <i type="logical" name="LUSE_VDW"> F  </i>
   <i name="Zab_VDW">     -0.84910000</i>
   <i name="PARAM1">      0.12340000</i>
   <i name="PARAM2">      1.00000000</i>
   <i name="PARAM3">      0.00000000</i>
  </separator>
  <separator name="model GW" >
   <i type="int" name="MODEL_GW">     0</i>
   <i name="MODEL_EPS0">      7.52566560</i>
   <i name="MODEL_ALPHA">      1.00000000</i>
  </separator>
  <separator name="linear response parameters" >
   <i type="logical" name="LEPSILON"> F  </i>
   <i type="logical" name="LRPA"> F  </i>
   <i type="logical" name="LNABLA"> F  </i>
   <i type="logical" name="LVEL"> F  </i>
   <i type="int" name="KINTER">     0</i>
   <i name="CSHIFT">      0.10000000</i>
   <i name="OMEGAMAX">     -1.00000000</i>
   <i name="DEG_THRESHOLD">      0.00200000</i>
   <i name="RTIME">     -0.10000000</i>
   <i name="WPLASMAI">      0.00000000</i>
   <v name="DFIELD">      0.00000000      0.00000000      0.00000000</v>
   <v name="WPLASMA">      0.00000000      0.00000000      0.00000000      0.00000000      0.00000000      0.00000000      0.00000000      0.00000000      0.00000000</v>
  </separator>
  <separator name="orbital magnetization" >
   <i type="logical" name="NUCIND"> F  </i>
   <v name="MAGPOS">      0.00000000      0.00000000      0.00000000</v>
   <i type="logical" name="LNICSALL"> T  </i>
   <i type="logical" name="ORBITALMAG"> F  </i>
   <i type="logical" name="LMAGBLOCH"> F  </i>
   <i type="logical" name="LCHIMAG"> F  </i>
   <i type="logical" name="LGAUGE"> T  </i>
   <i type="int" name="MAGATOM">     0</i>
   <v name="MAGDIPOL">      0.00000000      0.00000000      0.00000000</v>
   <v name="AVECCONST">      0.00000000      0.00000000      0.00000000</v>
  </separator>
  <separator name="response functions" >
   <i type="logical" name="LFINITE_TEMPERATURE"> F  </i>
   <i type="logical" name="LADDER"> F  </i>
   <i type="logical" name="LRPAFORCE"> F  </i>
   <i type="logical" name="LFXC"> F  </i>
   <i type="logical" name="LHARTREE"> T  </i>
   <i type="int" name="IBSE">     0</i>
   <v type="int" name="KPOINT">    -1     0     0     0</v>
   <i type="logical" name="LTCTC"> F  </i>
   <i type="logical" name="LTCTE"> F  </i>
   <i type="logical" name="LTETE"> F  </i>
   <i type="logical" name="LTRIPLET"> F  </i>
   <i type="logical" name="LFXCEPS"> F  </i>
   <i type="logical" name="LFXHEG"> F  </i>
   <i type="int" name="NATURALO">     2</i>
   <i type="logical" name="LHOLEGF"> F  </i>
   <i type="logical" name="L2ORDER"> F  </i>
   <i type="logical" name="LDMP1"> F  </i>
   <i type="logical" name="LMP2LT"> F  </i>
   <i type="logical" name="LSMP2LT"> F  </i>
   <i type="logical" name="LGWLF"> F  </i>
   <i name="ENCUTGW">     -2.00000000</i>
   <i name="ENCUTGWSOFT">     -2.00000000</i>
   <i name="ENCUTLF">     -1.00000000</i>
   <i type="logical" name="LESF_SPLINES"> F  </i>
   <i type="int" name="LMAXMP2">    -1</i>
   <i name="SCISSOR">      0.00000000</i>
   <i type="int" name="NOMEGA">     0</i>
   <i type="int" name="NOMEGAR">     0</i>
   <i type="int" name="NBANDSGW">    -1</i>
   <i type="int" name="NBANDSO">    -1</i>
   <i type="int" name="NBANDSV">    -1</i>
   <i type="int" name="NELM">   100</i>
   <i type="int" name="NELMHF">     1</i>
   <i type="int" name="DIM">     3</i>
   <i type="int" name="IESPILON">     4</i>
   <i type="int" name="ANTIRES">     0</i>
   <i name="OMEGAMAX">    -30.00000000</i>
   <i name="OMEGAMIN">    -30.00000000</i>
   <i name="OMEGATL">   -200.00000000</i>
   <i type="int" name="OMEGAGRID">     0</i>
   <i name="CSHIFT">     -0.10000000</i>
   <i type="logical" name="LSELFENERGY"> F  </i>
   <i type="logical" name="LSPECTRAL"> F  </i>
   <i type="logical" name="LSPECTRALGW"> F  </i>
   <i type="logical" name="LSINGLES"> F  </i>
   <i type="logical" name="LFERMIGW"> F  </i>
   <i type="logical" name="ODDONLYGW"> F  </i>
   <i type="logical" name="EVENONLYGW"> F  </i>
   <i type="int" name="NKREDLFX">     1</i>
   <i type="int" name="NKREDLFY">     1</i>
   <i type="int" name="NKREDLFZ">     1</i>
   <i type="int" name="MAXMEM">  2800</i>
   <i type="int" name="TELESCOPE">     0</i>
   <i type="int" name="NTAUPAR">    -1</i>
   <i type="int" name="NOMEGAPAR">    -1</i>
   <i name="DAMP_NEWTON">      0.80000001</i>
   <i name="LAMBDA">      1.00000000</i>
  </separator>
  <separator name="External order field" >
   <i name="OFIELD_KAPPA">      0.00000000</i>
   <v name="OFIELD_K">      0.00000000      0.00000000      0.00000000</v>
   <i name="OFIELD_Q6_NEAR">      0.00000000</i>
   <i name="OFIELD_Q6_FAR">      0.00000000</i>
   <i name="OFIELD_A">      0.00000000</i>
  </separator>
 </parameters>
 <atominfo>
  <atoms>      12 </atoms>
  <types>       3 </types>
  <array name="atoms" >
   <dimension dim="1">ion</dimension>
   <field type="string">element</field>
   <field type="int">atomtype</field>
   <set>
    <rc><c>B </c><c>   1</c></rc>
    <rc><c>B </c><c>   1</c></rc>
    <rc><c>Mo</c><c>   2</c></rc>
    <rc><c>Mo</c><c>   2</c></rc>
    <rc><c>Mo</c><c>   2</c></rc>
    <rc><c>Mo</c><c>   2</c></rc>
    <rc><c>Mo</c><c>   2</c></rc>
    <rc><c>Mo</c><c>   2</c></rc>
    <rc><c>Si</c><c>   3</c></rc>
    <rc><c>Si</c><c>   3</c></rc>
    <rc><c>Si</c><c>   3</c></rc>
    <rc><c>Si</c><c>   3</c></rc>
   </set>
  </array>
  <array name="atomtypes" >
   <dimension dim="1">type</dimension>
   <field type="int">atomspertype</field>
   <field type="string">element</field>
   <field>mass</field>
   <field>valence</field>
   <field type="string">pseudopotential</field>
   <set>
    <rc><c>   2</c><c>B </c><c>     10.81100000</c><c>      3.00000000</c><c>  PAW_PBE B 06Sep2000                   </c></rc>
    <rc><c>   6</c><c>Mo</c><c>     95.94000000</c><c>     14.00000000</c><c>  PAW_PBE Mo_sv 02Feb2006               </c></rc>
    <rc><c>   4</c><c>Si</c><c>     28.08500000</c><c>      4.00000000</c><c>  PAW_PBE Si 05Jan2001                  </c></rc>
   </set>
  </array>
 </atominfo>
 <structure name="initialpos" >
  <crystal>
   <varray name="basis" >
    <v>       5.19494076       0.00000000      -2.88873612 </v>
    <v>      -1.79693413       4.87426274      -2.88873612 </v>
    <v>       0.00000000       0.00000000       5.94409000 </v>
   </varray>
   <i name="volume">    150.51331191 </i>
   <varray name="rec_basis" >
    <v>       0.19249498       0.07096474       0.00000000 </v>
    <v>       0.00000000       0.20515923       0.00000000 </v>
    <v>       0.09354959       0.13419199       0.16823433 </v>
   </varray>
  </crystal>
  <varray name="positions" >
   <v>       0.25000000       0.75000000       0.50000000 </v>
   <v>       0.75000000       0.25000000       0.50000000 </v>
   <v>       0.74153000       0.24153000       0.98306000 </v>
   <v>       0.25000000       0.25000000       0.00000000 </v>
   <v>       0.25847000       0.75847000       0.01694000 </v>
   <v>       0.75000000       0.75000000       0.00000000 </v>
   <v>       0.24153000       0.25847000       0.50000000 </v>
   <v>       0.75847000       0.74153000       0.50000000 </v>
   <v>       0.50000000       0.00000000       0.00000000 </v>
   <v>       0.00000000       0.00000000       0.50000000 </v>
   <v>       0.00000000       0.50000000       0.00000000 </v>
   <v>       0.50000000       0.50000000       0.50000000 </v>
  </varray>
 </structure>
 <calculation>
  <scstep>
   <time name="total">   18.64   18.81</time>
   <energy>
    <i name="alphaZ">    612.22854751 </i>
    <i name="ewald">  -9749.58301674 </i>
    <i name="hartreedc">  -2379.14072269 </i>
    <i name="XCdc">    466.21204455 </i>
    <i name="pawpsdc">   9333.50011946 </i>
    <i name="pawaedc">  -9270.82734050 </i>
    <i name="eentropy">     -0.00035759 </i>
    <i name="bandstr">    396.28408551 </i>
    <i name="atom">  11728.30056431 </i>
    <i name="e_fr_energy">   1136.97392381 </i>
    <i name="e_wo_entrp">   1136.97428140 </i>
    <i name="e_0_energy">   1136.97410261 </i>
   </energy>
  </scstep>
  <scstep>
   <time name="total">   18.90   19.07</time>
   <energy>
    <i name="e_fr_energy">   -170.05338794 </i>
    <i name="e_wo_entrp">   -170.05188137 </i>
    <i name="e_0_energy">   -170.05263465 </i>
   </energy>
  </scstep>
  <scstep>
   <time name="total">   20.88   21.07</time>
   <energy>
    <i name="e_fr_energy">   -221.81518720 </i>
    <i name="e_wo_entrp">   -221.81320645 </i>
    <i name="e_0_energy">   -221.81419682 </i>
   </energy>
  </scstep>
  <scstep>
   <time name="total">   19.60   19.78</time>
   <energy>
    <i name="e_fr_energy">   -222.96597372 </i>
    <i name="e_wo_entrp">   -222.96387515 </i>
    <i name="e_0_energy">   -222.96492443 </i>
   </energy>
  </scstep>
  <scstep>
   <time name="total">   21.19   21.38</time>
   <energy>
    <i name="e_fr_energy">   -222.98557441 </i>
    <i name="e_wo_entrp">   -222.98346872 </i>
    <i name="e_0_energy">   -222.98452157 </i>
   </energy>
  </scstep>
  <scstep>
   <time name="total">   20.98   21.16</time>
   <energy>
    <i name="e_fr_energy">   -154.46006197 </i>
    <i name="e_wo_entrp">   -154.45792992 </i>
    <i name="e_0_energy">   -154.45899594 </i>
   </energy>
  </scstep>
  <scstep>
   <time name="total">   20.86   21.04</time>
   <energy>
    <i name="e_fr_energy">   -174.95465350 </i>
    <i name="e_wo_entrp">   -174.95224508 </i>
    <i name="e_0_energy">   -174.95344929 </i>
   </energy>
  </scstep>
  <scstep>
   <time name="total">   21.37   21.55</time>
   <energy>
    <i name="e_fr_energy">   -177.78974959 </i>
    <i name="e_wo_entrp">   -177.78749476 </i>
    <i name="e_0_energy">   -177.78862217 </i>
   </energy>
  </scstep>
  <scstep>
   <time name="total">   21.95   22.13</time>
   <energy>
    <i name="e_fr_energy">   -178.51702320 </i>
    <i name="e_wo_entrp">   -178.51437212 </i>
    <i name="e_0_energy">   -178.51569766 </i>
   </energy>
  </scstep>
  <scstep>
   <time name="total">   21.66   21.84</time>
   <energy>
    <i name="e_fr_energy">   -178.73422321 </i>
    <i name="e_wo_entrp">   -178.73158967 </i>
    <i name="e_0_energy">   -178.73290644 </i>
   </energy>
  </scstep>
  <scstep>
   <time name="total">   21.99   22.17</time>
   <energy>
    <i name="e_fr_energy">   -178.80482309 </i>
    <i name="e_wo_entrp">   -178.80206466 </i>
    <i name="e_0_energy">   -178.80344387 </i>
   </energy>
  </scstep>
  <scstep>
   <time name="total">   21.44   21.62</time>
   <energy>
    <i name="e_fr_energy">   -178.84163501 </i>
    <i name="e_wo_entrp">   -178.83877765 </i>
    <i name="e_0_energy">   -178.84020633 </i>
   </energy>
  </scstep>
  <scstep>
   <time name="total">   21.80   21.98</time>
   <energy>
    <i name="e_fr_energy">   -178.85331316 </i>
    <i name="e_wo_entrp">   -178.85033462 </i>
    <i name="e_0_energy">   -178.85182389 </i>
   </energy>
  </scstep>
  <scstep>
   <time name="total">   22.23   22.41</time>
   <energy>
    <i name="e_fr_energy">   -178.85861922 </i>
    <i name="e_wo_entrp">   -178.85556348 </i>
    <i name="e_0_energy">   -178.85709135 </i>
   </energy>
  </scstep>
  <scstep>
   <time name="total">   21.70   21.87</time>
   <energy>
    <i name="e_fr_energy">   -178.86055287 </i>
    <i name="e_wo_entrp">   -178.85745568 </i>
    <i name="e_0_energy">   -178.85900427 </i>
   </energy>
  </scstep>
  <scstep>
   <time name="total">   21.32   21.49</time>
   <energy>
    <i name="e_fr_energy">   -178.86132596 </i>
    <i name="e_wo_entrp">   -178.85821268 </i>
    <i name="e_0_energy">   -178.85976932 </i>
   </energy>
  </scstep>
  <scstep>
   <time name="total">   21.86   22.04</time>
   <energy>
    <i name="e_fr_energy">   -178.86161044 </i>
    <i name="e_wo_entrp">   -178.85849885 </i>
    <i name="e_0_energy">   -178.86005464 </i>
   </energy>
  </scstep>
  <scstep>
   <time name="total">   21.60   21.78</time>
   <energy>
    <i name="e_fr_energy">   -178.86170406 </i>
    <i name="e_wo_entrp">   -178.85859366 </i>
    <i name="e_0_energy">   -178.86014886 </i>
   </energy>
  </scstep>
  <scstep>
   <time name="total">   21.19   21.37</time>
   <energy>
    <i name="e_fr_energy">   -178.86177175 </i>
    <i name="e_wo_entrp">   -178.85866658 </i>
    <i name="e_0_energy">   -178.86021917 </i>
   </energy>
  </scstep>
  <scstep>
   <time name="total">   21.49   21.67</time>
   <energy>
    <i name="e_fr_energy">   -178.86179803 </i>
    <i name="e_wo_entrp">   -178.85869660 </i>
    <i name="e_0_energy">   -178.86024732 </i>
   </energy>
  </scstep>
  <scstep>
   <time name="total">   21.48   21.66</time>
   <energy>
    <i name="e_fr_energy">   -178.86180713 </i>
    <i name="e_wo_entrp">   -178.85870910 </i>
    <i name="e_0_energy">   -178.86025812 </i>
   </energy>
  </scstep>
  <scstep>
   <time name="total">   21.28   21.46</time>
   <energy>
    <i name="e_fr_energy">   -178.86181051 </i>
    <i name="e_wo_entrp">   -178.85871540 </i>
    <i name="e_0_energy">   -178.86026295 </i>
   </energy>
  </scstep>
  <scstep>
   <time name="total">   21.17   21.35</time>
   <energy>
    <i name="e_fr_energy">   -178.86181307 </i>
    <i name="e_wo_entrp">   -178.85871976 </i>
    <i name="e_0_energy">   -178.86026642 </i>
   </energy>
  </scstep>
  <scstep>
   <time name="total">   21.95   22.13</time>
   <energy>
    <i name="e_fr_energy">   -178.86181414 </i>
    <i name="e_wo_entrp">   -178.85872099 </i>
    <i name="e_0_energy">   -178.86026756 </i>
   </energy>
  </scstep>
  <scstep>
   <time name="total">   21.43   21.61</time>
   <energy>
    <i name="e_fr_energy">   -178.86181437 </i>
    <i name="e_wo_entrp">   -178.85872125 </i>
    <i name="e_0_energy">   -178.86026781 </i>
   </energy>
  </scstep>
  <scstep>
   <time name="total">   21.54   21.72</time>
   <energy>
    <i name="e_fr_energy">   -178.86181450 </i>
    <i name="e_wo_entrp">   -178.85872119 </i>
    <i name="e_0_energy">   -178.86026784 </i>
   </energy>
  </scstep>
  <scstep>
   <time name="total">   21.98   22.16</time>
   <energy>
    <i name="e_fr_energy">   -178.86181456 </i>
    <i name="e_wo_entrp">   -178.85872107 </i>
    <i name="e_0_energy">   -178.86026782 </i>
   </energy>
  </scstep>
  <scstep>
   <time name="total">   21.69   21.87</time>
   <energy>
    <i name="e_fr_energy">   -178.86181459 </i>
    <i name="e_wo_entrp">   -178.85872103 </i>
    <i name="e_0_energy">   -178.86026781 </i>
   </energy>
  </scstep>
  <scstep>
   <time name="total">   21.58   21.76</time>
   <energy>
    <i name="e_fr_energy">   -178.86181459 </i>
    <i name="e_wo_entrp">   -178.85872099 </i>
    <i name="e_0_energy">   -178.86026779 </i>
   </energy>
  </scstep>
  <scstep>
   <time name="total">   21.45   21.62</time>
   <energy>
    <i name="e_fr_energy">   -178.86181459 </i>
    <i name="e_wo_entrp">   -178.85872097 </i>
    <i name="e_0_energy">   -178.86026778 </i>
   </energy>
  </scstep>
  <scstep>
   <time name="total">   21.36   21.53</time>
   <energy>
    <i name="e_fr_energy">   -178.86181459 </i>
    <i name="e_wo_entrp">   -178.85872095 </i>
    <i name="e_0_energy">   -178.86026777 </i>
   </energy>
  </scstep>
  <scstep>
   <time name="total">   21.31   21.49</time>
   <energy>
    <i name="e_fr_energy">   -178.86181459 </i>
    <i name="e_wo_entrp">   -178.85872092 </i>
    <i name="e_0_energy">   -178.86026776 </i>
   </energy>
  </scstep>
  <scstep>
   <time name="total">   24.31   24.52</time>
   <energy>
    <i name="alphaZ">    612.22854751 </i>
    <i name="ewald">  -9749.58301674 </i>
    <i name="hartreedc">  -2282.14971313 </i>
    <i name="XCdc">    478.97804751 </i>
    <i name="pawpsdc">  18240.15275625 </i>
    <i name="pawaedc"> -18193.48274857 </i>
    <i name="eentropy">     -0.00309369 </i>
    <i name="bandstr">  -1013.30315807 </i>
    <i name="atom">  11728.30056431 </i>
    <i name="e_fr_energy">   -178.86181459 </i>
    <i name="e_wo_entrp">   -178.85872091 </i>
    <i name="e_0_energy">   -178.86026775 </i>
   </energy>
  </scstep>
  <structure>
   <crystal>
    <varray name="basis" >
     <v>       5.19494076       0.00000000      -2.88873612 </v>
     <v>      -1.79693413       4.87426274      -2.88873612 </v>
     <v>       0.00000000       0.00000000       5.94409000 </v>
    </varray>
    <i name="volume">    150.51331191 </i>
    <varray name="rec_basis" >
     <v>       0.19249498       0.07096474       0.00000000 </v>
     <v>       0.00000000       0.20515923       0.00000000 </v>
     <v>       0.09354959       0.13419199       0.16823433 </v>
    </varray>
   </crystal>
   <varray name="positions" >
    <v>       0.25000000       0.75000000       0.50000000 </v>
    <v>       0.75000000       0.25000000       0.50000000 </v>
    <v>       0.74153000       0.24153000       0.98306000 </v>
    <v>       0.25000000       0.25000000       0.00000000 </v>
    <v>       0.25847000       0.75847000       0.01694000 </v>
    <v>       0.75000000       0.75000000       0.00000000 </v>
    <v>       0.24153000       0.25847000       0.50000000 </v>
    <v>       0.75847000       0.74153000       0.50000000 </v>
    <v>       0.50000000       0.00000000       0.00000000 </v>
    <v>       0.00000000       0.00000000       0.50000000 </v>
    <v>       0.00000000       0.50000000       0.00000000 </v>
    <v>       0.50000000       0.50000000       0.50000000 </v>
   </varray>
  </structure>
  <varray name="forces" >
   <v>       0.00000000       0.00000000       0.00000000 </v>
   <v>       0.00000000       0.00000000       0.00000000 </v>
   <v>       0.00000000       0.00000000       0.00000000 </v>
   <v>       0.00000000       0.00000000       0.00000000 </v>
   <v>       0.00000000       0.00000000       0.00000000 </v>
   <v>       0.00000000       0.00000000       0.00000000 </v>
   <v>       0.00000000       0.00000000       0.00000000 </v>
   <v>       0.00000000       0.00000000       0.00000000 </v>
   <v>       0.00000000       0.00000000       0.00000000 </v>
   <v>       0.00000000       0.00000000       0.00000000 </v>
   <v>       0.00000000       0.00000000       0.00000000 </v>
   <v>       0.00000000       0.00000000       0.00000000 </v>
  </varray>
  <varray name="stress" >
   <v>       0.00000000       0.00000000       0.00000000 </v>
   <v>       0.00000000       0.00000000       0.00000000 </v>
   <v>       0.00000000       0.00000000       0.00000000 </v>
  </varray>
  <energy>
   <i name="e_fr_energy">   -178.86181459 </i>
   <i name="e_wo_entrp">   -178.85872091 </i>
   <i name="e_0_energy">   -178.86026775 </i>
  </energy>
  <time name="totalsc">  708.30  714.89</time>
  <eigenvalues>
   <array>
    <dimension dim="1">band</dimension>
    <dimension dim="2">kpoint</dimension>
    <dimension dim="3">spin</dimension>
    <field>eigene</field>
    <field>occ</field>
    <set>
     <set comment="spin 1">
      <set comment="kpoint 1">
       <r>  -50.4040    1.0000 </r>
       <r>  -50.3482    1.0000 </r>
       <r>  -50.3482    1.0000 </r>
       <r>  -50.3134    1.0000 </r>
       <r>  -49.9602    1.0000 </r>
       <r>  -49.9520    1.0000 </r>
       <r>  -24.5316    1.0000 </r>
       <r>  -24.5315    1.0000 </r>
       <r>  -24.3825    1.0000 </r>
       <r>  -24.1963    1.0000 </r>
       <r>  -24.1723    1.0000 </r>
       <r>  -24.1722    1.0000 </r>
       <r>  -24.0938    1.0000 </r>
       <r>  -24.0240    1.0000 </r>
       <r>  -23.7869    1.0000 </r>
       <r>  -23.7868    1.0000 </r>
       <r>  -23.7475    1.0000 </r>
       <r>  -23.7474    1.0000 </r>
       <r>  -23.5744    1.0000 </r>
       <r>  -23.4792    1.0000 </r>
       <r>  -23.4791    1.0000 </r>
       <r>  -23.4742    1.0000 </r>
       <r>  -23.0393    1.0000 </r>
       <r>  -22.9793    1.0000 </r>
       <r>   -1.7067    1.0000 </r>
       <r>    0.7895    1.0000 </r>
       <r>    2.4394    1.0000 </r>
       <r>    3.8925    1.0000 </r>
       <r>    3.8925    1.0000 </r>
       <r>    5.1567    1.0000 </r>
       <r>    6.0019    1.0000 </r>
       <r>    6.0020    1.0000 </r>
       <r>    6.3860    1.0000 </r>
       <r>    6.3860    1.0000 </r>
       <r>    6.7056    1.0000 </r>
       <r>    6.9433    1.0000 </r>
       <r>    7.1607    1.0000 </r>
       <r>    7.5539    1.0000 </r>
       <r>    7.5540    1.0000 </r>
       <r>    7.9343    1.0000 </r>
       <r>    8.8547    1.0000 </r>
       <r>    9.1767    1.0000 </r>
       <r>    9.4050    1.0000 </r>
       <r>    9.4050    1.0000 </r>
       <r>   10.8685    1.0000 </r>
       <r>   11.1174    1.0000 </r>
       <r>   11.2884    1.0000 </r>
       <r>   11.2884    1.0000 </r>
       <r>   11.3866    1.0000 </r>
       <r>   11.8456    1.0000 </r>
       <r>   11.9282    1.0000 </r>
       <r>   12.0651    1.0000 </r>
       <r>   12.0651    1.0000 </r>
       <r>   12.0739    1.0000 </r>
       <r>   12.2550    0.0000 </r>
       <r>   12.4036    0.0000 </r>
       <r>   12.6401    0.0000 </r>
       <r>   14.3466    0.0000 </r>
       <r>   14.4702    0.0000 </r>
       <r>   14.5922    0.0000 </r>
       <r>   14.6062    0.0000 </r>
       <r>   14.9958    0.0000 </r>
       <r>   15.1266    0.0000 </r>
       <r>   15.8483    0.0000 </r>
       <r>   15.9778    0.0000 </r>
       <r>   15.9883    0.0000 </r>
      </set>
      <set comment="kpoint 2">
       <r>  -50.4007    1.0000 </r>
       <r>  -50.3504    1.0000 </r>
       <r>  -50.3465    1.0000 </r>
       <r>  -50.3152    1.0000 </r>
       <r>  -49.9605    1.0000 </r>
       <r>  -49.9530    1.0000 </r>
       <r>  -24.5159    1.0000 </r>
       <r>  -24.5120    1.0000 </r>
       <r>  -24.3763    1.0000 </r>
       <r>  -24.2053    1.0000 </r>
       <r>  -24.1620    1.0000 </r>
       <r>  -24.1503    1.0000 </r>
       <r>  -24.0719    1.0000 </r>
       <r>  -24.0116    1.0000 </r>
       <r>  -23.7984    1.0000 </r>
       <r>  -23.7824    1.0000 </r>
       <r>  -23.7629    1.0000 </r>
       <r>  -23.7620    1.0000 </r>
       <r>  -23.5863    1.0000 </r>
       <r>  -23.5044    1.0000 </r>
       <r>  -23.4843    1.0000 </r>
       <r>  -23.4837    1.0000 </r>
       <r>  -23.0484    1.0000 </r>
       <r>  -22.9913    1.0000 </r>
       <r>   -1.5636    1.0000 </r>
       <r>    0.8049    1.0000 </r>
       <r>    2.4632    1.0000 </r>
       <r>    3.4231    1.0000 </r>
       <r>    3.6884    1.0000 </r>
       <r>    5.5821    1.0000 </r>
       <r>    5.6027    1.0000 </r>
       <r>    6.2135    1.0000 </r>
       <r>    6.3409    1.0000 </r>
       <r>    6.3899    1.0000 </r>
       <r>    6.7748    1.0000 </r>
       <r>    7.1746    1.0000 </r>
       <r>    7.4290    1.0000 </r>
       <r>    7.6388    1.0000 </r>
       <r>    7.7646    1.0000 </r>
       <r>    8.2798    1.0000 </r>
       <r>    8.7719    1.0000 </r>
       <r>    8.9045    1.0000 </r>
       <r>    9.3860    1.0000 </r>
       <r>    9.4992    1.0000 </r>
       <r>   10.8759    1.0000 </r>
       <r>   11.0158    1.0000 </r>
       <r>   11.2636    1.0000 </r>
       <r>   11.2743    1.0000 </r>
       <r>   11.4282    1.0000 </r>
       <r>   11.5409    1.0000 </r>
       <r>   11.7439    1.0000 </r>
       <r>   12.0501    1.0000 </r>
       <r>   12.0503    1.0000 </r>
       <r>   12.1392    0.9999 </r>
       <r>   12.1834    0.7415 </r>
       <r>   12.5386    0.0000 </r>
       <r>   12.8038    0.0000 </r>
       <r>   13.9810    0.0000 </r>
       <r>   13.9858    0.0000 </r>
       <r>   14.2173    0.0000 </r>
       <r>   14.5269    0.0000 </r>
       <r>   14.7804    0.0000 </r>
       <r>   14.9695    0.0000 </r>
       <r>   15.3578    0.0000 </r>
       <r>   15.6829    0.0000 </r>
       <r>   16.1137    0.0000 </r>
      </set>
      <set comment="kpoint 3">
       <r>  -50.3918    1.0000 </r>
       <r>  -50.3568    1.0000 </r>
       <r>  -50.3417    1.0000 </r>
       <r>  -50.3200    1.0000 </r>
       <r>  -49.9607    1.0000 </r>
       <r>  -49.9554    1.0000 </r>
       <r>  -24.4759    1.0000 </r>
       <r>  -24.4578    1.0000 </r>
       <r>  -24.3720    1.0000 </r>
       <r>  -24.2411    1.0000 </r>
       <r>  -24.1237    1.0000 </r>
       <r>  -24.0837    1.0000 </r>
       <r>  -24.0285    1.0000 </r>
       <r>  -23.9600    1.0000 </r>
       <r>  -23.8301    1.0000 </r>
       <r>  -23.8066    1.0000 </r>
       <r>  -23.8056    1.0000 </r>
       <r>  -23.7640    1.0000 </r>
       <r>  -23.6254    1.0000 </r>
       <r>  -23.5803    1.0000 </r>
       <r>  -23.5006    1.0000 </r>
       <r>  -23.4942    1.0000 </r>
       <r>  -23.0643    1.0000 </r>
       <r>  -23.0205    1.0000 </r>
       <r>   -1.1519    1.0000 </r>
       <r>    0.6895    1.0000 </r>
       <r>    2.5379    1.0000 </r>
       <r>    2.9278    1.0000 </r>
       <r>    3.2980    1.0000 </r>
       <r>    4.6031    1.0000 </r>
       <r>    6.1560    1.0000 </r>
       <r>    6.4487    1.0000 </r>
       <r>    6.7887    1.0000 </r>
       <r>    6.8458    1.0000 </r>
       <r>    7.0504    1.0000 </r>
       <r>    7.2841    1.0000 </r>
       <r>    7.8013    1.0000 </r>
       <r>    7.8945    1.0000 </r>
       <r>    8.2202    1.0000 </r>
       <r>    8.4069    1.0000 </r>
       <r>    8.6672    1.0000 </r>
       <r>    8.9740    1.0000 </r>
       <r>    9.2529    1.0000 </r>
       <r>    9.7028    1.0000 </r>
       <r>   10.4412    1.0000 </r>
       <r>   10.8141    1.0000 </r>
       <r>   10.8971    1.0000 </r>
       <r>   10.9456    1.0000 </r>
       <r>   11.0792    1.0000 </r>
       <r>   11.4413    1.0000 </r>
       <r>   11.6239    1.0000 </r>
       <r>   11.8148    1.0000 </r>
       <r>   12.1785    0.8393 </r>
       <r>   12.2964    0.0000 </r>
       <r>   12.5074    0.0000 </r>
       <r>   13.0412    0.0000 </r>
       <r>   13.1669    0.0000 </r>
       <r>   13.2358    0.0000 </r>
       <r>   13.3103    0.0000 </r>
       <r>   13.5137    0.0000 </r>
       <r>   14.1986    0.0000 </r>
       <r>   14.3105    0.0000 </r>
       <r>   14.7678    0.0000 </r>
       <r>   14.8619    0.0000 </r>
       <r>   15.2933    0.0000 </r>
       <r>   15.7924    0.0000 </r>
      </set>
      <set comment="kpoint 4">
       <r>  -50.3796    1.0000 </r>
       <r>  -50.3671    1.0000 </r>
       <r>  -50.3348    1.0000 </r>
       <r>  -50.3270    1.0000 </r>
       <r>  -49.9601    1.0000 </r>
       <r>  -49.9582    1.0000 </r>
       <r>  -24.4282    1.0000 </r>
       <r>  -24.3895    1.0000 </r>
       <r>  -24.3821    1.0000 </r>
       <r>  -24.3036    1.0000 </r>
       <r>  -24.0595    1.0000 </r>
       <r>  -24.0170    1.0000 </r>
       <r>  -23.9846    1.0000 </r>
       <r>  -23.8892    1.0000 </r>
       <r>  -23.8841    1.0000 </r>
       <r>  -23.8618    1.0000 </r>
       <r>  -23.8167    1.0000 </r>
       <r>  -23.7296    1.0000 </r>
       <r>  -23.7014    1.0000 </r>
       <r>  -23.6775    1.0000 </r>
       <r>  -23.5072    1.0000 </r>
       <r>  -23.5039    1.0000 </r>
       <r>  -23.0675    1.0000 </r>
       <r>  -23.0508    1.0000 </r>
       <r>   -0.5292    1.0000 </r>
       <r>    0.1770    1.0000 </r>
       <r>    2.6838    1.0000 </r>
       <r>    2.9416    1.0000 </r>
       <r>    3.0655    1.0000 </r>
       <r>    3.7038    1.0000 </r>
       <r>    6.6362    1.0000 </r>
       <r>    6.6759    1.0000 </r>
       <r>    6.8284    1.0000 </r>
       <r>    7.0749    1.0000 </r>
       <r>    7.3967    1.0000 </r>
       <r>    7.8563    1.0000 </r>
       <r>    7.9402    1.0000 </r>
       <r>    8.1324    1.0000 </r>
       <r>    8.3908    1.0000 </r>
       <r>    8.5648    1.0000 </r>
       <r>    8.5912    1.0000 </r>
       <r>    9.0587    1.0000 </r>
       <r>    9.3576    1.0000 </r>
       <r>    9.7208    1.0000 </r>
       <r>    9.7711    1.0000 </r>
       <r>    9.9235    1.0000 </r>
       <r>   10.7919    1.0000 </r>
       <r>   10.8207    1.0000 </r>
       <r>   11.1837    1.0000 </r>
       <r>   11.5435    1.0000 </r>
       <r>   11.5452    1.0000 </r>
       <r>   11.6635    1.0000 </r>
       <r>   12.3554    0.0000 </r>
       <r>   12.5407    0.0000 </r>
       <r>   12.6221    0.0000 </r>
       <r>   12.7119    0.0000 </r>
       <r>   13.0092    0.0000 </r>
       <r>   13.0687    0.0000 </r>
       <r>   13.1477    0.0000 </r>
       <r>   13.5934    0.0000 </r>
       <r>   13.6559    0.0000 </r>
       <r>   14.1123    0.0000 </r>
       <r>   14.5023    0.0000 </r>
       <r>   14.8026    0.0000 </r>
       <r>   15.0466    0.0000 </r>
       <r>   15.3520    0.0000 </r>
      </set>
      <set comment="kpoint 5">
       <r>  -50.3962    1.0000 </r>
       <r>  -50.3492    1.0000 </r>
       <r>  -50.3490    1.0000 </r>
       <r>  -50.3166    1.0000 </r>
       <r>  -49.9605    1.0000 </r>
       <r>  -49.9549    1.0000 </r>
       <r>  -24.4940    1.0000 </r>
       <r>  -24.4664    1.0000 </r>
       <r>  -24.3744    1.0000 </r>
       <r>  -24.2262    1.0000 </r>
       <r>  -24.1389    1.0000 </r>
       <r>  -24.1099    1.0000 </r>
       <r>  -24.0364    1.0000 </r>
       <r>  -24.0019    1.0000 </r>
       <r>  -23.8091    1.0000 </r>
       <r>  -23.7989    1.0000 </r>
       <r>  -23.7941    1.0000 </r>
       <r>  -23.7774    1.0000 </r>
       <r>  -23.5964    1.0000 </r>
       <r>  -23.5277    1.0000 </r>
       <r>  -23.5053    1.0000 </r>
       <r>  -23.4940    1.0000 </r>
       <r>  -23.0618    1.0000 </r>
       <r>  -23.0128    1.0000 </r>
       <r>   -1.3318    1.0000 </r>
       <r>    0.8339    1.0000 </r>
       <r>    2.5712    1.0000 </r>
       <r>    2.7974    1.0000 </r>
       <r>    3.4814    1.0000 </r>
       <r>    5.5147    1.0000 </r>
       <r>    5.7485    1.0000 </r>
       <r>    5.8415    1.0000 </r>
       <r>    6.6403    1.0000 </r>
       <r>    6.9426    1.0000 </r>
       <r>    7.0085    1.0000 </r>
       <r>    7.2311    1.0000 </r>
       <r>    7.7280    1.0000 </r>
       <r>    7.9163    1.0000 </r>
       <r>    7.9821    1.0000 </r>
       <r>    8.5238    1.0000 </r>
       <r>    8.5731    1.0000 </r>
       <r>    8.6485    1.0000 </r>
       <r>    9.4068    1.0000 </r>
       <r>    9.4624    1.0000 </r>
       <r>   10.7290    1.0000 </r>
       <r>   10.7859    1.0000 </r>
       <r>   10.9987    1.0000 </r>
       <r>   11.2059    1.0000 </r>
       <r>   11.2822    1.0000 </r>
       <r>   11.5033    1.0000 </r>
       <r>   11.5812    1.0000 </r>
       <r>   11.8931    1.0000 </r>
       <r>   11.9477    1.0000 </r>
       <r>   12.2031    0.2271 </r>
       <r>   12.2815    0.0000 </r>
       <r>   12.9974    0.0000 </r>
       <r>   13.2055    0.0000 </r>
       <r>   13.3994    0.0000 </r>
       <r>   13.4729    0.0000 </r>
       <r>   13.7492    0.0000 </r>
       <r>   14.3211    0.0000 </r>
       <r>   14.4283    0.0000 </r>
       <r>   14.6259    0.0000 </r>
       <r>   15.2546    0.0000 </r>
       <r>   15.9613    0.0000 </r>
       <r>   16.2388    0.0000 </r>
      </set>
      <set comment="kpoint 6">
       <r>  -50.3868    1.0000 </r>
       <r>  -50.3562    1.0000 </r>
       <r>  -50.3446    1.0000 </r>
       <r>  -50.3213    1.0000 </r>
       <r>  -49.9602    1.0000 </r>
       <r>  -49.9576    1.0000 </r>
       <r>  -24.4464    1.0000 </r>
       <r>  -24.4031    1.0000 </r>
       <r>  -24.3841    1.0000 </r>
       <r>  -24.2677    1.0000 </r>
       <r>  -24.0922    1.0000 </r>
       <r>  -24.0301    1.0000 </r>
       <r>  -23.9995    1.0000 </r>
       <r>  -23.9508    1.0000 </r>
       <r>  -23.8623    1.0000 </r>
       <r>  -23.8284    1.0000 </r>
       <r>  -23.8195    1.0000 </r>
       <r>  -23.7801    1.0000 </r>
       <r>  -23.6318    1.0000 </r>
       <r>  -23.6056    1.0000 </r>
       <r>  -23.5244    1.0000 </r>
       <r>  -23.5092    1.0000 </r>
       <r>  -23.0709    1.0000 </r>
       <r>  -23.0427    1.0000 </r>
       <r>   -0.8576    1.0000 </r>
       <r>    0.6619    1.0000 </r>
       <r>    2.2263    1.0000 </r>
       <r>    2.6300    1.0000 </r>
       <r>    3.3746    1.0000 </r>
       <r>    4.7246    1.0000 </r>
       <r>    5.8666    1.0000 </r>
       <r>    6.3306    1.0000 </r>
       <r>    6.9204    1.0000 </r>
       <r>    7.0389    1.0000 </r>
       <r>    7.4036    1.0000 </r>
       <r>    7.6990    1.0000 </r>
       <r>    7.9159    1.0000 </r>
       <r>    8.1327    1.0000 </r>
       <r>    8.2665    1.0000 </r>
       <r>    8.4389    1.0000 </r>
       <r>    8.8286    1.0000 </r>
       <r>    9.1278    1.0000 </r>
       <r>    9.2332    1.0000 </r>
       <r>    9.6030    1.0000 </r>
       <r>    9.8955    1.0000 </r>
       <r>   10.3779    1.0000 </r>
       <r>   10.7772    1.0000 </r>
       <r>   10.9696    1.0000 </r>
       <r>   11.1245    1.0000 </r>
       <r>   11.6042    1.0000 </r>
       <r>   11.6338    1.0000 </r>
       <r>   11.8015    1.0000 </r>
       <r>   12.0946    1.0000 </r>
       <r>   12.3104    0.0000 </r>
       <r>   12.5664    0.0000 </r>
       <r>   12.6891    0.0000 </r>
       <r>   12.7809    0.0000 </r>
       <r>   13.2051    0.0000 </r>
       <r>   13.3309    0.0000 </r>
       <r>   13.4845    0.0000 </r>
       <r>   14.0686    0.0000 </r>
       <r>   14.2404    0.0000 </r>
       <r>   14.4955    0.0000 </r>
       <r>   14.6538    0.0000 </r>
       <r>   15.1930    0.0000 </r>
       <r>   15.7246    0.0000 </r>
      </set>
      <set comment="kpoint 7">
       <r>  -50.3749    1.0000 </r>
       <r>  -50.3671    1.0000 </r>
       <r>  -50.3378    1.0000 </r>
       <r>  -50.3282    1.0000 </r>
       <r>  -49.9600    1.0000 </r>
       <r>  -49.9589    1.0000 </r>
       <r>  -24.4199    1.0000 </r>
       <r>  -24.3935    1.0000 </r>
       <r>  -24.3339    1.0000 </r>
       <r>  -24.3259    1.0000 </r>
       <r>  -24.0286    1.0000 </r>
       <r>  -24.0250    1.0000 </r>
       <r>  -23.9419    1.0000 </r>
       <r>  -23.9402    1.0000 </r>
       <r>  -23.8808    1.0000 </r>
       <r>  -23.8502    1.0000 </r>
       <r>  -23.7921    1.0000 </r>
       <r>  -23.7487    1.0000 </r>
       <r>  -23.7241    1.0000 </r>
       <r>  -23.6796    1.0000 </r>
       <r>  -23.5346    1.0000 </r>
       <r>  -23.5135    1.0000 </r>
       <r>  -23.0658    1.0000 </r>
       <r>  -23.0624    1.0000 </r>
       <r>   -0.2202    1.0000 </r>
       <r>    0.0637    1.0000 </r>
       <r>    2.0913    1.0000 </r>
       <r>    2.6343    1.0000 </r>
       <r>    3.5672    1.0000 </r>
       <r>    4.0489    1.0000 </r>
       <r>    6.1827    1.0000 </r>
       <r>    6.5806    1.0000 </r>
       <r>    6.6861    1.0000 </r>
       <r>    7.0778    1.0000 </r>
       <r>    7.7546    1.0000 </r>
       <r>    7.9618    1.0000 </r>
       <r>    8.2483    1.0000 </r>
       <r>    8.2721    1.0000 </r>
       <r>    8.3977    1.0000 </r>
       <r>    8.4930    1.0000 </r>
       <r>    8.9190    1.0000 </r>
       <r>    8.9801    1.0000 </r>
       <r>    9.4841    1.0000 </r>
       <r>    9.6295    1.0000 </r>
       <r>    9.7107    1.0000 </r>
       <r>    9.8365    1.0000 </r>
       <r>   10.7267    1.0000 </r>
       <r>   10.8394    1.0000 </r>
       <r>   11.2943    1.0000 </r>
       <r>   11.4602    1.0000 </r>
       <r>   11.6285    1.0000 </r>
       <r>   11.7121    1.0000 </r>
       <r>   12.1999    0.2999 </r>
       <r>   12.2228    0.0161 </r>
       <r>   12.5012    0.0000 </r>
       <r>   12.6636    0.0000 </r>
       <r>   13.0249    0.0000 </r>
       <r>   13.1992    0.0000 </r>
       <r>   13.2808    0.0000 </r>
       <r>   13.4921    0.0000 </r>
       <r>   13.5313    0.0000 </r>
       <r>   13.9993    0.0000 </r>
       <r>   14.4585    0.0000 </r>
       <r>   14.7749    0.0000 </r>
       <r>   14.9766    0.0000 </r>
       <r>   15.1425    0.0000 </r>
      </set>
      <set comment="kpoint 8">
       <r>  -50.3798    1.0000 </r>
       <r>  -50.3633    1.0000 </r>
       <r>  -50.3360    1.0000 </r>
       <r>  -50.3299    1.0000 </r>
       <r>  -49.9612    1.0000 </r>
       <r>  -49.9566    1.0000 </r>
       <r>  -24.4713    1.0000 </r>
       <r>  -24.3913    1.0000 </r>
       <r>  -24.3607    1.0000 </r>
       <r>  -24.2684    1.0000 </r>
       <r>  -24.0957    1.0000 </r>
       <r>  -24.0217    1.0000 </r>
       <r>  -23.9907    1.0000 </r>
       <r>  -23.8909    1.0000 </r>
       <r>  -23.8605    1.0000 </r>
       <r>  -23.8495    1.0000 </r>
       <r>  -23.8052    1.0000 </r>
       <r>  -23.7334    1.0000 </r>
       <r>  -23.6943    1.0000 </r>
       <r>  -23.6668    1.0000 </r>
       <r>  -23.5349    1.0000 </r>
       <r>  -23.5080    1.0000 </r>
       <r>  -23.0717    1.0000 </r>
       <r>  -23.0377    1.0000 </r>
       <r>   -0.6392    1.0000 </r>
       <r>    0.4136    1.0000 </r>
       <r>    2.1195    1.0000 </r>
       <r>    2.5960    1.0000 </r>
       <r>    3.8001    1.0000 </r>
       <r>    4.1266    1.0000 </r>
       <r>    6.1642    1.0000 </r>
       <r>    6.3997    1.0000 </r>
       <r>    6.5229    1.0000 </r>
       <r>    7.2924    1.0000 </r>
       <r>    7.4240    1.0000 </r>
       <r>    7.7172    1.0000 </r>
       <r>    7.9520    1.0000 </r>
       <r>    8.1010    1.0000 </r>
       <r>    8.4392    1.0000 </r>
       <r>    8.5070    1.0000 </r>
       <r>    8.8243    1.0000 </r>
       <r>    9.2635    1.0000 </r>
       <r>    9.3889    1.0000 </r>
       <r>    9.8039    1.0000 </r>
       <r>   10.1166    1.0000 </r>
       <r>   10.2252    1.0000 </r>
       <r>   10.6833    1.0000 </r>
       <r>   10.9020    1.0000 </r>
       <r>   11.1395    1.0000 </r>
       <r>   11.4778    1.0000 </r>
       <r>   11.5825    1.0000 </r>
       <r>   11.6940    1.0000 </r>
       <r>   12.2501    0.0000 </r>
       <r>   12.3805    0.0000 </r>
       <r>   12.6200    0.0000 </r>
       <r>   12.7263    0.0000 </r>
       <r>   12.9913    0.0000 </r>
       <r>   13.0457    0.0000 </r>
       <r>   13.3199    0.0000 </r>
       <r>   13.5404    0.0000 </r>
       <r>   13.7884    0.0000 </r>
       <r>   14.1785    0.0000 </r>
       <r>   14.4318    0.0000 </r>
       <r>   14.6684    0.0000 </r>
       <r>   14.9844    0.0000 </r>
       <r>   15.4418    0.0000 </r>
      </set>
      <set comment="kpoint 9">
       <r>  -50.3914    1.0000 </r>
       <r>  -50.3541    1.0000 </r>
       <r>  -50.3432    1.0000 </r>
       <r>  -50.3226    1.0000 </r>
       <r>  -49.9612    1.0000 </r>
       <r>  -49.9542    1.0000 </r>
       <r>  -24.5152    1.0000 </r>
       <r>  -24.4533    1.0000 </r>
       <r>  -24.3576    1.0000 </r>
       <r>  -24.2211    1.0000 </r>
       <r>  -24.1430    1.0000 </r>
       <r>  -24.1030    1.0000 </r>
       <r>  -24.0201    1.0000 </r>
       <r>  -23.9592    1.0000 </r>
       <r>  -23.8197    1.0000 </r>
       <r>  -23.8148    1.0000 </r>
       <r>  -23.7687    1.0000 </r>
       <r>  -23.7623    1.0000 </r>
       <r>  -23.6336    1.0000 </r>
       <r>  -23.5693    1.0000 </r>
       <r>  -23.5219    1.0000 </r>
       <r>  -23.4983    1.0000 </r>
       <r>  -23.0612    1.0000 </r>
       <r>  -23.0085    1.0000 </r>
       <r>   -1.1984    1.0000 </r>
       <r>    0.7622    1.0000 </r>
       <r>    2.2011    1.0000 </r>
       <r>    2.7809    1.0000 </r>
       <r>    3.9176    1.0000 </r>
       <r>    4.9183    1.0000 </r>
       <r>    5.9304    1.0000 </r>
       <r>    6.1994    1.0000 </r>
       <r>    6.2216    1.0000 </r>
       <r>    6.6504    1.0000 </r>
       <r>    7.1964    1.0000 </r>
       <r>    7.3899    1.0000 </r>
       <r>    7.6699    1.0000 </r>
       <r>    7.8479    1.0000 </r>
       <r>    8.1773    1.0000 </r>
       <r>    8.7604    1.0000 </r>
       <r>    8.8903    1.0000 </r>
       <r>    9.0700    1.0000 </r>
       <r>    9.4082    1.0000 </r>
       <r>    9.7626    1.0000 </r>
       <r>   10.4862    1.0000 </r>
       <r>   10.7951    1.0000 </r>
       <r>   11.0067    1.0000 </r>
       <r>   11.0522    1.0000 </r>
       <r>   11.1918    1.0000 </r>
       <r>   11.5302    1.0000 </r>
       <r>   11.6118    1.0000 </r>
       <r>   11.8844    1.0000 </r>
       <r>   12.1356    1.0000 </r>
       <r>   12.2624    0.0000 </r>
       <r>   12.3746    0.0000 </r>
       <r>   12.7867    0.0000 </r>
       <r>   12.9046    0.0000 </r>
       <r>   13.3921    0.0000 </r>
       <r>   13.4971    0.0000 </r>
       <r>   13.8047    0.0000 </r>
       <r>   14.2769    0.0000 </r>
       <r>   14.4825    0.0000 </r>
       <r>   14.5611    0.0000 </r>
       <r>   14.9064    0.0000 </r>
       <r>   15.3291    0.0000 </r>
       <r>   15.7511    0.0000 </r>
      </set>
      <set comment="kpoint 10">
       <r>  -50.3990    1.0000 </r>
       <r>  -50.3483    1.0000 </r>
       <r>  -50.3482    1.0000 </r>
       <r>  -50.3173    1.0000 </r>
       <r>  -49.9607    1.0000 </r>
       <r>  -49.9527    1.0000 </r>
       <r>  -24.5320    1.0000 </r>
       <r>  -24.4985    1.0000 </r>
       <r>  -24.3702    1.0000 </r>
       <r>  -24.2014    1.0000 </r>
       <r>  -24.1618    1.0000 </r>
       <r>  -24.1506    1.0000 </r>
       <r>  -24.0614    1.0000 </r>
       <r>  -24.0012    1.0000 </r>
       <r>  -23.7899    1.0000 </r>
       <r>  -23.7878    1.0000 </r>
       <r>  -23.7764    1.0000 </r>
       <r>  -23.7475    1.0000 </r>
       <r>  -23.5965    1.0000 </r>
       <r>  -23.5114    1.0000 </r>
       <r>  -23.4976    1.0000 </r>
       <r>  -23.4894    1.0000 </r>
       <r>  -23.0481    1.0000 </r>
       <r>  -22.9896    1.0000 </r>
       <r>   -1.5189    1.0000 </r>
       <r>    0.8034    1.0000 </r>
       <r>    2.3257    1.0000 </r>
       <r>    3.2379    1.0000 </r>
       <r>    4.0024    1.0000 </r>
       <r>    5.6534    1.0000 </r>
       <r>    5.8283    1.0000 </r>
       <r>    5.9446    1.0000 </r>
       <r>    5.9581    1.0000 </r>
       <r>    6.2331    1.0000 </r>
       <r>    6.8567    1.0000 </r>
       <r>    7.2839    1.0000 </r>
       <r>    7.5367    1.0000 </r>
       <r>    7.6313    1.0000 </r>
       <r>    7.8304    1.0000 </r>
       <r>    8.4278    1.0000 </r>
       <r>    8.8565    1.0000 </r>
       <r>    9.1720    1.0000 </r>
       <r>    9.4286    1.0000 </r>
       <r>    9.5724    1.0000 </r>
       <r>   10.7733    1.0000 </r>
       <r>   11.0101    1.0000 </r>
       <r>   11.1327    1.0000 </r>
       <r>   11.3490    1.0000 </r>
       <r>   11.4854    1.0000 </r>
       <r>   11.5689    1.0000 </r>
       <r>   11.6913    1.0000 </r>
       <r>   12.0667    1.0000 </r>
       <r>   12.0735    1.0000 </r>
       <r>   12.1866    0.6634 </r>
       <r>   12.2072    0.1495 </r>
       <r>   12.3293    0.0000 </r>
       <r>   12.6745    0.0000 </r>
       <r>   13.9541    0.0000 </r>
       <r>   14.0224    0.0000 </r>
       <r>   14.2927    0.0000 </r>
       <r>   14.6734    0.0000 </r>
       <r>   14.7231    0.0000 </r>
       <r>   14.8861    0.0000 </r>
       <r>   15.4778    0.0000 </r>
       <r>   15.7393    0.0000 </r>
       <r>   15.9788    0.0000 </r>
      </set>
      <set comment="kpoint 11">
       <r>  -50.3778    1.0000 </r>
       <r>  -50.3533    1.0000 </r>
       <r>  -50.3507    1.0000 </r>
       <r>  -50.3260    1.0000 </r>
       <r>  -49.9599    1.0000 </r>
       <r>  -49.9592    1.0000 </r>
       <r>  -24.4183    1.0000 </r>
       <r>  -24.3935    1.0000 </r>
       <r>  -24.3462    1.0000 </r>
       <r>  -24.2865    1.0000 </r>
       <r>  -24.0530    1.0000 </r>
       <r>  -24.0033    1.0000 </r>
       <r>  -23.9548    1.0000 </r>
       <r>  -23.9434    1.0000 </r>
       <r>  -23.8612    1.0000 </r>
       <r>  -23.8445    1.0000 </r>
       <r>  -23.8104    1.0000 </r>
       <r>  -23.8023    1.0000 </r>
       <r>  -23.6626    1.0000 </r>
       <r>  -23.6447    1.0000 </r>
       <r>  -23.5785    1.0000 </r>
       <r>  -23.5266    1.0000 </r>
       <r>  -23.0681    1.0000 </r>
       <r>  -23.0660    1.0000 </r>
       <r>   -0.3658    1.0000 </r>
       <r>    0.5849    1.0000 </r>
       <r>    1.4545    1.0000 </r>
       <r>    2.5094    1.0000 </r>
       <r>    3.7261    1.0000 </r>
       <r>    5.0624    1.0000 </r>
       <r>    5.2635    1.0000 </r>
       <r>    6.4920    1.0000 </r>
       <r>    6.5340    1.0000 </r>
       <r>    7.0427    1.0000 </r>
       <r>    7.9666    1.0000 </r>
       <r>    7.9951    1.0000 </r>
       <r>    8.1367    1.0000 </r>
       <r>    8.3654    1.0000 </r>
       <r>    8.4898    1.0000 </r>
       <r>    8.5633    1.0000 </r>
       <r>    8.8997    1.0000 </r>
       <r>    9.3437    1.0000 </r>
       <r>    9.3997    1.0000 </r>
       <r>    9.6018    1.0000 </r>
       <r>    9.6838    1.0000 </r>
       <r>    9.9560    1.0000 </r>
       <r>   10.6982    1.0000 </r>
       <r>   11.0274    1.0000 </r>
       <r>   11.1131    1.0000 </r>
       <r>   11.4756    1.0000 </r>
       <r>   11.7633    1.0000 </r>
       <r>   11.8958    1.0000 </r>
       <r>   11.9169    1.0000 </r>
       <r>   12.1606    0.9880 </r>
       <r>   12.3611    0.0000 </r>
       <r>   12.5674    0.0000 </r>
       <r>   12.7961    0.0000 </r>
       <r>   13.0719    0.0000 </r>
       <r>   13.3753    0.0000 </r>
       <r>   13.4864    0.0000 </r>
       <r>   13.8871    0.0000 </r>
       <r>   14.1407    0.0000 </r>
       <r>   14.2927    0.0000 </r>
       <r>   14.3260    0.0000 </r>
       <r>   14.9229    0.0000 </r>
       <r>   15.1486    0.0000 </r>
      </set>
      <set comment="kpoint 12">
       <r>  -50.3670    1.0000 </r>
       <r>  -50.3631    1.0000 </r>
       <r>  -50.3448    1.0000 </r>
       <r>  -50.3330    1.0000 </r>
       <r>  -49.9615    1.0000 </r>
       <r>  -49.9575    1.0000 </r>
       <r>  -24.4715    1.0000 </r>
       <r>  -24.3386    1.0000 </r>
       <r>  -24.3124    1.0000 </r>
       <r>  -24.2978    1.0000 </r>
       <r>  -24.0695    1.0000 </r>
       <r>  -23.9934    1.0000 </r>
       <r>  -23.9592    1.0000 </r>
       <r>  -23.9030    1.0000 </r>
       <r>  -23.8701    1.0000 </r>
       <r>  -23.8150    1.0000 </r>
       <r>  -23.7762    1.0000 </r>
       <r>  -23.7567    1.0000 </r>
       <r>  -23.7408    1.0000 </r>
       <r>  -23.6977    1.0000 </r>
       <r>  -23.6034    1.0000 </r>
       <r>  -23.5314    1.0000 </r>
       <r>  -23.0794    1.0000 </r>
       <r>  -23.0514    1.0000 </r>
       <r>    0.1067    1.0000 </r>
       <r>    0.2199    1.0000 </r>
       <r>    1.2442    1.0000 </r>
       <r>    2.3395    1.0000 </r>
       <r>    4.2137    1.0000 </r>
       <r>    4.5936    1.0000 </r>
       <r>    5.6728    1.0000 </r>
       <r>    6.1476    1.0000 </r>
       <r>    6.5953    1.0000 </r>
       <r>    7.1239    1.0000 </r>
       <r>    7.7124    1.0000 </r>
       <r>    7.8578    1.0000 </r>
       <r>    8.1684    1.0000 </r>
       <r>    8.2878    1.0000 </r>
       <r>    8.5577    1.0000 </r>
       <r>    8.8166    1.0000 </r>
       <r>    9.2173    1.0000 </r>
       <r>    9.2924    1.0000 </r>
       <r>    9.5540    1.0000 </r>
       <r>    9.7458    1.0000 </r>
       <r>    9.8049    1.0000 </r>
       <r>   10.2569    1.0000 </r>
       <r>   10.5752    1.0000 </r>
       <r>   10.8775    1.0000 </r>
       <r>   11.1706    1.0000 </r>
       <r>   11.4211    1.0000 </r>
       <r>   11.5951    1.0000 </r>
       <r>   11.8008    1.0000 </r>
       <r>   12.0637    1.0000 </r>
       <r>   12.3183    0.0000 </r>
       <r>   12.3499    0.0000 </r>
       <r>   12.5817    0.0000 </r>
       <r>   12.9073    0.0000 </r>
       <r>   13.1154    0.0000 </r>
       <r>   13.3684    0.0000 </r>
       <r>   13.4589    0.0000 </r>
       <r>   13.6811    0.0000 </r>
       <r>   13.9677    0.0000 </r>
       <r>   14.1471    0.0000 </r>
       <r>   14.3364    0.0000 </r>
       <r>   14.6944    0.0000 </r>
       <r>   15.1760    0.0000 </r>
      </set>
      <set comment="kpoint 13">
       <r>  -50.3751    1.0000 </r>
       <r>  -50.3567    1.0000 </r>
       <r>  -50.3410    1.0000 </r>
       <r>  -50.3365    1.0000 </r>
       <r>  -49.9621    1.0000 </r>
       <r>  -49.9556    1.0000 </r>
       <r>  -24.5162    1.0000 </r>
       <r>  -24.3583    1.0000 </r>
       <r>  -24.3242    1.0000 </r>
       <r>  -24.2465    1.0000 </r>
       <r>  -24.1155    1.0000 </r>
       <r>  -24.0343    1.0000 </r>
       <r>  -23.9418    1.0000 </r>
       <r>  -23.9022    1.0000 </r>
       <r>  -23.8622    1.0000 </r>
       <r>  -23.8312    1.0000 </r>
       <r>  -23.7643    1.0000 </r>
       <r>  -23.7548    1.0000 </r>
       <r>  -23.7145    1.0000 </r>
       <r>  -23.6610    1.0000 </r>
       <r>  -23.5994    1.0000 </r>
       <r>  -23.5245    1.0000 </r>
       <r>  -23.0781    1.0000 </r>
       <r>  -23.0287    1.0000 </r>
       <r>   -0.5213    1.0000 </r>
       <r>    0.6954    1.0000 </r>
       <r>    1.4446    1.0000 </r>
       <r>    2.2694    1.0000 </r>
       <r>    4.3753    1.0000 </r>
       <r>    4.8164    1.0000 </r>
       <r>    5.6992    1.0000 </r>
       <r>    6.1467    1.0000 </r>
       <r>    6.1744    1.0000 </r>
       <r>    7.0945    1.0000 </r>
       <r>    7.3823    1.0000 </r>
       <r>    7.7046    1.0000 </r>
       <r>    8.0238    1.0000 </r>
       <r>    8.2495    1.0000 </r>
       <r>    8.4053    1.0000 </r>
       <r>    8.6375    1.0000 </r>
       <r>    9.4045    1.0000 </r>
       <r>    9.4302    1.0000 </r>
       <r>    9.6075    1.0000 </r>
       <r>    9.6692    1.0000 </r>
       <r>   10.1632    1.0000 </r>
       <r>   10.3672    1.0000 </r>
       <r>   10.6376    1.0000 </r>
       <r>   10.8413    1.0000 </r>
       <r>   11.4236    1.0000 </r>
       <r>   11.5425    1.0000 </r>
       <r>   11.6481    1.0000 </r>
       <r>   11.7903    1.0000 </r>
       <r>   12.2304    0.0037 </r>
       <r>   12.3080    0.0000 </r>
       <r>   12.4931    0.0000 </r>
       <r>   12.6688    0.0000 </r>
       <r>   12.8810    0.0000 </r>
       <r>   13.1485    0.0000 </r>
       <r>   13.2112    0.0000 </r>
       <r>   13.2758    0.0000 </r>
       <r>   13.8614    0.0000 </r>
       <r>   13.9133    0.0000 </r>
       <r>   14.3959    0.0000 </r>
       <r>   14.7039    0.0000 </r>
       <r>   14.9172    0.0000 </r>
       <r>   15.2739    0.0000 </r>
      </set>
      <set comment="kpoint 14">
       <r>  -50.3853    1.0000 </r>
       <r>  -50.3484    1.0000 </r>
       <r>  -50.3484    1.0000 </r>
       <r>  -50.3285    1.0000 </r>
       <r>  -49.9617    1.0000 </r>
       <r>  -49.9543    1.0000 </r>
       <r>  -24.5330    1.0000 </r>
       <r>  -24.4119    1.0000 </r>
       <r>  -24.3382    1.0000 </r>
       <r>  -24.2170    1.0000 </r>
       <r>  -24.1367    1.0000 </r>
       <r>  -24.0925    1.0000 </r>
       <r>  -23.9729    1.0000 </r>
       <r>  -23.9380    1.0000 </r>
       <r>  -23.8535    1.0000 </r>
       <r>  -23.7948    1.0000 </r>
       <r>  -23.7906    1.0000 </r>
       <r>  -23.7476    1.0000 </r>
       <r>  -23.6590    1.0000 </r>
       <r>  -23.5948    1.0000 </r>
       <r>  -23.5676    1.0000 </r>
       <r>  -23.5134    1.0000 </r>
       <r>  -23.0680    1.0000 </r>
       <r>  -23.0116    1.0000 </r>
       <r>   -0.9820    1.0000 </r>
       <r>    0.8331    1.0000 </r>
       <r>    1.7919    1.0000 </r>
       <r>    2.4710    1.0000 </r>
       <r>    4.2916    1.0000 </r>
       <r>    5.4740    1.0000 </r>
       <r>    5.5038    1.0000 </r>
       <r>    5.7105    1.0000 </r>
       <r>    6.1802    1.0000 </r>
       <r>    6.6114    1.0000 </r>
       <r>    7.4569    1.0000 </r>
       <r>    7.6890    1.0000 </r>
       <r>    7.7403    1.0000 </r>
       <r>    7.8303    1.0000 </r>
       <r>    8.3670    1.0000 </r>
       <r>    8.8210    1.0000 </r>
       <r>    9.2936    1.0000 </r>
       <r>    9.3220    1.0000 </r>
       <r>    9.4764    1.0000 </r>
       <r>    9.8861    1.0000 </r>
       <r>    9.9798    1.0000 </r>
       <r>   10.7380    1.0000 </r>
       <r>   10.7435    1.0000 </r>
       <r>   10.8148    1.0000 </r>
       <r>   11.3466    1.0000 </r>
       <r>   11.6892    1.0000 </r>
       <r>   11.9116    1.0000 </r>
       <r>   11.9848    1.0000 </r>
       <r>   12.2538    0.0000 </r>
       <r>   12.2586    0.0000 </r>
       <r>   12.2693    0.0000 </r>
       <r>   12.8132    0.0000 </r>
       <r>   12.9047    0.0000 </r>
       <r>   13.2237    0.0000 </r>
       <r>   13.4313    0.0000 </r>
       <r>   13.4324    0.0000 </r>
       <r>   13.8892    0.0000 </r>
       <r>   14.0449    0.0000 </r>
       <r>   14.7296    0.0000 </r>
       <r>   14.8363    0.0000 </r>
       <r>   15.2402    0.0000 </r>
       <r>   15.5827    0.0000 </r>
      </set>
      <set comment="kpoint 15">
       <r>  -50.3584    1.0000 </r>
       <r>  -50.3577    1.0000 </r>
       <r>  -50.3521    1.0000 </r>
       <r>  -50.3402    1.0000 </r>
       <r>  -49.9624    1.0000 </r>
       <r>  -49.9563    1.0000 </r>
       <r>  -24.5167    1.0000 </r>
       <r>  -24.3003    1.0000 </r>
       <r>  -24.2925    1.0000 </r>
       <r>  -24.2739    1.0000 </r>
       <r>  -24.1020    1.0000 </r>
       <r>  -23.9928    1.0000 </r>
       <r>  -23.9688    1.0000 </r>
       <r>  -23.8559    1.0000 </r>
       <r>  -23.8298    1.0000 </r>
       <r>  -23.8080    1.0000 </r>
       <r>  -23.7728    1.0000 </r>
       <r>  -23.7590    1.0000 </r>
       <r>  -23.7377    1.0000 </r>
       <r>  -23.7227    1.0000 </r>
       <r>  -23.6757    1.0000 </r>
       <r>  -23.5376    1.0000 </r>
       <r>  -23.0860    1.0000 </r>
       <r>  -23.0371    1.0000 </r>
       <r>    0.2007    1.0000 </r>
       <r>    0.6446    1.0000 </r>
       <r>    0.6596    1.0000 </r>
       <r>    2.0964    1.0000 </r>
       <r>    4.6847    1.0000 </r>
       <r>    4.8472    1.0000 </r>
       <r>    5.5231    1.0000 </r>
       <r>    6.0913    1.0000 </r>
       <r>    6.7291    1.0000 </r>
       <r>    6.8158    1.0000 </r>
       <r>    7.3904    1.0000 </r>
       <r>    7.4188    1.0000 </r>
       <r>    8.1053    1.0000 </r>
       <r>    8.5169    1.0000 </r>
       <r>    8.6217    1.0000 </r>
       <r>    8.7954    1.0000 </r>
       <r>    9.3432    1.0000 </r>
       <r>    9.5128    1.0000 </r>
       <r>    9.7050    1.0000 </r>
       <r>    9.7550    1.0000 </r>
       <r>   10.0954    1.0000 </r>
       <r>   10.2920    1.0000 </r>
       <r>   10.8770    1.0000 </r>
       <r>   10.9935    1.0000 </r>
       <r>   11.2949    1.0000 </r>
       <r>   11.3240    1.0000 </r>
       <r>   11.4295    1.0000 </r>
       <r>   11.8835    1.0000 </r>
       <r>   12.1799    0.8134 </r>
       <r>   12.3144    0.0000 </r>
       <r>   12.4430    0.0000 </r>
       <r>   12.5953    0.0000 </r>
       <r>   12.8542    0.0000 </r>
       <r>   12.9198    0.0000 </r>
       <r>   13.2313    0.0000 </r>
       <r>   13.4657    0.0000 </r>
       <r>   13.5991    0.0000 </r>
       <r>   13.6337    0.0000 </r>
       <r>   14.1686    0.0000 </r>
       <r>   14.6198    0.0000 </r>
       <r>   14.6718    0.0000 </r>
       <r>   15.5962    0.0000 </r>
      </set>
      <set comment="kpoint 16">
       <r>  -50.3666    1.0000 </r>
       <r>  -50.3486    1.0000 </r>
       <r>  -50.3485    1.0000 </r>
       <r>  -50.3452    1.0000 </r>
       <r>  -49.9626    1.0000 </r>
       <r>  -49.9555    1.0000 </r>
       <r>  -24.5339    1.0000 </r>
       <r>  -24.3184    1.0000 </r>
       <r>  -24.3011    1.0000 </r>
       <r>  -24.2407    1.0000 </r>
       <r>  -24.1146    1.0000 </r>
       <r>  -24.0287    1.0000 </r>
       <r>  -23.9394    1.0000 </r>
       <r>  -23.8594    1.0000 </r>
       <r>  -23.8479    1.0000 </r>
       <r>  -23.7908    1.0000 </r>
       <r>  -23.7900    1.0000 </r>
       <r>  -23.7486    1.0000 </r>
       <r>  -23.7477    1.0000 </r>
       <r>  -23.6872    1.0000 </r>
       <r>  -23.6708    1.0000 </r>
       <r>  -23.5337    1.0000 </r>
       <r>  -23.0843    1.0000 </r>
       <r>  -23.0278    1.0000 </r>
       <r>   -0.1828    1.0000 </r>
       <r>    0.8554    1.0000 </r>
       <r>    0.8805    1.0000 </r>
       <r>    2.0496    1.0000 </r>
       <r>    4.5862    1.0000 </r>
       <r>    5.2256    1.0000 </r>
       <r>    5.5139    1.0000 </r>
       <r>    6.1318    1.0000 </r>
       <r>    6.1824    1.0000 </r>
       <r>    7.0721    1.0000 </r>
       <r>    7.2578    1.0000 </r>
       <r>    7.3598    1.0000 </r>
       <r>    8.0267    1.0000 </r>
       <r>    8.4666    1.0000 </r>
       <r>    8.7149    1.0000 </r>
       <r>    8.7754    1.0000 </r>
       <r>    9.1395    1.0000 </r>
       <r>    9.4264    1.0000 </r>
       <r>    9.6542    1.0000 </r>
       <r>   10.0198    1.0000 </r>
       <r>   10.1235    1.0000 </r>
       <r>   10.4053    1.0000 </r>
       <r>   10.5985    1.0000 </r>
       <r>   11.1643    1.0000 </r>
[...]
       <r>    9.3587    1.0000 </r>
       <r>    9.4384    1.0000 </r>
       <r>    9.5453    1.0000 </r>
       <r>    9.7407    1.0000 </r>
       <r>   10.0069    1.0000 </r>
       <r>   10.0650    1.0000 </r>
       <r>   10.1855    1.0000 </r>
       <r>   10.6762    1.0000 </r>
       <r>   10.7594    1.0000 </r>
       <r>   11.6661    1.0000 </r>
       <r>   12.0446    1.0000 </r>
       <r>   12.1317    1.0000 </r>
       <r>   12.3145    0.0000 </r>
       <r>   12.3206    0.0000 </r>
       <r>   12.9894    0.0000 </r>
       <r>   13.4802    0.0000 </r>
       <r>   13.6037    0.0000 </r>
       <r>   13.7976    0.0000 </r>
       <r>   13.9133    0.0000 </r>
       <r>   14.3418    0.0000 </r>
       <r>   15.3614    0.0000 </r>
       <r>   15.4473    0.0000 </r>
       <r>   15.8823    0.0000 </r>
       <r>   16.1934    0.0000 </r>
      </set>
      <set comment="kpoint 116">
       <r>  -50.3867    1.0000 </r>
       <r>  -50.3523    1.0000 </r>
       <r>  -50.3519    1.0000 </r>
       <r>  -50.3108    1.0000 </r>
       <r>  -49.9651    1.0000 </r>
       <r>  -49.9606    1.0000 </r>
       <r>  -24.3607    1.0000 </r>
       <r>  -24.2614    1.0000 </r>
       <r>  -24.2488    1.0000 </r>
       <r>  -24.2462    1.0000 </r>
       <r>  -24.0247    1.0000 </r>
       <r>  -24.0179    1.0000 </r>
       <r>  -23.9965    1.0000 </r>
       <r>  -23.9565    1.0000 </r>
       <r>  -23.9399    1.0000 </r>
       <r>  -23.9330    1.0000 </r>
       <r>  -23.9302    1.0000 </r>
       <r>  -23.9089    1.0000 </r>
       <r>  -23.5809    1.0000 </r>
       <r>  -23.5645    1.0000 </r>
       <r>  -23.5587    1.0000 </r>
       <r>  -23.4774    1.0000 </r>
       <r>  -23.1451    1.0000 </r>
       <r>  -23.1395    1.0000 </r>
       <r>   -0.4243    1.0000 </r>
       <r>    1.1011    1.0000 </r>
       <r>    1.8664    1.0000 </r>
       <r>    2.1811    1.0000 </r>
       <r>    4.2998    1.0000 </r>
       <r>    5.1627    1.0000 </r>
       <r>    5.1948    1.0000 </r>
       <r>    5.2100    1.0000 </r>
       <r>    6.7140    1.0000 </r>
       <r>    7.2721    1.0000 </r>
       <r>    7.5365    1.0000 </r>
       <r>    7.8698    1.0000 </r>
       <r>    8.1869    1.0000 </r>
       <r>    8.8152    1.0000 </r>
       <r>    8.8361    1.0000 </r>
       <r>    9.1598    1.0000 </r>
       <r>    9.2040    1.0000 </r>
       <r>    9.2724    1.0000 </r>
       <r>    9.5459    1.0000 </r>
       <r>    9.5737    1.0000 </r>
       <r>    9.5803    1.0000 </r>
       <r>    9.8760    1.0000 </r>
       <r>   10.0342    1.0000 </r>
       <r>   10.1065    1.0000 </r>
       <r>   10.1448    1.0000 </r>
       <r>   10.2995    1.0000 </r>
       <r>   10.4924    1.0000 </r>
       <r>   11.5800    1.0000 </r>
       <r>   12.0628    1.0000 </r>
       <r>   12.0716    1.0000 </r>
       <r>   12.1965    0.3900 </r>
       <r>   12.2498    0.0000 </r>
       <r>   12.9081    0.0000 </r>
       <r>   13.5337    0.0000 </r>
       <r>   13.6769    0.0000 </r>
       <r>   13.9280    0.0000 </r>
       <r>   14.0419    0.0000 </r>
       <r>   14.3285    0.0000 </r>
       <r>   15.6745    0.0000 </r>
       <r>   15.8474    0.0000 </r>
       <r>   15.9474    0.0000 </r>
       <r>   16.2635    0.0000 </r>
      </set>
     </set>
    </set>
   </array>
  </eigenvalues>
  <separator name="orbital magnetization" >
   <v name="MAGDIPOLOUT">      0.00000000      0.00000000      0.00000000</v>
  </separator>
  <dos>
   <i name="efermi">     12.19251992 </i>
   <total>
    <array>
     <dimension dim="1">gridpoints</dimension>
     <dimension dim="2">spin</dimension>
     <field>energy</field>
     <field>total</field>
     <field>integrated</field>
     <set>
      <set comment="spin 1">
       <r>   -53.7727     0.0000     0.0000 </r>
       <r>   -53.5257     0.0000     0.0000 </r>
       <r>   -53.2786     0.0000     0.0000 </r>
       <r>   -53.0316     0.0000     0.0000 </r>
       <r>   -52.7845     0.0000     0.0000 </r>
       <r>   -52.5375     0.0000     0.0000 </r>
       <r>   -52.2905     0.0000     0.0000 </r>
       <r>   -52.0434     0.0000     0.0000 </r>
       <r>   -51.7964     0.0000     0.0000 </r>
       <r>   -51.5493     0.0000     0.0000 </r>
       <r>   -51.3023     0.0000     0.0000 </r>
       <r>   -51.0553     0.0000     0.0000 </r>
       <r>   -50.8082     0.0000     0.0000 </r>
       <r>   -50.5612     0.0000     0.0000 </r>
       <r>   -50.3141    30.1990     7.4604 </r>
       <r>   -50.0671     0.0000     8.0000 </r>
       <r>   -49.8201    16.1916    12.0000 </r>
       <r>   -49.5730     0.0000    12.0000 </r>
       <r>   -49.3260     0.0000    12.0000 </r>
       <r>   -49.0789     0.0000    12.0000 </r>
       <r>   -48.8319     0.0000    12.0000 </r>
       <r>   -48.5848     0.0000    12.0000 </r>
       <r>   -48.3378     0.0000    12.0000 </r>
       <r>   -48.0908     0.0000    12.0000 </r>
       <r>   -47.8437     0.0000    12.0000 </r>
       <r>   -47.5967     0.0000    12.0000 </r>
       <r>   -47.3496     0.0000    12.0000 </r>
       <r>   -47.1026     0.0000    12.0000 </r>
       <r>   -46.8556     0.0000    12.0000 </r>
       <r>   -46.6085     0.0000    12.0000 </r>
       <r>   -46.3615     0.0000    12.0000 </r>
       <r>   -46.1144     0.0000    12.0000 </r>
       <r>   -45.8674     0.0000    12.0000 </r>
       <r>   -45.6204     0.0000    12.0000 </r>
       <r>   -45.3733     0.0000    12.0000 </r>
       <r>   -45.1263     0.0000    12.0000 </r>
       <r>   -44.8792     0.0000    12.0000 </r>
       <r>   -44.6322     0.0000    12.0000 </r>
       <r>   -44.3852     0.0000    12.0000 </r>
       <r>   -44.1381     0.0000    12.0000 </r>
       <r>   -43.8911     0.0000    12.0000 </r>
       <r>   -43.6440     0.0000    12.0000 </r>
       <r>   -43.3970     0.0000    12.0000 </r>
       <r>   -43.1499     0.0000    12.0000 </r>
       <r>   -42.9029     0.0000    12.0000 </r>
       <r>   -42.6559     0.0000    12.0000 </r>
       <r>   -42.4088     0.0000    12.0000 </r>
       <r>   -42.1618     0.0000    12.0000 </r>
       <r>   -41.9147     0.0000    12.0000 </r>
       <r>   -41.6677     0.0000    12.0000 </r>
       <r>   -41.4207     0.0000    12.0000 </r>
       <r>   -41.1736     0.0000    12.0000 </r>
       <r>   -40.9266     0.0000    12.0000 </r>
       <r>   -40.6795     0.0000    12.0000 </r>
       <r>   -40.4325     0.0000    12.0000 </r>
       <r>   -40.1855     0.0000    12.0000 </r>
       <r>   -39.9384     0.0000    12.0000 </r>
       <r>   -39.6914     0.0000    12.0000 </r>
       <r>   -39.4443     0.0000    12.0000 </r>
       <r>   -39.1973     0.0000    12.0000 </r>
       <r>   -38.9502     0.0000    12.0000 </r>
       <r>   -38.7032     0.0000    12.0000 </r>
       <r>   -38.4562     0.0000    12.0000 </r>
       <r>   -38.2091     0.0000    12.0000 </r>
       <r>   -37.9621     0.0000    12.0000 </r>
       <r>   -37.7150     0.0000    12.0000 </r>
       <r>   -37.4680     0.0000    12.0000 </r>
       <r>   -37.2210     0.0000    12.0000 </r>
       <r>   -36.9739     0.0000    12.0000 </r>
       <r>   -36.7269     0.0000    12.0000 </r>
       <r>   -36.4798     0.0000    12.0000 </r>
       <r>   -36.2328     0.0000    12.0000 </r>
       <r>   -35.9858     0.0000    12.0000 </r>
       <r>   -35.7387     0.0000    12.0000 </r>
       <r>   -35.4917     0.0000    12.0000 </r>
       <r>   -35.2446     0.0000    12.0000 </r>
       <r>   -34.9976     0.0000    12.0000 </r>
       <r>   -34.7506     0.0000    12.0000 </r>
       <r>   -34.5035     0.0000    12.0000 </r>
       <r>   -34.2565     0.0000    12.0000 </r>
       <r>   -34.0094     0.0000    12.0000 </r>
       <r>   -33.7624     0.0000    12.0000 </r>
       <r>   -33.5153     0.0000    12.0000 </r>
       <r>   -33.2683     0.0000    12.0000 </r>
       <r>   -33.0213     0.0000    12.0000 </r>
       <r>   -32.7742     0.0000    12.0000 </r>
       <r>   -32.5272     0.0000    12.0000 </r>
       <r>   -32.2801     0.0000    12.0000 </r>
       <r>   -32.0331     0.0000    12.0000 </r>
       <r>   -31.7861     0.0000    12.0000 </r>
       <r>   -31.5390     0.0000    12.0000 </r>
       <r>   -31.2920     0.0000    12.0000 </r>
       <r>   -31.0449     0.0000    12.0000 </r>
       <r>   -30.7979     0.0000    12.0000 </r>
       <r>   -30.5509     0.0000    12.0000 </r>
       <r>   -30.3038     0.0000    12.0000 </r>
       <r>   -30.0568     0.0000    12.0000 </r>
       <r>   -29.8097     0.0000    12.0000 </r>
       <r>   -29.5627     0.0000    12.0000 </r>
       <r>   -29.3157     0.0000    12.0000 </r>
       <r>   -29.0686     0.0000    12.0000 </r>
       <r>   -28.8216     0.0000    12.0000 </r>
       <r>   -28.5745     0.0000    12.0000 </r>
       <r>   -28.3275     0.0000    12.0000 </r>
       <r>   -28.0804     0.0000    12.0000 </r>
       <r>   -27.8334     0.0000    12.0000 </r>
       <r>   -27.5864     0.0000    12.0000 </r>
       <r>   -27.3393     0.0000    12.0000 </r>
       <r>   -27.0923     0.0000    12.0000 </r>
       <r>   -26.8452     0.0000    12.0000 </r>
       <r>   -26.5982     0.0000    12.0000 </r>
       <r>   -26.3512     0.0000    12.0000 </r>
       <r>   -26.1041     0.0000    12.0000 </r>
       <r>   -25.8571     0.0000    12.0000 </r>
       <r>   -25.6100     0.0000    12.0000 </r>
       <r>   -25.3630     0.0000    12.0000 </r>
       <r>   -25.1160     0.0000    12.0000 </r>
       <r>   -24.8689     0.0000    12.0000 </r>
       <r>   -24.6219     0.0000    12.0000 </r>
       <r>   -24.3748    13.4350    15.3190 </r>
       <r>   -24.1278     8.9103    20.4665 </r>
       <r>   -23.8808    25.7350    28.7760 </r>
       <r>   -23.6337    21.2378    38.6446 </r>
       <r>   -23.3867    12.3916    44.0000 </r>
       <r>   -23.1396     0.2049    44.0506 </r>
       <r>   -22.8926     5.0186    48.0000 </r>
       <r>   -22.6455     0.0000    48.0000 </r>
       <r>   -22.3985     0.0000    48.0000 </r>
       <r>   -22.1515     0.0000    48.0000 </r>
       <r>   -21.9044     0.0000    48.0000 </r>
       <r>   -21.6574     0.0000    48.0000 </r>
       <r>   -21.4103     0.0000    48.0000 </r>
       <r>   -21.1633     0.0000    48.0000 </r>
       <r>   -20.9163     0.0000    48.0000 </r>
       <r>   -20.6692     0.0000    48.0000 </r>
       <r>   -20.4222     0.0000    48.0000 </r>
       <r>   -20.1751     0.0000    48.0000 </r>
       <r>   -19.9281     0.0000    48.0000 </r>
       <r>   -19.6811     0.0000    48.0000 </r>
       <r>   -19.4340     0.0000    48.0000 </r>
       <r>   -19.1870     0.0000    48.0000 </r>
       <r>   -18.9399     0.0000    48.0000 </r>
       <r>   -18.6929     0.0000    48.0000 </r>
       <r>   -18.4459     0.0000    48.0000 </r>
       <r>   -18.1988     0.0000    48.0000 </r>
       <r>   -17.9518     0.0000    48.0000 </r>
       <r>   -17.7047     0.0000    48.0000 </r>
       <r>   -17.4577     0.0000    48.0000 </r>
       <r>   -17.2106     0.0000    48.0000 </r>
       <r>   -16.9636     0.0000    48.0000 </r>
       <r>   -16.7166     0.0000    48.0000 </r>
       <r>   -16.4695     0.0000    48.0000 </r>
       <r>   -16.2225     0.0000    48.0000 </r>
       <r>   -15.9754     0.0000    48.0000 </r>
       <r>   -15.7284     0.0000    48.0000 </r>
       <r>   -15.4814     0.0000    48.0000 </r>
       <r>   -15.2343     0.0000    48.0000 </r>
       <r>   -14.9873     0.0000    48.0000 </r>
       <r>   -14.7402     0.0000    48.0000 </r>
       <r>   -14.4932     0.0000    48.0000 </r>
       <r>   -14.2462     0.0000    48.0000 </r>
       <r>   -13.9991     0.0000    48.0000 </r>
       <r>   -13.7521     0.0000    48.0000 </r>
       <r>   -13.5050     0.0000    48.0000 </r>
       <r>   -13.2580     0.0000    48.0000 </r>
       <r>   -13.0110     0.0000    48.0000 </r>
       <r>   -12.7639     0.0000    48.0000 </r>
       <r>   -12.5169     0.0000    48.0000 </r>
       <r>   -12.2698     0.0000    48.0000 </r>
       <r>   -12.0228     0.0000    48.0000 </r>
       <r>   -11.7757     0.0000    48.0000 </r>
       <r>   -11.5287     0.0000    48.0000 </r>
       <r>   -11.2817     0.0000    48.0000 </r>
       <r>   -11.0346     0.0000    48.0000 </r>
       <r>   -10.7876     0.0000    48.0000 </r>
       <r>   -10.5405     0.0000    48.0000 </r>
       <r>   -10.2935     0.0000    48.0000 </r>
       <r>   -10.0465     0.0000    48.0000 </r>
       <r>    -9.7994     0.0000    48.0000 </r>
       <r>    -9.5524     0.0000    48.0000 </r>
       <r>    -9.3053     0.0000    48.0000 </r>
       <r>    -9.0583     0.0000    48.0000 </r>
       <r>    -8.8113     0.0000    48.0000 </r>
       <r>    -8.5642     0.0000    48.0000 </r>
       <r>    -8.3172     0.0000    48.0000 </r>
       <r>    -8.0701     0.0000    48.0000 </r>
       <r>    -7.8231     0.0000    48.0000 </r>
       <r>    -7.5761     0.0000    48.0000 </r>
       <r>    -7.3290     0.0000    48.0000 </r>
       <r>    -7.0820     0.0000    48.0000 </r>
       <r>    -6.8349     0.0000    48.0000 </r>
       <r>    -6.5879     0.0000    48.0000 </r>
       <r>    -6.3408     0.0000    48.0000 </r>
       <r>    -6.0938     0.0000    48.0000 </r>
       <r>    -5.8468     0.0000    48.0000 </r>
       <r>    -5.5997     0.0000    48.0000 </r>
       <r>    -5.3527     0.0000    48.0000 </r>
       <r>    -5.1056     0.0000    48.0000 </r>
       <r>    -4.8586     0.0000    48.0000 </r>
       <r>    -4.6116     0.0000    48.0000 </r>
       <r>    -4.3645     0.0000    48.0000 </r>
       <r>    -4.1175     0.0000    48.0000 </r>
       <r>    -3.8704     0.0000    48.0000 </r>
       <r>    -3.6234     0.0000    48.0000 </r>
       <r>    -3.3764     0.0000    48.0000 </r>
       <r>    -3.1293     0.0000    48.0000 </r>
       <r>    -2.8823     0.0000    48.0000 </r>
       <r>    -2.6352     0.0000    48.0000 </r>
       <r>    -2.3882     0.0000    48.0000 </r>
       <r>    -2.1411     0.0000    48.0000 </r>
       <r>    -1.8941     0.0000    48.0000 </r>
       <r>    -1.6471     0.0207    48.0051 </r>
       <r>    -1.4000     0.1196    48.0857 </r>
       <r>    -1.1530     0.5447    48.2927 </r>
       <r>    -0.9059     0.4759    48.4288 </r>
       <r>    -0.6589     0.7311    48.7469 </r>
       <r>    -0.4119     0.8671    49.0254 </r>
       <r>    -0.1648     1.4582    49.5388 </r>
       <r>     0.0822     1.1584    49.9341 </r>
       <r>     0.3293     1.7444    50.5024 </r>
       <r>     0.5763     1.2616    51.0055 </r>
       <r>     0.8233     2.6197    51.8053 </r>
       <r>     1.0704     0.6483    52.1448 </r>
       <r>     1.3174     0.4593    52.3329 </r>
       <r>     1.5645     0.7479    52.5776 </r>
       <r>     1.8115     0.9605    52.9260 </r>
       <r>     2.0585     1.1303    53.3354 </r>
       <r>     2.3056     1.5391    54.0231 </r>
       <r>     2.5526     1.3130    54.5795 </r>
       <r>     2.7997     1.5783    55.2011 </r>
       <r>     3.0467     1.4519    55.7209 </r>
       <r>     3.2938     1.0534    56.1429 </r>
       <r>     3.5408     1.0155    56.6131 </r>
       <r>     3.7878     1.4147    57.1301 </r>
       <r>     4.0349     1.2113    57.5901 </r>
       <r>     4.2819     1.7588    58.1947 </r>
       <r>     4.5290     0.8271    58.5054 </r>
       <r>     4.7760     1.2748    59.0445 </r>
       <r>     5.0230     0.8942    59.5270 </r>
       <r>     5.2701     1.0508    59.9025 </r>
       <r>     5.5171     1.8634    60.4603 </r>
       <r>     5.7642     1.8829    61.2764 </r>
       <r>     6.0112     2.1803    62.2376 </r>
       <r>     6.2582     4.0485    63.4950 </r>
       <r>     6.5053     2.8254    64.5245 </r>
       <r>     6.7523     2.1810    65.5133 </r>
       <r>     6.9994     2.9437    66.5436 </r>
       <r>     7.2464     2.6284    67.7310 </r>
       <r>     7.4934     5.2133    69.7165 </r>
       <r>     7.7405     3.5281    70.8767 </r>
       <r>     7.9875     4.7961    72.8124 </r>
       <r>     8.2346     6.2228    74.9914 </r>
       <r>     8.4816     5.9063    77.3417 </r>
       <r>     8.7287     5.3778    79.4918 </r>
       <r>     8.9757     5.0914    81.4568 </r>
       <r>     9.2227     3.7083    82.8549 </r>
       <r>     9.4698     6.9966    85.4886 </r>
       <r>     9.7168     5.3738    87.5112 </r>
       <r>     9.9639     4.6210    89.4630 </r>
       <r>    10.2109     2.7677    90.6429 </r>
       <r>    10.4579     3.8307    92.0229 </r>
       <r>    10.7050     4.3248    93.4255 </r>
       <r>    10.9520     5.3646    95.6212 </r>
       <r>    11.1991     4.6664    97.5048 </r>
       <r>    11.4461     4.5897    99.3379 </r>
       <r>    11.6931     8.3929   102.3642 </r>
       <r>    11.9402     4.1902   104.1576 </r>
       <r>    12.1872     5.6422   105.9194 </r>
       <r>    12.4343     6.3344   108.6261 </r>
       <r>    12.6813     6.7479   110.9527 </r>
       <r>    12.9283     4.5904   112.7667 </r>
       <r>    13.1754     5.6099   114.9267 </r>
       <r>    13.4224     7.5887   117.5737 </r>
       <r>    13.6695     5.5971   119.7348 </r>
       <r>    13.9165     4.8669   121.3758 </r>
       <r>    14.1636     3.9732   122.9866 </r>
       <r>    14.4106     5.0381   124.9487 </r>
       <r>    14.6576     3.6440   126.5125 </r>
       <r>    14.9047     3.7637   127.9094 </r>
       <r>    15.1517     2.4144   129.1067 </r>
       <r>    15.3988     2.1076   129.9390 </r>
       <r>    15.6458     1.6247   130.8452 </r>
       <r>    15.8928     1.6901   131.4430 </r>
       <r>    16.1399     0.7619   131.7648 </r>
       <r>    16.3869     0.3718   131.9184 </r>
       <r>    16.6340     0.1652   131.9898 </r>
       <r>    16.8810     0.0000   131.9898 </r>
       <r>    17.1280     0.0413   132.0000 </r>
       <r>    17.3751     0.0000   132.0000 </r>
       <r>    17.6221     0.0000   132.0000 </r>
       <r>    17.8692     0.0000   132.0000 </r>
       <r>    18.1162     0.0000   132.0000 </r>
       <r>    18.3632     0.0000   132.0000 </r>
       <r>    18.6103     0.0000   132.0000 </r>
       <r>    18.8573     0.0000   132.0000 </r>
       <r>    19.1044     0.0000   132.0000 </r>
       <r>    19.3514     0.0000   132.0000 </r>
       <r>    19.5985     0.0000   132.0000 </r>
       <r>    19.8455     0.0000   132.0000 </r>
       <r>    20.0925     0.0000   132.0000 </r>
       <r>    20.3396     0.0000   132.0000 </r>
      </set>
     </set>
    </array>
   </total>
  </dos>
 </calculation>
 <structure name="finalpos" >
  <crystal>
   <varray name="basis" >
    <v>       5.19494076       0.00000000      -2.88873612 </v>
    <v>      -1.79693413       4.87426274      -2.88873612 </v>
    <v>       0.00000000       0.00000000       5.94409000 </v>
   </varray>
   <i name="volume">    150.51331191 </i>
   <varray name="rec_basis" >
    <v>       0.19249498       0.07096474       0.00000000 </v>
    <v>       0.00000000       0.20515923       0.00000000 </v>
    <v>       0.09354959       0.13419199       0.16823433 </v>
   </varray>
  </crystal>
  <varray name="positions" >
   <v>       0.25000000       0.75000000       0.50000000 </v>
   <v>       0.75000000       0.25000000       0.50000000 </v>
   <v>       0.74153000       0.24153000       0.98306000 </v>
   <v>       0.25000000       0.25000000       0.00000000 </v>
   <v>       0.25847000       0.75847000       0.01694000 </v>
   <v>       0.75000000       0.75000000       0.00000000 </v>
   <v>       0.24153000       0.25847000       0.50000000 </v>
   <v>       0.75847000       0.74153000       0.50000000 </v>
   <v>       0.50000000       0.00000000       0.00000000 </v>
   <v>       0.00000000       0.00000000       0.50000000 </v>
   <v>       0.00000000       0.50000000       0.00000000 </v>
   <v>       0.50000000       0.50000000       0.50000000 </v>
  </varray>
 </structure>
</modeling>
