 vasp.6.2.0 18Jan21 (build Jan 05 2022 15:41:44) complex                        
  
 executed on             LinuxIFC date 2025.05.07  16:53:03
 running on   24 total cores
 distrk:  each k-point on   12 cores,    2 groups
 distr:  one band on NCORE=   2 cores,    6 groups


--------------------------------------------------------------------------------------------------------


 INCAR:
   SYSTEM = routine with relax: pwdword
   ICHARG = 2
   NPAR = 6
   KPAR = 2
   NCORE = 2
   ADDGRID = T
   PREC = Acc
   ENCUT = 600
   METAGGA = R2SCAN
   LASPH = .TRUE.
   LMIXTAU = .FALSE.
   ALGO = A
   EDIFF = 1E-9
   NELM = 100
   NELMIN = 6
   IALGO = 38
   LREAL = F
   NSW = 0
   ISIF = -1
   ISMEAR = 0
   SIGMA = 0.02
   SYMPREC = 1E-4

 POTCAR:    PAW_PBE B 06Sep2000                   
 POTCAR:    PAW_PBE Mo_sv 02Feb2006               
 POTCAR:    PAW_PBE Si 05Jan2001                  
 -----------------------------------------------------------------------------
|                                                                             |
|           W    W    AA    RRRRR   N    N  II  N    N   GGGG   !!!           |
|           W    W   A  A   R    R  NN   N  II  NN   N  G    G  !!!           |
|           W    W  A    A  R    R  N N  N  II  N N  N  G       !!!           |
|           W WW W  AAAAAA  RRRRR   N  N N  II  N  N N  G  GGG   !            |
|           WW  WW  A    A  R   R   N   NN  II  N   NN  G    G                |
|           W    W  A    A  R    R  N    N  II  N    N   GGGG   !!!           |
|                                                                             |
|     For optimal performance we recommend to set                             |
|       NCORE = 2 up to number-of-cores-per-socket                            |
|     NCORE specifies how many cores store one orbital (NPAR=cpu/NCORE).      |
|     This setting can greatly improve the performance of VASP for DFT.       |
|     The default, NCORE=1 might be grossly inefficient on modern             |
|     multi-core architectures or massively parallel machines. Do your        |
|     own testing! More info at https://www.vasp.at/wiki/index.php/NCORE      |
|     Unfortunately you need to use the default for GW and RPA                |
|     calculations (for HF NCORE is supported but not extensively tested      |
|     yet).                                                                   |
|                                                                             |
 -----------------------------------------------------------------------------

 POTCAR:    PAW_PBE B 06Sep2000                   
   VRHFIN =B: s2p1                                                                                  
   LEXCH  = PE                                                                                      
   EATOM  =    71.1703 eV,    5.2309 Ry                                                             
                                                                                                    
   TITEL  = PAW_PBE B 06Sep2000                                                                     
   LULTRA =        F    use ultrasoft PP ?                                                          
   IUNSCR =        1    unscreen: 0-lin 1-nonlin 2-no                                               
   RPACOR =    1.200    partial core radius                                                         
   POMASS =   10.811; ZVAL   =    3.000    mass and valenz                                          
   RCORE  =    1.700    outmost cutoff radius                                                       
   RWIGS  =    1.710; RWIGS  =    0.905    wigner-seitz radius (au A)                               
   ENMAX  =  318.614; ENMIN  =  238.960 eV                                                          
   ICORE  =        2    local potential                                                             
   LCOR   =        T    correct aug charges                                                         
   LPAW   =        T    paw PP                                                                      
   EAUG   =  535.514                                                                                
   DEXC   =    0.000                                                                                
   RMAX   =    1.732    core radius for proj-oper                                                   
   RAUG   =    1.300    factor for augmentation sphere                                              
   RDEP   =    1.757    radius for radial grids                                                     
   RDEPT  =    1.436    core radius for aug-charge                                                  
                                                                                                    
   Atomic configuration                                                                             
    4 entries                                                                                       
     n  l   j            E        occ.                                                              
     1  0  0.50      -180.5896   2.0000                                                             
     2  0  0.50        -9.4431   2.0000                                                             
     2  1  0.50        -3.6068   1.0000                                                             
     3  2  1.50        -4.0817   0.0000                                                             
   Description                                                                                      
     l       E           TYP  RCUT    TYP  RCUT                                                     
     0     -9.4430752     23  1.500                                                                 
     0      0.8675899     23  1.500                                                                 
     1     -3.6067955     23  1.700                                                                 
     1      6.1086146     23  1.700                                                                 
     2     -4.0817478      7  1.700                                                                 
  local pseudopotential read in
  partial core-charges read in
  partial kinetic energy density read in
  atomic valenz-charges read in
  non local Contribution for L=           0  read in
    real space projection operators read in
  non local Contribution for L=           0  read in
    real space projection operators read in
  non local Contribution for L=           1  read in
    real space projection operators read in
  non local Contribution for L=           1  read in
    real space projection operators read in
    PAW grid and wavefunctions read in
 
   number of l-projection  operators is LMAX  =           4
   number of lm-projection operators is LMMAX =           8
 
 POTCAR:    PAW_PBE Mo_sv 02Feb2006               
   VRHFIN =Mo: 4p5s4d                                                                               
   LEXCH  = PE                                                                                      
   EATOM  =  1862.2866 eV,  136.8742 Ry                                                             
                                                                                                    
   TITEL  = PAW_PBE Mo_sv 02Feb2006                                                                 
   LULTRA =        F    use ultrasoft PP ?                                                          
   IUNSCR =        1    unscreen: 0-lin 1-nonlin 2-no                                               
   RPACOR =    2.200    partial core radius                                                         
   POMASS =   95.940; ZVAL   =   14.000    mass and valenz                                          
   RCORE  =    2.500    outmost cutoff radius                                                       
   RWIGS  =    2.750; RWIGS  =    1.455    wigner-seitz radius (au A)                               
   ENMAX  =  242.676; ENMIN  =  182.007 eV                                                          
   ICORE  =        3    local potential                                                             
   LCOR   =        T    correct aug charges                                                         
   LPAW   =        T    paw PP                                                                      
   EAUG   =  446.014                                                                                
   DEXC   =    0.000                                                                                
   RMAX   =    2.563    core radius for proj-oper                                                   
   RAUG   =    1.300    factor for augmentation sphere                                              
   RDEP   =    2.641    radius for radial grids                                                     
   RDEPT  =    2.031    core radius for aug-charge                                                  
                                                                                                    
   Atomic configuration                                                                             
   11 entries                                                                                       
     n  l   j            E        occ.                                                              
     1  0  0.50    -19819.0341   2.0000                                                             
     2  0  0.50     -2799.0127   2.0000                                                             
     2  1  1.50     -2502.0276   6.0000                                                             
     3  0  0.50      -476.4449   2.0000                                                             
     3  1  1.50      -379.1496   6.0000                                                             
     3  2  2.50      -220.9367  10.0000                                                             
     4  0  0.50       -64.3378   2.0000                                                             
     5  0  0.50        -4.0862   1.0000                                                             
     4  1  1.50       -38.4773   6.0000                                                             
     4  2  2.50        -3.7535   5.0000                                                             
     4  3  2.50        -1.3606   0.0000                                                             
   Description                                                                                      
     l       E           TYP  RCUT    TYP  RCUT                                                     
     0    -64.3377829     23  2.100                                                                 
     0     -4.0861640     23  2.400                                                                 
     1    -38.4772993     23  2.100                                                                 
     1     13.6058260     23  2.100                                                                 
     2     -3.7534941     23  2.400                                                                 
     2     -5.1140767     23  2.400                                                                 
     3     -4.0817478     23  2.500                                                                 
  local pseudopotential read in
  partial core-charges read in
  partial kinetic energy density read in
  atomic valenz-charges read in
  non local Contribution for L=           0  read in
    real space projection operators read in
  non local Contribution for L=           0  read in
    real space projection operators read in
  non local Contribution for L=           1  read in
    real space projection operators read in
  non local Contribution for L=           1  read in
    real space projection operators read in
  non local Contribution for L=           2  read in
    real space projection operators read in
  non local Contribution for L=           2  read in
    real space projection operators read in
    PAW grid and wavefunctions read in
 
   number of l-projection  operators is LMAX  =           6
   number of lm-projection operators is LMMAX =          18
 
 POTCAR:    PAW_PBE Si 05Jan2001                  
   VRHFIN =Si: s2p2                                                                                 
   LEXCH  = PE                                                                                      
   EATOM  =   103.0669 eV,    7.5752 Ry                                                             
                                                                                                    
   TITEL  = PAW_PBE Si 05Jan2001                                                                    
   LULTRA =        F    use ultrasoft PP ?                                                          
   IUNSCR =        1    unscreen: 0-lin 1-nonlin 2-no                                               
   RPACOR =    1.500    partial core radius                                                         
   POMASS =   28.085; ZVAL   =    4.000    mass and valenz                                          
   RCORE  =    1.900    outmost cutoff radius                                                       
   RWIGS  =    2.480; RWIGS  =    1.312    wigner-seitz radius (au A)                               
   ENMAX  =  245.345; ENMIN  =  184.009 eV                                                          
   ICORE  =        2    local potential                                                             
   LCOR   =        T    correct aug charges                                                         
   LPAW   =        T    paw PP                                                                      
   EAUG   =  322.069                                                                                
   DEXC   =    0.000                                                                                
   RMAX   =    1.950    core radius for proj-oper                                                   
   RAUG   =    1.300    factor for augmentation sphere                                              
   RDEP   =    1.993    radius for radial grids                                                     
   RDEPT  =    1.837    core radius for aug-charge                                                  
                                                                                                    
   Atomic configuration                                                                             
    6 entries                                                                                       
     n  l   j            E        occ.                                                              
     1  0  0.50     -1785.8828   2.0000                                                             
     2  0  0.50      -139.4969   2.0000                                                             
     2  1  1.50       -95.5546   6.0000                                                             
     3  0  0.50       -10.8127   2.0000                                                             
     3  1  0.50        -4.0811   2.0000                                                             
     3  2  1.50        -4.0817   0.0000                                                             
   Description                                                                                      
     l       E           TYP  RCUT    TYP  RCUT                                                     
     0    -10.8127223     23  1.900                                                                 
     0     -7.6451159     23  1.900                                                                 
     1     -4.0811372     23  1.900                                                                 
     1      2.4879257     23  1.900                                                                 
     2     -4.0817478      7  1.900                                                                 
  local pseudopotential read in
  partial core-charges read in
  partial kinetic energy density read in
  atomic valenz-charges read in
  non local Contribution for L=           0  read in
    real space projection operators read in
  non local Contribution for L=           0  read in
    real space projection operators read in
  non local Contribution for L=           1  read in
    real space projection operators read in
  non local Contribution for L=           1  read in
    real space projection operators read in
    PAW grid and wavefunctions read in
 
   number of l-projection  operators is LMAX  =           4
   number of lm-projection operators is LMMAX =           8
 
  PAW_PBE B 06Sep2000                   :
 energy of atom  1       EATOM=  -71.1703
 kinetic energy error for atom=    0.0007 (will be added to EATOM!!)
  PAW_PBE Mo_sv 02Feb2006               :
 energy of atom  2       EATOM=-1862.2866
 kinetic energy error for atom=    0.0041 (will be added to EATOM!!)
  PAW_PBE Si 05Jan2001                  :
 energy of atom  3       EATOM= -103.0669
 kinetic energy error for atom=    0.0003 (will be added to EATOM!!)
 
 
 POSCAR: EA75
  positions in direct lattice
  No initial velocities read in

 METAGGA = R2SCA    LMAXTAU =  6    LMIXTAU =  F

 exchange correlation table for  LEXCH =        8
   RHO(1)=    0.500       N(1)  =     2000
   RHO(2)=  100.500       N(2)  =     4000
 


--------------------------------------------------------------------------------------------------------


 ion  position               nearest neighbor table
   1  0.243  0.257  0.500-   8 2.26   6 2.39   5 2.40   9 2.40
   2  0.757  0.743  0.500-   8 2.26   6 2.39   5 2.40   9 2.40
   3  0.257  0.757  0.014-   6 2.26   8 2.39  10 2.40   7 2.40
   4  0.743  0.243  0.986-   6 2.26   8 2.39  10 2.40   7 2.40
   5  0.000  0.000  0.500-  11 2.33  12 2.33   1 2.40   2 2.40   7 3.29  10 3.29   7 3.29  10 3.29
                             8 3.34   8 3.34   6 3.34   6 3.34
   6  0.500  0.000  0.500-   3 2.26   4 2.26   1 2.39   2 2.39   9 3.34   9 3.34  10 3.34  10 3.34
                             5 3.34   5 3.34   7 3.34   7 3.34
   7  0.000  0.500  0.000-  11 2.33  12 2.33   3 2.40   4 2.40   5 3.29   9 3.29   5 3.29   9 3.29
                             8 3.34   8 3.34   6 3.34   6 3.34
   8  0.000  0.500  0.500-   1 2.26   2 2.26   3 2.39   4 2.39   5 3.34   5 3.34   7 3.34   7 3.34
                             9 3.34   9 3.34  10 3.34  10 3.34
   9  0.500  0.500  0.500-  12 2.33  11 2.33   1 2.40   2 2.40   7 3.29  10 3.29  10 3.29   7 3.29
                             6 3.34   6 3.34   8 3.34   8 3.34
  10  0.500  0.000  0.000-  11 2.33  12 2.33   3 2.40   4 2.40   5 3.29   9 3.29   9 3.29   5 3.29
                             6 3.34   6 3.34   8 3.34   8 3.34
  11  0.250  0.250  0.000-   7 2.33  10 2.33   9 2.33   5 2.33
  12  0.750  0.750  0.000-   7 2.33  10 2.33   5 2.33   9 2.33
 
  LATTYP: Found a body centered tetragonal cell.
 ALAT       =     6.5839380916
 C/A-ratio  =     1.4589386799
  
  Lattice vectors:
  
 A1 = (   5.7313579914,   0.0000000000,  -3.4485141579)
 A2 = (  -1.8319487402,   5.4306931637,  -3.4485141579)
 A3 = (   0.0000000000,   0.0000000000,   6.6888500000)


Analysis of symmetry for initial positions (statically):
=====================================================================
 Subroutine PRICEL returns:
 Original cell was already a primitive cell.
 

 Routine SETGRP: Setting up the symmetry group for a 
 body centered tetragonal supercell.


 Subroutine GETGRP returns: Found 16 space group operations
 (whereof  8 operations were pure point group operations)
 out of a pool of 16 trial point group operations.


The static configuration has the point symmetry C_4h.
 The point group associated with its full space group is D_4h.


Analysis of symmetry for dynamics (positions and initial velocities):
=====================================================================
 Subroutine PRICEL returns:
 Original cell was already a primitive cell.
 

 Routine SETGRP: Setting up the symmetry group for a 
 body centered tetragonal supercell.


 Subroutine GETGRP returns: Found 16 space group operations
 (whereof  8 operations were pure point group operations)
 out of a pool of 16 trial point group operations.


The dynamic configuration has the point symmetry C_4h.
 The point group associated with its full space group is D_4h.


 Subroutine INISYM returns: Found 16 space group operations
 (whereof  8 operations are pure point group operations),
 and found     1 'primitive' translations


----------------------------------------------------------------------------------------

                                     Primitive cell                                     

  volume of cell :     208.1921

  direct lattice vectors                    reciprocal lattice vectors
     5.731357991  0.000000000 -3.448514158     0.174478719  0.058857324  0.000000000
    -1.831948740  5.430693164 -3.448514158     0.000000000  0.184138557  0.000000000
     0.000000000  0.000000000  6.688850000     0.089954526  0.125279343  0.149502530

  length of vectors
     6.688850000  6.688850000  6.688850000     0.184138557  0.184138557  0.214796967

  position of ions in fractional coordinates (direct lattice)
     0.243010000  0.256990000  0.500000000
     0.756990000  0.743010000  0.500000000
     0.256990000  0.756990000  0.013970000
     0.743010000  0.243010000  0.986030000
     0.000000000  0.000000000  0.500000000
     0.500000000  0.000000000  0.500000000
     0.000000000  0.500000000  0.000000000
     0.000000000  0.500000000  0.500000000
     0.500000000  0.500000000  0.500000000
     0.500000000  0.000000000  0.000000000
     0.250000000  0.250000000  0.000000000
     0.750000000  0.750000000  0.000000000

  ion indices of the primitive-cell ions
   primitive index   ion index
                 1           1
                 2           2
                 3           3
                 4           4
                 5           5
                 6           6
                 7           7
                 8           8
                 9           9
                10          10
                11          11
                12          12

----------------------------------------------------------------------------------------

 
 
 KPOINTS: EA                                      

Automatic generation of k-mesh.
 Grid dimensions read from file:
 generate k-points for:    7    7    8

 Generating k-lattice:

  Cartesian coordinates                     Fractional coordinates (reciprocal lattice)
     0.024925531  0.008408189  0.000000000     0.142857143  0.000000000  0.000000000
     0.000000000  0.026305508  0.000000000     0.000000000  0.142857143  0.000000000
     0.011244316  0.015659918  0.018687816     0.000000000  0.000000000  0.125000000

  Length of vectors
     0.026305508  0.026305508  0.026849621

  Shift w.r.t. Gamma in fractional coordinates (k-lattice)
     0.000000000  0.000000000  0.000000000

 -----------------------------------------------------------------------------
|                                                                             |
|           W    W    AA    RRRRR   N    N  II  N    N   GGGG   !!!           |
|           W    W   A  A   R    R  NN   N  II  NN   N  G    G  !!!           |
|           W    W  A    A  R    R  N N  N  II  N N  N  G       !!!           |
|           W WW W  AAAAAA  RRRRR   N  N N  II  N  N N  G  GGG   !            |
|           WW  WW  A    A  R   R   N   NN  II  N   NN  G    G                |
|           W    W  A    A  R    R  N    N  II  N    N   GGGG   !!!           |
|                                                                             |
|     Your reciprocal lattice and k-lattice belong to different lattice       |
|     classes:                                                                |
|                                                                             |
|        The reciprocal lattice is body-centered tetragonal,                  |
|        whereas your k-lattice is base-centered monoclinic.                  |
|                                                                             |
|     Results are often still useful ...                                      |
|                                                                             |
 -----------------------------------------------------------------------------

 WARNING: IBZKPT: internal override: KBLOWUP is changed to .FALSE.
      ... skipping the blow-up phase ...

 
 Subroutine IBZKPT returns following result:
 ===========================================
 
 Found    116 irreducible k-points:
 
 Following reciprocal coordinates:
            Coordinates               Weight
  0.000000  0.000000  0.000000      1.000000
  0.142857  0.000000  0.000000      4.000000
  0.285714 -0.000000  0.000000      4.000000
  0.428571 -0.000000  0.000000      4.000000
  0.142857  0.142857  0.000000      2.000000
  0.285714  0.142857  0.000000      4.000000
  0.428571  0.142857  0.000000      4.000000
 -0.428571  0.142857  0.000000      4.000000
 -0.285714  0.142857  0.000000      4.000000
 -0.142857  0.142857  0.000000      2.000000
  0.285714  0.285714  0.000000      2.000000
  0.428571  0.285714  0.000000      4.000000
 -0.428571  0.285714  0.000000      4.000000
 -0.285714  0.285714  0.000000      2.000000
  0.428571  0.428571  0.000000      2.000000
 -0.428571  0.428571  0.000000      2.000000
  0.000000  0.000000  0.125000      2.000000
  0.142857  0.000000  0.125000      4.000000
  0.285714  0.000000  0.125000      4.000000
  0.428571 -0.000000  0.125000      4.000000
 -0.428571  0.000000  0.125000      4.000000
 -0.285714  0.000000  0.125000      4.000000
 -0.142857  0.000000  0.125000      4.000000
  0.142857  0.142857  0.125000      2.000000
  0.285714  0.142857  0.125000      4.000000
  0.428571  0.142857  0.125000      4.000000
 -0.428571  0.142857  0.125000      4.000000
 -0.285714  0.142857  0.125000      4.000000
 -0.142857  0.142857  0.125000      4.000000
  0.285714  0.285714  0.125000      2.000000
  0.428571  0.285714  0.125000      4.000000
 -0.428571  0.285714  0.125000      4.000000
 -0.285714  0.285714  0.125000      4.000000
 -0.142857  0.285714  0.125000      4.000000
  0.428571  0.428571  0.125000      2.000000
 -0.428571  0.428571  0.125000      4.000000
 -0.285714  0.428571  0.125000      4.000000
 -0.142857  0.428571  0.125000      4.000000
 -0.428571 -0.428571  0.125000      2.000000
 -0.285714 -0.428571  0.125000      4.000000
 -0.142857 -0.428571  0.125000      4.000000
 -0.285714 -0.285714  0.125000      2.000000
 -0.142857 -0.285714  0.125000      4.000000
 -0.142857 -0.142857  0.125000      2.000000
  0.000000  0.000000  0.250000      2.000000
  0.142857  0.000000  0.250000      4.000000
  0.285714 -0.000000  0.250000      4.000000
  0.428571 -0.000000  0.250000      4.000000
 -0.428571  0.000000  0.250000      4.000000
 -0.285714  0.000000  0.250000      4.000000
 -0.142857  0.000000  0.250000      4.000000
  0.142857  0.142857  0.250000      2.000000
  0.285714  0.142857  0.250000      4.000000
  0.428571  0.142857  0.250000      4.000000
 -0.428571  0.142857  0.250000      4.000000
 -0.285714  0.142857  0.250000      4.000000
 -0.142857  0.142857  0.250000      4.000000
  0.285714  0.285714  0.250000      2.000000
  0.428571  0.285714  0.250000      4.000000
 -0.428571  0.285714  0.250000      4.000000
 -0.285714  0.285714  0.250000      4.000000
 -0.142857  0.285714  0.250000      4.000000
  0.428571  0.428571  0.250000      2.000000
 -0.428571  0.428571  0.250000      4.000000
 -0.285714  0.428571  0.250000      4.000000
 -0.142857  0.428571  0.250000      4.000000
 -0.428571 -0.428571  0.250000      2.000000
 -0.285714 -0.428571  0.250000      4.000000
 -0.142857 -0.428571  0.250000      4.000000
 -0.285714 -0.285714  0.250000      2.000000
 -0.142857 -0.285714  0.250000      4.000000
 -0.142857 -0.142857  0.250000      2.000000
  0.000000  0.000000  0.375000      2.000000
  0.142857  0.000000  0.375000      4.000000
  0.285714  0.000000  0.375000      4.000000
  0.428571  0.000000  0.375000      4.000000
 -0.428571  0.000000  0.375000      4.000000
 -0.285714  0.000000  0.375000      4.000000
 -0.142857  0.000000  0.375000      4.000000
  0.142857  0.142857  0.375000      2.000000
  0.285714  0.142857  0.375000      4.000000
  0.428571  0.142857  0.375000      4.000000
 -0.428571  0.142857  0.375000      4.000000
 -0.285714  0.142857  0.375000      4.000000
 -0.142857  0.142857  0.375000      4.000000
  0.285714  0.285714  0.375000      2.000000
  0.428571  0.285714  0.375000      4.000000
 -0.428571  0.285714  0.375000      4.000000
 -0.285714  0.285714  0.375000      4.000000
 -0.142857  0.285714  0.375000      4.000000
  0.428571  0.428571  0.375000      2.000000
 -0.428571  0.428571  0.375000      4.000000
 -0.285714  0.428571  0.375000      4.000000
 -0.142857  0.428571  0.375000      4.000000
 -0.428571 -0.428571  0.375000      2.000000
 -0.285714 -0.428571  0.375000      4.000000
 -0.142857 -0.428571  0.375000      4.000000
 -0.285714 -0.285714  0.375000      2.000000
 -0.142857 -0.285714  0.375000      4.000000
 -0.142857 -0.142857  0.375000      2.000000
  0.000000  0.000000  0.500000      1.000000
  0.142857 -0.000000  0.500000      4.000000
  0.285714  0.000000  0.500000      4.000000
  0.428571 -0.000000  0.500000      4.000000
  0.142857  0.142857  0.500000      2.000000
  0.285714  0.142857  0.500000      4.000000
  0.428571  0.142857  0.500000      4.000000
 -0.428571  0.142857  0.500000      4.000000
 -0.285714  0.142857  0.500000      4.000000
 -0.142857  0.142857  0.500000      2.000000
  0.285714  0.285714  0.500000      2.000000
  0.428571  0.285714  0.500000      4.000000
 -0.428571  0.285714  0.500000      4.000000
 -0.285714  0.285714  0.500000      2.000000
  0.428571  0.428571  0.500000      2.000000
 -0.428571  0.428571  0.500000      2.000000
 
 Following cartesian coordinates:
            Coordinates               Weight
  0.000000  0.000000  0.000000      1.000000
  0.024926  0.008408  0.000000      4.000000
  0.049851  0.016816  0.000000      4.000000
  0.074777  0.025225  0.000000      4.000000
  0.024926  0.034714  0.000000      2.000000
  0.049851  0.043122  0.000000      4.000000
  0.074777  0.051530  0.000000      4.000000
 -0.074777  0.001081  0.000000      4.000000
 -0.049851  0.009489  0.000000      4.000000
 -0.024926  0.017897  0.000000      2.000000
  0.049851  0.069427  0.000000      2.000000
  0.074777  0.077836  0.000000      4.000000
 -0.074777  0.027386  0.000000      4.000000
 -0.049851  0.035795  0.000000      2.000000
  0.074777  0.104141  0.000000      2.000000
 -0.074777  0.053692  0.000000      2.000000
  0.011244  0.015660  0.018688      2.000000
  0.036170  0.024068  0.018688      4.000000
  0.061095  0.032476  0.018688      4.000000
  0.086021  0.040884  0.018688      4.000000
 -0.063532 -0.009565  0.018688      4.000000
 -0.038607 -0.001156  0.018688      4.000000
 -0.013681  0.007252  0.018688      4.000000
  0.036170  0.050374  0.018688      2.000000
  0.061095  0.058782  0.018688      4.000000
  0.086021  0.067190  0.018688      4.000000
 -0.063532  0.016741  0.018688      4.000000
 -0.038607  0.025149  0.018688      4.000000
 -0.013681  0.033557  0.018688      4.000000
  0.061095  0.085087  0.018688      2.000000
  0.086021  0.093496  0.018688      4.000000
 -0.063532  0.043046  0.018688      4.000000
 -0.038607  0.051455  0.018688      4.000000
 -0.013681  0.059863  0.018688      4.000000
  0.086021  0.119801  0.018688      2.000000
 -0.063532  0.069352  0.018688      4.000000
 -0.038607  0.077760  0.018688      4.000000
 -0.013681  0.086168  0.018688      4.000000
 -0.063532 -0.088481  0.018688      2.000000
 -0.038607 -0.080073  0.018688      4.000000
 -0.013681 -0.071665  0.018688      4.000000
 -0.038607 -0.053767  0.018688      2.000000
 -0.013681 -0.045359  0.018688      4.000000
 -0.013681 -0.019054  0.018688      2.000000
  0.022489  0.031320  0.037376      2.000000
  0.047414  0.039728  0.037376      4.000000
  0.072340  0.048136  0.037376      4.000000
  0.097265  0.056544  0.037376      4.000000
 -0.052288  0.006095  0.037376      4.000000
 -0.027362  0.014503  0.037376      4.000000
 -0.002437  0.022912  0.037376      4.000000
  0.047414  0.066034  0.037376      2.000000
  0.072340  0.074442  0.037376      4.000000
  0.097265  0.082850  0.037376      4.000000
 -0.052288  0.032401  0.037376      4.000000
 -0.027362  0.040809  0.037376      4.000000
 -0.002437  0.049217  0.037376      4.000000
  0.072340  0.100747  0.037376      2.000000
  0.097265  0.109155  0.037376      4.000000
 -0.052288  0.058706  0.037376      4.000000
 -0.027362  0.067114  0.037376      4.000000
 -0.002437  0.075523  0.037376      4.000000
  0.097265  0.135461  0.037376      2.000000
 -0.052288  0.085012  0.037376      4.000000
 -0.027362  0.093420  0.037376      4.000000
 -0.002437  0.101828  0.037376      4.000000
 -0.052288 -0.072821  0.037376      2.000000
 -0.027362 -0.064413  0.037376      4.000000
 -0.002437 -0.056005  0.037376      4.000000
 -0.027362 -0.038108  0.037376      2.000000
 -0.002437 -0.029699  0.037376      4.000000
 -0.002437 -0.003394  0.037376      2.000000
  0.033733  0.046980  0.056063      2.000000
  0.058658  0.055388  0.056063      4.000000
  0.083584  0.063796  0.056063      4.000000
  0.108510  0.072204  0.056063      4.000000
 -0.041044  0.021755  0.056063      4.000000
 -0.016118  0.030163  0.056063      4.000000
  0.008807  0.038572  0.056063      4.000000
  0.058658  0.081693  0.056063      2.000000
  0.083584  0.090102  0.056063      4.000000
  0.108510  0.098510  0.056063      4.000000
 -0.041044  0.048061  0.056063      4.000000
 -0.016118  0.056469  0.056063      4.000000
  0.008807  0.064877  0.056063      4.000000
  0.083584  0.116407  0.056063      2.000000
  0.108510  0.124815  0.056063      4.000000
 -0.041044  0.074366  0.056063      4.000000
 -0.016118  0.082774  0.056063      4.000000
  0.008807  0.091183  0.056063      4.000000
  0.108510  0.151121  0.056063      2.000000
 -0.041044  0.100672  0.056063      4.000000
 -0.016118  0.109080  0.056063      4.000000
  0.008807  0.117488  0.056063      4.000000
 -0.041044 -0.057161  0.056063      2.000000
 -0.016118 -0.048753  0.056063      4.000000
  0.008807 -0.040345  0.056063      4.000000
 -0.016118 -0.022448  0.056063      2.000000
  0.008807 -0.014039  0.056063      4.000000
  0.008807  0.012266  0.056063      2.000000
  0.044977  0.062640  0.074751      1.000000
  0.069903  0.071048  0.074751      4.000000
  0.094828  0.079456  0.074751      4.000000
  0.119754  0.087864  0.074751      4.000000
  0.069903  0.097353  0.074751      2.000000
  0.094828  0.105762  0.074751      4.000000
  0.119754  0.114170  0.074751      4.000000
 -0.029799  0.063721  0.074751      4.000000
 -0.004874  0.072129  0.074751      4.000000
  0.020052  0.080537  0.074751      2.000000
  0.094828  0.132067  0.074751      2.000000
  0.119754  0.140475  0.074751      4.000000
 -0.029799  0.090026  0.074751      4.000000
 -0.004874  0.098434  0.074751      2.000000
  0.119754  0.166781  0.074751      2.000000
 -0.029799  0.116332  0.074751      2.000000
 


--------------------------------------------------------------------------------------------------------




 Dimension of arrays:
   k-points           NKPTS =    116   k-points in BZ     NKDIM =    116   number of bands    NBANDS=     66
   number of dos      NEDOS =    301   number of ions     NIONS =     12
   non local maximal  LDIM  =      6   non local SUM 2l+1 LMDIM =     18
   total plane-waves  NPLWV = 157464
   max r-space proj   IRMAX =      1   max aug-charges    IRDMAX= 264776
   dimension x,y,z NGX =    54 NGY =   54 NGZ =   54
   dimension x,y,z NGXF=   108 NGYF=  108 NGZF=  108
   support grid    NGXF=   216 NGYF=  216 NGZF=  216
   ions per type =               4   6   2
   NGX,Y,Z   is equivalent  to a cutoff of  13.42, 13.42, 13.42 a.u.
   NGXF,Y,Z  is equivalent  to a cutoff of  26.84, 26.84, 26.84 a.u.

 SYSTEM =  routine with relax: pwdword             
 POSCAR =  EA75                                    

 Startparameter for this run:
   NWRITE =      2    write-flag & timer
   PREC   = acc       normal or accurate (medium, high low for compatibility)
   ISTART =      0    job   : 0-new  1-cont  2-samecut
   ICHARG =      2    charge: 1-file 2-atom 10-const
   ISPIN  =      1    spin polarized calculation?
   LNONCOLLINEAR =      F non collinear calculations
   LSORBIT =      F    spin-orbit coupling
   INIWAV =      1    electr: 0-lowe 1-rand  2-diag
   LASPH  =      T    aspherical Exc in radial PAW
   METAGGA=      F    non-selfconsistent MetaGGA calc.

 Electronic Relaxation 1
   ENCUT  =  600.0 eV  44.10 Ry    6.64 a.u.  13.36 13.36 13.36*2*pi/ulx,y,z
   ENINI  =  600.0     initial cutoff
   ENAUG  =  535.5 eV  augmentation charge cutoff
   NELM   =    100;   NELMIN=  6; NELMDL= -5     # of ELM steps 
   EDIFF  = 0.1E-08   stopping-criterion for ELM
   LREAL  =      F    real-space projection
   NLSPLINE    = F    spline interpolate recip. space projectors
   LCOMPAT=      F    compatible to vasp.4.4
   GGA_COMPAT  = T    GGA compatible to vasp.4.4-vasp.4.6
   LMAXPAW     = -100 max onsite density
   LMAXMIX     =    2 max onsite mixed and CHGCAR
   VOSKOWN=      0    Vosko Wilk Nusair interpolation
   ROPT   =    0.00000   0.00000   0.00000
 Ionic relaxation
   EDIFFG = 0.1E-07   stopping-criterion for IOM
   NSW    =      0    number of steps for IOM
   NBLOCK =      1;   KBLOCK =      1    inner block; outer block 
   IBRION =     -1    ionic relax: 0-MD 1-quasi-New 2-CG
   NFREE  =      0    steps in history (QN), initial steepest desc. (CG)
   ISIF   =     -1    stress and relaxation
   IWAVPR =     10    prediction:  0-non 1-charg 2-wave 3-comb
   ISYM   =      2    0-nonsym 1-usesym 2-fastsym
   LCORR  =      T    Harris-Foulkes like correction to forces

   POTIM  = 0.5000    time-step for ionic-motion
   TEIN   =    0.0    initial temperature
   TEBEG  =    0.0;   TEEND  =   0.0 temperature during run
   SMASS  =  -3.00    Nose mass-parameter (am)
   estimated Nose-frequenzy (Omega)   =  0.10E-29 period in steps = 0.13E+47 mass=  -0.102E-26a.u.
   SCALEE = 1.0000    scale energy and forces
   NPACO  =    256;   APACO  = 16.0  distance and # of slots for P.C.
   PSTRESS=    0.0 pullay stress

  Mass of Ions in am
   POMASS =  10.81 95.94 28.09
  Ionic Valenz
   ZVAL   =   3.00 14.00  4.00
  Atomic Wigner-Seitz radii
   RWIGS  =  -1.00 -1.00 -1.00
  virtual crystal weights 
   VCA    =   1.00  1.00  1.00
   NELECT =     104.0000    total number of electrons
   NUPDOWN=      -1.0000    fix difference up-down

 DOS related values:
   EMIN   =  10.00;   EMAX   =-10.00  energy-range for DOS
   EFERMI =   0.00
   ISMEAR =     0;   SIGMA  =   0.02  broadening in eV -4-tet -1-fermi 0-gaus

 Electronic relaxation 2 (details)
   IALGO  =     58    algorithm
   LDIAG  =      T    sub-space diagonalisation (order eigenvalues)
   LSUBROT=      F    optimize rotation matrix (better conditioning)
   TURBO    =      0    0=normal 1=particle mesh
   IRESTART =      0    0=no restart 2=restart with 2 vectors
   NREBOOT  =      0    no. of reboots
   NMIN     =      0    reboot dimension
   EREF     =   0.00    reference energy to select bands
   IMIX   =      4    mixing-type and parameters
     AMIX     =   0.40;   BMIX     =  1.00
     AMIX_MAG =   1.60;   BMIX_MAG =  1.00
     AMIN     =   0.10
     WC   =   100.;   INIMIX=   1;  MIXPRE=   1;  MAXMIX= -45

 Intra band minimization:
   WEIMIN = 0.0000     energy-eigenvalue tresh-hold
   EBREAK =  0.38E-11  absolut break condition
   DEPER  =   0.30     relativ break condition  

   TIME   =   0.40     timestep for ELM

  volume/ion in A,a.u.               =      17.35       117.08
  Fermi-wavevector in a.u.,A,eV,Ry     =   1.298966  2.454690 22.957290  1.687313
  Thomas-Fermi vector in A             =   2.430260
 
 Write flags
   LWAVE        =      T    write WAVECAR
   LDOWNSAMPLE  =      F    k-point downsampling of WAVECAR
   LCHARG       =      T    write CHGCAR
   LVTOT        =      F    write LOCPOT, total local potential
   LVHAR        =      F    write LOCPOT, Hartree potential only
   LELF         =      F    write electronic localiz. function (ELF)
   LORBIT       =      0    0 simple, 1 ext, 2 COOP (PROOUT), +10 PAW based schemes


 Dipole corrections
   LMONO  =      F    monopole corrections only (constant potential shift)
   LDIPOL =      F    correct potential (dipole corrections)
   IDIPOL =      0    1-x, 2-y, 3-z, 4-all directions 
   EPSILON=  1.0000000 bulk dielectric constant

 Exchange correlation treatment:
   GGA     =    --    GGA type
   LEXCH   =     8    internal setting for exchange type
   VOSKOWN=      0    Vosko Wilk Nusair interpolation
   LHFCALC =     F    Hartree Fock is set to
   LHFONE  =     F    Hartree Fock one center treatment
   AEXX    =    0.0000 exact exchange contribution

 Linear response parameters
   LEPSILON=     F    determine dielectric tensor
   LRPA    =     F    only Hartree local field effects (RPA)
   LNABLA  =     F    use nabla operator in PAW spheres
   LVEL    =     F    velocity operator in full k-point grid
   LINTERFAST=   F  fast interpolation
   KINTER  =     0    interpolate to denser k-point grid
   CSHIFT  =0.1000    complex shift for real part using Kramers Kronig
   OMEGAMAX=  -1.0    maximum frequency
   DEG_THRESHOLD= 0.2000000E-02 threshold for treating states as degnerate
   RTIME   =   -0.100 relaxation time in fs
  (WPLASMAI=    0.000 imaginary part of plasma frequency in eV, 0.658/RTIME)
   DFIELD  = 0.0000000 0.0000000 0.0000000 field for delta impulse in time
 
 Orbital magnetization related:
   ORBITALMAG=     F  switch on orbital magnetization
   LCHIMAG   =     F  perturbation theory with respect to B field
   DQ        =  0.001000  dq finite difference perturbation B field
   LLRAUG    =     F  two centre corrections for induced B field



--------------------------------------------------------------------------------------------------------


 Static calculation
 charge density and potential will be updated during run
 non-spin polarized calculation
 Conjugate gradient for all bands (Freysoldt, et al. PRB 79, 241103 (2009))
 preconditioned conjugated gradient                                        
 perform sub-space diagonalisation
    before iterative eigenvector-optimisation
 modified Broyden-mixing scheme, WC =      100.0
 initial mixing is a Kerker type mixing with AMIX =  0.4000 and BMIX =      1.0000
 Hartree-type preconditioning will be used
 using additional bands           14
 reciprocal scheme for non local part
 use partial core corrections
 no Harris-corrections to forces 
 use gradient corrections 
 use of overlap-Matrix (Vanderbilt PP)
 Gauss-broadening in eV      SIGMA  =   0.02


--------------------------------------------------------------------------------------------------------


  energy-cutoff  :      600.00
  volume of cell :      208.19
      direct lattice vectors                 reciprocal lattice vectors
     5.731357991  0.000000000 -3.448514158     0.174478719  0.058857324  0.000000000
    -1.831948740  5.430693164 -3.448514158     0.000000000  0.184138557  0.000000000
     0.000000000  0.000000000  6.688850000     0.089954526  0.125279343  0.149502530

  length of vectors
     6.688850000  6.688850000  6.688850000     0.184138557  0.184138557  0.214796967


 
 k-points in units of 2pi/SCALE and weight: EA                                      
   0.00000000  0.00000000  0.00000000       0.003
   0.02492553  0.00840819  0.00000000       0.010
   0.04985106  0.01681638  0.00000000       0.010
   0.07477659  0.02522457  0.00000000       0.010
   0.02492553  0.03471370  0.00000000       0.005
   0.04985106  0.04312189  0.00000000       0.010
   0.07477659  0.05153008  0.00000000       0.010
  -0.07477659  0.00108094  0.00000000       0.010
  -0.04985106  0.00948913  0.00000000       0.010
  -0.02492553  0.01789732  0.00000000       0.005
   0.04985106  0.06942739  0.00000000       0.005
   0.07477659  0.07783558  0.00000000       0.010
  -0.07477659  0.02738645  0.00000000       0.010
  -0.04985106  0.03579464  0.00000000       0.005
   0.07477659  0.10414109  0.00000000       0.005
  -0.07477659  0.05369196  0.00000000       0.005
   0.01124432  0.01565992  0.01868782       0.005
   0.03616985  0.02406811  0.01868782       0.010
   0.06109538  0.03247630  0.01868782       0.010
   0.08602091  0.04088449  0.01868782       0.010
  -0.06353228 -0.00956465  0.01868782       0.010
  -0.03860675 -0.00115646  0.01868782       0.010
  -0.01368122  0.00725173  0.01868782       0.010
   0.03616985  0.05037362  0.01868782       0.005
   0.06109538  0.05878180  0.01868782       0.010
   0.08602091  0.06718999  0.01868782       0.010
  -0.06353228  0.01674086  0.01868782       0.010
  -0.03860675  0.02514905  0.01868782       0.010
  -0.01368122  0.03355724  0.01868782       0.010
   0.06109538  0.08508731  0.01868782       0.005
   0.08602091  0.09349550  0.01868782       0.010
  -0.06353228  0.04304637  0.01868782       0.010
  -0.03860675  0.05145456  0.01868782       0.010
  -0.01368122  0.05986274  0.01868782       0.010
   0.08602091  0.11980101  0.01868782       0.005
  -0.06353228  0.06935187  0.01868782       0.010
  -0.03860675  0.07776006  0.01868782       0.010
  -0.01368122  0.08616825  0.01868782       0.010
  -0.06353228 -0.08848117  0.01868782       0.005
  -0.03860675 -0.08007298  0.01868782       0.010
  -0.01368122 -0.07166480  0.01868782       0.010
  -0.03860675 -0.05376748  0.01868782       0.005
  -0.01368122 -0.04535929  0.01868782       0.010
  -0.01368122 -0.01905378  0.01868782       0.005
   0.02248863  0.03131984  0.03737563       0.005
   0.04741416  0.03972803  0.03737563       0.010
   0.07233969  0.04813621  0.03737563       0.010
   0.09726523  0.05654440  0.03737563       0.010
  -0.05228796  0.00609527  0.03737563       0.010
  -0.02736243  0.01450346  0.03737563       0.010
  -0.00243690  0.02291165  0.03737563       0.010
   0.04741416  0.06603353  0.03737563       0.005
   0.07233969  0.07444172  0.03737563       0.010
   0.09726523  0.08284991  0.03737563       0.010
  -0.05228796  0.03240078  0.03737563       0.010
  -0.02736243  0.04080897  0.03737563       0.010
  -0.00243690  0.04921715  0.03737563       0.010
   0.07233969  0.10074723  0.03737563       0.005
   0.09726523  0.10915542  0.03737563       0.010
  -0.05228796  0.05870628  0.03737563       0.010
  -0.02736243  0.06711447  0.03737563       0.010
  -0.00243690  0.07552266  0.03737563       0.010
   0.09726523  0.13546093  0.03737563       0.005
  -0.05228796  0.08501179  0.03737563       0.010
  -0.02736243  0.09341998  0.03737563       0.010
  -0.00243690  0.10182817  0.03737563       0.010
  -0.05228796 -0.07282126  0.03737563       0.005
  -0.02736243 -0.06441307  0.03737563       0.010
  -0.00243690 -0.05600488  0.03737563       0.010
  -0.02736243 -0.03810756  0.03737563       0.005
  -0.00243690 -0.02969937  0.03737563       0.010
  -0.00243690 -0.00339386  0.03737563       0.005
   0.03373295  0.04697975  0.05606345       0.005
   0.05865848  0.05538794  0.05606345       0.010
   0.08358401  0.06379613  0.05606345       0.010
   0.10850954  0.07220432  0.05606345       0.010
  -0.04104365  0.02175519  0.05606345       0.010
  -0.01611812  0.03016338  0.05606345       0.010
   0.00880742  0.03857156  0.05606345       0.010
   0.05865848  0.08169345  0.05606345       0.005
   0.08358401  0.09010164  0.05606345       0.010
   0.10850954  0.09850983  0.05606345       0.010
  -0.04104365  0.04806069  0.05606345       0.010
  -0.01611812  0.05646888  0.05606345       0.010
   0.00880742  0.06487707  0.05606345       0.010
   0.08358401  0.11640715  0.05606345       0.005
   0.10850954  0.12481534  0.05606345       0.010
  -0.04104365  0.07436620  0.05606345       0.010
  -0.01611812  0.08277439  0.05606345       0.010
   0.00880742  0.09118258  0.05606345       0.010
   0.10850954  0.15112085  0.05606345       0.005
  -0.04104365  0.10067171  0.05606345       0.010
  -0.01611812  0.10907990  0.05606345       0.010
   0.00880742  0.11748809  0.05606345       0.010
  -0.04104365 -0.05716134  0.05606345       0.005
  -0.01611812 -0.04875315  0.05606345       0.010
   0.00880742 -0.04034496  0.05606345       0.010
  -0.01611812 -0.02244764  0.05606345       0.005
   0.00880742 -0.01403945  0.05606345       0.010
   0.00880742  0.01226606  0.05606345       0.005
   0.04497726  0.06263967  0.07475127       0.003
   0.06990279  0.07104786  0.07475127       0.010
   0.09482833  0.07945605  0.07475127       0.010
   0.11975386  0.08786424  0.07475127       0.010
   0.06990279  0.09735337  0.07475127       0.005
   0.09482833  0.10576156  0.07475127       0.010
   0.11975386  0.11416975  0.07475127       0.010
  -0.02979933  0.06372061  0.07475127       0.010
  -0.00487380  0.07212880  0.07475127       0.010
   0.02005173  0.08053699  0.07475127       0.005
   0.09482833  0.13206707  0.07475127       0.005
   0.11975386  0.14047526  0.07475127       0.010
  -0.02979933  0.09002612  0.07475127       0.010
  -0.00487380  0.09843431  0.07475127       0.005
   0.11975386  0.16678076  0.07475127       0.005
  -0.02979933  0.11633163  0.07475127       0.005
 
 k-points in reciprocal lattice and weights: EA                                      
   0.00000000  0.00000000  0.00000000       0.003
   0.14285714  0.00000000  0.00000000       0.010
   0.28571429 -0.00000000  0.00000000       0.010
   0.42857143 -0.00000000  0.00000000       0.010
   0.14285714  0.14285714  0.00000000       0.005
   0.28571429  0.14285714  0.00000000       0.010
   0.42857143  0.14285714  0.00000000       0.010
  -0.42857143  0.14285714  0.00000000       0.010
  -0.28571429  0.14285714  0.00000000       0.010
  -0.14285714  0.14285714  0.00000000       0.005
   0.28571429  0.28571429  0.00000000       0.005
   0.42857143  0.28571429  0.00000000       0.010
  -0.42857143  0.28571429  0.00000000       0.010
  -0.28571429  0.28571429  0.00000000       0.005
   0.42857143  0.42857143  0.00000000       0.005
  -0.42857143  0.42857143  0.00000000       0.005
   0.00000000  0.00000000  0.12500000       0.005
   0.14285714  0.00000000  0.12500000       0.010
   0.28571429  0.00000000  0.12500000       0.010
   0.42857143 -0.00000000  0.12500000       0.010
  -0.42857143  0.00000000  0.12500000       0.010
  -0.28571429  0.00000000  0.12500000       0.010
  -0.14285714  0.00000000  0.12500000       0.010
   0.14285714  0.14285714  0.12500000       0.005
   0.28571429  0.14285714  0.12500000       0.010
   0.42857143  0.14285714  0.12500000       0.010
  -0.42857143  0.14285714  0.12500000       0.010
  -0.28571429  0.14285714  0.12500000       0.010
  -0.14285714  0.14285714  0.12500000       0.010
   0.28571429  0.28571429  0.12500000       0.005
   0.42857143  0.28571429  0.12500000       0.010
  -0.42857143  0.28571429  0.12500000       0.010
  -0.28571429  0.28571429  0.12500000       0.010
  -0.14285714  0.28571429  0.12500000       0.010
   0.42857143  0.42857143  0.12500000       0.005
  -0.42857143  0.42857143  0.12500000       0.010
  -0.28571429  0.42857143  0.12500000       0.010
  -0.14285714  0.42857143  0.12500000       0.010
  -0.42857143 -0.42857143  0.12500000       0.005
  -0.28571429 -0.42857143  0.12500000       0.010
  -0.14285714 -0.42857143  0.12500000       0.010
  -0.28571429 -0.28571429  0.12500000       0.005
  -0.14285714 -0.28571429  0.12500000       0.010
  -0.14285714 -0.14285714  0.12500000       0.005
   0.00000000  0.00000000  0.25000000       0.005
   0.14285714  0.00000000  0.25000000       0.010
   0.28571429 -0.00000000  0.25000000       0.010
   0.42857143 -0.00000000  0.25000000       0.010
  -0.42857143  0.00000000  0.25000000       0.010
  -0.28571429  0.00000000  0.25000000       0.010
  -0.14285714  0.00000000  0.25000000       0.010
   0.14285714  0.14285714  0.25000000       0.005
   0.28571429  0.14285714  0.25000000       0.010
   0.42857143  0.14285714  0.25000000       0.010
  -0.42857143  0.14285714  0.25000000       0.010
  -0.28571429  0.14285714  0.25000000       0.010
  -0.14285714  0.14285714  0.25000000       0.010
   0.28571429  0.28571429  0.25000000       0.005
   0.42857143  0.28571429  0.25000000       0.010
  -0.42857143  0.28571429  0.25000000       0.010
  -0.28571429  0.28571429  0.25000000       0.010
  -0.14285714  0.28571429  0.25000000       0.010
   0.42857143  0.42857143  0.25000000       0.005
  -0.42857143  0.42857143  0.25000000       0.010
  -0.28571429  0.42857143  0.25000000       0.010
  -0.14285714  0.42857143  0.25000000       0.010
  -0.42857143 -0.42857143  0.25000000       0.005
  -0.28571429 -0.42857143  0.25000000       0.010
  -0.14285714 -0.42857143  0.25000000       0.010
  -0.28571429 -0.28571429  0.25000000       0.005
  -0.14285714 -0.28571429  0.25000000       0.010
  -0.14285714 -0.14285714  0.25000000       0.005
   0.00000000  0.00000000  0.37500000       0.005
   0.14285714  0.00000000  0.37500000       0.010
   0.28571429  0.00000000  0.37500000       0.010
   0.42857143  0.00000000  0.37500000       0.010
  -0.42857143  0.00000000  0.37500000       0.010
  -0.28571429  0.00000000  0.37500000       0.010
  -0.14285714  0.00000000  0.37500000       0.010
   0.14285714  0.14285714  0.37500000       0.005
   0.28571429  0.14285714  0.37500000       0.010
   0.42857143  0.14285714  0.37500000       0.010
  -0.42857143  0.14285714  0.37500000       0.010
  -0.28571429  0.14285714  0.37500000       0.010
  -0.14285714  0.14285714  0.37500000       0.010
   0.28571429  0.28571429  0.37500000       0.005
   0.42857143  0.28571429  0.37500000       0.010
  -0.42857143  0.28571429  0.37500000       0.010
  -0.28571429  0.28571429  0.37500000       0.010
  -0.14285714  0.28571429  0.37500000       0.010
   0.42857143  0.42857143  0.37500000       0.005
  -0.42857143  0.42857143  0.37500000       0.010
  -0.28571429  0.42857143  0.37500000       0.010
  -0.14285714  0.42857143  0.37500000       0.010
  -0.42857143 -0.42857143  0.37500000       0.005
  -0.28571429 -0.42857143  0.37500000       0.010
  -0.14285714 -0.42857143  0.37500000       0.010
  -0.28571429 -0.28571429  0.37500000       0.005
  -0.14285714 -0.28571429  0.37500000       0.010
  -0.14285714 -0.14285714  0.37500000       0.005
   0.00000000  0.00000000  0.50000000       0.003
   0.14285714 -0.00000000  0.50000000       0.010
   0.28571429  0.00000000  0.50000000       0.010
   0.42857143 -0.00000000  0.50000000       0.010
   0.14285714  0.14285714  0.50000000       0.005
   0.28571429  0.14285714  0.50000000       0.010
   0.42857143  0.14285714  0.50000000       0.010
  -0.42857143  0.14285714  0.50000000       0.010
  -0.28571429  0.14285714  0.50000000       0.010
  -0.14285714  0.14285714  0.50000000       0.005
   0.28571429  0.28571429  0.50000000       0.005
   0.42857143  0.28571429  0.50000000       0.010
  -0.42857143  0.28571429  0.50000000       0.010
  -0.28571429  0.28571429  0.50000000       0.005
   0.42857143  0.42857143  0.50000000       0.005
  -0.42857143  0.42857143  0.50000000       0.005
 
 position of ions in fractional coordinates (direct lattice) 
   0.24301000  0.25699000  0.50000000
   0.75699000  0.74301000  0.50000000
   0.25699000  0.75699000  0.01397000
   0.74301000  0.24301000  0.98603000
   0.00000000  0.00000000  0.50000000
   0.50000000  0.00000000  0.50000000
   0.00000000  0.50000000  0.00000000
   0.00000000  0.50000000  0.50000000
   0.50000000  0.50000000  0.50000000
   0.50000000  0.00000000  0.00000000
   0.25000000  0.25000000  0.00000000
   0.75000000  0.75000000  0.00000000
 
 position of ions in cartesian coordinates  (Angst):
   0.92198480  1.39563384  1.62016792
   2.97742445  4.03505933 -1.82834624
   0.08613481  4.11098042 -3.40328115
   3.81327444  1.31971275  3.19510284
   0.00000000  0.00000000  3.34442500
   2.86567900  0.00000000  1.62016792
  -0.91597437  2.71534658 -1.72425708
  -0.91597437  2.71534658  1.62016792
   1.94970463  2.71534658 -0.10408916
   2.86567900  0.00000000 -1.72425708
   0.97485231  1.35767329 -1.72425708
   2.92455694  4.07301987 -5.17277124
 


--------------------------------------------------------------------------------------------------------


 k-point   1 :   0.0000 0.0000 0.0000  plane waves:    6975
 k-point   2 :   0.1429 0.0000 0.0000  plane waves:    6946
 k-point   3 :   0.2857-0.0000 0.0000  plane waves:    6944
 k-point   4 :   0.4286-0.0000 0.0000  plane waves:    6949
 k-point   5 :   0.1429 0.1429 0.0000  plane waves:    6947
 k-point   6 :   0.2857 0.1429 0.0000  plane waves:    6953
 k-point   7 :   0.4286 0.1429 0.0000  plane waves:    6943
 k-point   8 :  -0.4286 0.1429 0.0000  plane waves:    6944
 k-point   9 :  -0.2857 0.1429 0.0000  plane waves:    6951
 k-point  10 :  -0.1429 0.1429 0.0000  plane waves:    6951
 k-point  11 :   0.2857 0.2857 0.0000  plane waves:    6952
 k-point  12 :   0.4286 0.2857 0.0000  plane waves:    6957
 k-point  13 :  -0.4286 0.2857 0.0000  plane waves:    6958
 k-point  14 :  -0.2857 0.2857 0.0000  plane waves:    6959
 k-point  15 :   0.4286 0.4286 0.0000  plane waves:    6958
 k-point  16 :  -0.4286 0.4286 0.0000  plane waves:    6968
 k-point  17 :   0.0000 0.0000 0.1250  plane waves:    6953
 k-point  18 :   0.1429 0.0000 0.1250  plane waves:    6951
 k-point  19 :   0.2857 0.0000 0.1250  plane waves:    6952
 k-point  20 :   0.4286-0.0000 0.1250  plane waves:    6942
 k-point  21 :  -0.4286 0.0000 0.1250  plane waves:    6951
 k-point  22 :  -0.2857 0.0000 0.1250  plane waves:    6947
 k-point  23 :  -0.1429 0.0000 0.1250  plane waves:    6946
 k-point  24 :   0.1429 0.1429 0.1250  plane waves:    6973
 k-point  25 :   0.2857 0.1429 0.1250  plane waves:    6963
 k-point  26 :   0.4286 0.1429 0.1250  plane waves:    6964
 k-point  27 :  -0.4286 0.1429 0.1250  plane waves:    6974
 k-point  28 :  -0.2857 0.1429 0.1250  plane waves:    6953
 k-point  29 :  -0.1429 0.1429 0.1250  plane waves:    6941
 k-point  30 :   0.2857 0.2857 0.1250  plane waves:    6955
 k-point  31 :   0.4286 0.2857 0.1250  plane waves:    6957
 k-point  32 :  -0.4286 0.2857 0.1250  plane waves:    6967
 k-point  33 :  -0.2857 0.2857 0.1250  plane waves:    6940
 k-point  34 :  -0.1429 0.2857 0.1250  plane waves:    6945
 k-point  35 :   0.4286 0.4286 0.1250  plane waves:    6958
 k-point  36 :  -0.4286 0.4286 0.1250  plane waves:    6950
 k-point  37 :  -0.2857 0.4286 0.1250  plane waves:    6952
 k-point  38 :  -0.1429 0.4286 0.1250  plane waves:    6940
 k-point  39 :  -0.4286-0.4286 0.1250  plane waves:    6924
 k-point  40 :  -0.2857-0.4286 0.1250  plane waves:    6941
 k-point  41 :  -0.1429-0.4286 0.1250  plane waves:    6948
 k-point  42 :  -0.2857-0.2857 0.1250  plane waves:    6946
 k-point  43 :  -0.1429-0.2857 0.1250  plane waves:    6942
 k-point  44 :  -0.1429-0.1429 0.1250  plane waves:    6947
 k-point  45 :   0.0000 0.0000 0.2500  plane waves:    6955
 k-point  46 :   0.1429 0.0000 0.2500  plane waves:    6957
 k-point  47 :   0.2857-0.0000 0.2500  plane waves:    6958
 k-point  48 :   0.4286-0.0000 0.2500  plane waves:    6942
 k-point  49 :  -0.4286 0.0000 0.2500  plane waves:    6957
 k-point  50 :  -0.2857 0.0000 0.2500  plane waves:    6943
 k-point  51 :  -0.1429 0.0000 0.2500  plane waves:    6948
 k-point  52 :   0.1429 0.1429 0.2500  plane waves:    6969
 k-point  53 :   0.2857 0.1429 0.2500  plane waves:    6944
 k-point  54 :   0.4286 0.1429 0.2500  plane waves:    6956
 k-point  55 :  -0.4286 0.1429 0.2500  plane waves:    6957
 k-point  56 :  -0.2857 0.1429 0.2500  plane waves:    6949
 k-point  57 :  -0.1429 0.1429 0.2500  plane waves:    6948
 k-point  58 :   0.2857 0.2857 0.2500  plane waves:    6960
 k-point  59 :   0.4286 0.2857 0.2500  plane waves:    6961
 k-point  60 :  -0.4286 0.2857 0.2500  plane waves:    6952
 k-point  61 :  -0.2857 0.2857 0.2500  plane waves:    6937
 k-point  62 :  -0.1429 0.2857 0.2500  plane waves:    6942
 k-point  63 :   0.4286 0.4286 0.2500  plane waves:    6937
 k-point  64 :  -0.4286 0.4286 0.2500  plane waves:    6935
 k-point  65 :  -0.2857 0.4286 0.2500  plane waves:    6937
 k-point  66 :  -0.1429 0.4286 0.2500  plane waves:    6934
 k-point  67 :  -0.4286-0.4286 0.2500  plane waves:    6923
 k-point  68 :  -0.2857-0.4286 0.2500  plane waves:    6932
 k-point  69 :  -0.1429-0.4286 0.2500  plane waves:    6944
 k-point  70 :  -0.2857-0.2857 0.2500  plane waves:    6967
 k-point  71 :  -0.1429-0.2857 0.2500  plane waves:    6955
 k-point  72 :  -0.1429-0.1429 0.2500  plane waves:    6946
 k-point  73 :   0.0000 0.0000 0.3750  plane waves:    6946
 k-point  74 :   0.1429 0.0000 0.3750  plane waves:    6960
 k-point  75 :   0.2857 0.0000 0.3750  plane waves:    6951
 k-point  76 :   0.4286 0.0000 0.3750  plane waves:    6944
 k-point  77 :  -0.4286 0.0000 0.3750  plane waves:    6945
 k-point  78 :  -0.2857 0.0000 0.3750  plane waves:    6951
 k-point  79 :  -0.1429 0.0000 0.3750  plane waves:    6960
 k-point  80 :   0.1429 0.1429 0.3750  plane waves:    6954
 k-point  81 :   0.2857 0.1429 0.3750  plane waves:    6952
 k-point  82 :   0.4286 0.1429 0.3750  plane waves:    6950
 k-point  83 :  -0.4286 0.1429 0.3750  plane waves:    6937
 k-point  84 :  -0.2857 0.1429 0.3750  plane waves:    6939
 k-point  85 :  -0.1429 0.1429 0.3750  plane waves:    6952
 k-point  86 :   0.2857 0.2857 0.3750  plane waves:    6944
 k-point  87 :   0.4286 0.2857 0.3750  plane waves:    6936
 k-point  88 :  -0.4286 0.2857 0.3750  plane waves:    6942
 k-point  89 :  -0.2857 0.2857 0.3750  plane waves:    6937
 k-point  90 :  -0.1429 0.2857 0.3750  plane waves:    6930
 k-point  91 :   0.4286 0.4286 0.3750  plane waves:    6922
 k-point  92 :  -0.4286 0.4286 0.3750  plane waves:    6948
 k-point  93 :  -0.2857 0.4286 0.3750  plane waves:    6930
 k-point  94 :  -0.1429 0.4286 0.3750  plane waves:    6932
 k-point  95 :  -0.4286-0.4286 0.3750  plane waves:    6950
 k-point  96 :  -0.2857-0.4286 0.3750  plane waves:    6943
 k-point  97 :  -0.1429-0.4286 0.3750  plane waves:    6945
 k-point  98 :  -0.2857-0.2857 0.3750  plane waves:    6953
 k-point  99 :  -0.1429-0.2857 0.3750  plane waves:    6936
 k-point 100 :  -0.1429-0.1429 0.3750  plane waves:    6972
 k-point 101 :   0.0000 0.0000 0.5000  plane waves:    6966
 k-point 102 :   0.1429-0.0000 0.5000  plane waves:    6961
 k-point 103 :   0.2857 0.0000 0.5000  plane waves:    6952
 k-point 104 :   0.4286-0.0000 0.5000  plane waves:    6946
 k-point 105 :   0.1429 0.1429 0.5000  plane waves:    6961
 k-point 106 :   0.2857 0.1429 0.5000  plane waves:    6960
 k-point 107 :   0.4286 0.1429 0.5000  plane waves:    6937
 k-point 108 :  -0.4286 0.1429 0.5000  plane waves:    6943
 k-point 109 :  -0.2857 0.1429 0.5000  plane waves:    6935
 k-point 110 :  -0.1429 0.1429 0.5000  plane waves:    6948
 k-point 111 :   0.2857 0.2857 0.5000  plane waves:    6942
 k-point 112 :   0.4286 0.2857 0.5000  plane waves:    6936
 k-point 113 :  -0.4286 0.2857 0.5000  plane waves:    6939
 k-point 114 :  -0.2857 0.2857 0.5000  plane waves:    6930
 k-point 115 :   0.4286 0.4286 0.5000  plane waves:    6942
 k-point 116 :  -0.4286 0.4286 0.5000  plane waves:    6946

 maximum and minimum number of plane-waves per node :      3497     3456

 maximum number of plane-waves:      6975
 maximum index in each direction: 
   IXMAX=   13   IYMAX=   13   IZMAX=   13
   IXMIN=  -13   IYMIN=  -13   IZMIN=  -13


 parallel 3D FFT for wavefunctions:
    minimum data exchange during FFTs selected (reduces bandwidth)
 parallel 3D FFT for charge:
    minimum data exchange during FFTs selected (reduces bandwidth)


 total amount of memory used by VASP MPI-rank0   456207. kBytes
=======================================================================

   base      :      30000. kBytes
   nonl-proj :     175963. kBytes
   fftplans  :      17772. kBytes
   grid      :      13358. kBytes
   one-center:         93. kBytes
   wavefun   :     219021. kBytes
 
     INWAV:  cpu time    0.0001: real time    0.0001
 Broyden mixing: mesh for mixing (old mesh)
   NGX = 27   NGY = 27   NGZ = 27
  (NGX  =108   NGY  =108   NGZ  =108)
  gives a total of  19683 points

 initial charge density was supplied:
 charge density of overlapping atoms calculated
 number of electron     104.0000000 magnetization 
 keeping initial charge density in first step


--------------------------------------------------------------------------------------------------------


 Maximum index for augmentation-charges        21531 (set IRDMAX)


--------------------------------------------------------------------------------------------------------


 First call to EWALD:  gamma=   0.299
 Maximum number of real-space cells 3x 3x 3
 Maximum number of reciprocal cells 3x 3x 3

    FEWALD:  cpu time    0.0313: real time    0.0317


--------------------------------------- Iteration      1(   1)  ---------------------------------------


    POTLOK:  cpu time    0.2359: real time    0.2377
    SETDIJ:  cpu time    0.6648: real time    0.6696
    TRIAL :  cpu time   34.7425: real time   35.0885
    CORREC:  cpu time    0.0023: real time    0.0023
    --------------------------------------------
      LOOP:  cpu time   35.7781: real time   36.1470

 eigenvalue-minimisations  : 16560
 total energy-change (2. order) : 0.1001579E+04  (-0.6908162E+04)
 number of electron     104.0000000 magnetization 
 augmentation part      104.0000000 magnetization 

 Free energy of the ion-electron system (eV)
  ---------------------------------------------------
  alpha Z        PSCENC =       448.76439764
  Ewald energy   TEWEN  =     -8460.98455511
  -Hartree energ DENC   =     -2937.33495032
  -exchange      EXHF   =         0.00000000
  -V(xc)+E(xc)   XCENC  =       474.04216074
  PAW double counting   =      9250.47132855    -9210.50234729
  entropy T*S    EENTRO =        -0.00073761
  eigenvalues    EBANDS =      -227.38324466
  atomic energy  EATOM  =     11664.50664672
  ---------------------------------------------------
  free energy    TOTEN  =      1001.57869867 eV

  energy without entropy =     1001.57943628  energy(sigma->0) =     1001.57906748


--------------------------------------------------------------------------------------------------------




--------------------------------------- Iteration      1(   2)  ---------------------------------------


    TRIAL :  cpu time   40.4820: real time   40.8718
    CORREC:  cpu time    0.0021: real time    0.0021
    --------------------------------------------
      LOOP:  cpu time   40.4869: real time   40.8775

 eigenvalue-minimisations  : 17352
 total energy-change (2. order) :-0.1188590E+04  (-0.1162365E+04)
 number of electron     104.0000000 magnetization 
 augmentation part      104.0000000 magnetization 

 Free energy of the ion-electron system (eV)
  ---------------------------------------------------
  alpha Z        PSCENC =       448.76439764
  Ewald energy   TEWEN  =     -8460.98455511
  -Hartree energ DENC   =     -2937.33495032
  -exchange      EXHF   =         0.00000000
  -V(xc)+E(xc)   XCENC  =       474.04216074
  PAW double counting   =      9250.47132855    -9210.50234729
  entropy T*S    EENTRO =        -0.00167070
  eigenvalues    EBANDS =     -1415.97216061
  atomic energy  EATOM  =     11664.50664672
  ---------------------------------------------------
  free energy    TOTEN  =      -187.01115037 eV

  energy without entropy =     -187.00947967  energy(sigma->0) =     -187.01031502


--------------------------------------------------------------------------------------------------------




--------------------------------------- Iteration      1(   3)  ---------------------------------------


    TRIAL :  cpu time   45.6490: real time   46.1001
    CORREC:  cpu time    0.0022: real time    0.0022
    --------------------------------------------
      LOOP:  cpu time   45.6538: real time   46.1051

 eigenvalue-minimisations  : 20736
 total energy-change (2. order) :-0.4792143E+02  (-0.4642382E+02)
 number of electron     104.0000000 magnetization 
 augmentation part      104.0000000 magnetization 

 Free energy of the ion-electron system (eV)
  ---------------------------------------------------
  alpha Z        PSCENC =       448.76439764
  Ewald energy   TEWEN  =     -8460.98455511
  -Hartree energ DENC   =     -2937.33495032
  -exchange      EXHF   =         0.00000000
  -V(xc)+E(xc)   XCENC  =       474.04216074
  PAW double counting   =      9250.47132855    -9210.50234729
  entropy T*S    EENTRO =        -0.00248414
  eigenvalues    EBANDS =     -1463.89277390
  atomic energy  EATOM  =     11664.50664672
  ---------------------------------------------------
  free energy    TOTEN  =      -234.93257709 eV

  energy without entropy =     -234.93009295  energy(sigma->0) =     -234.93133502


--------------------------------------------------------------------------------------------------------




--------------------------------------- Iteration      1(   4)  ---------------------------------------


    TRIAL :  cpu time   42.3233: real time   42.8123
    CORREC:  cpu time    0.0021: real time    0.0022
    --------------------------------------------
      LOOP:  cpu time   42.3282: real time   42.8177

 eigenvalue-minimisations  : 18768
 total energy-change (2. order) :-0.1148040E+01  (-0.1134556E+01)
 number of electron     104.0000000 magnetization 
 augmentation part      104.0000000 magnetization 

 Free energy of the ion-electron system (eV)
  ---------------------------------------------------
  alpha Z        PSCENC =       448.76439764
  Ewald energy   TEWEN  =     -8460.98455511
  -Hartree energ DENC   =     -2937.33495032
  -exchange      EXHF   =         0.00000000
  -V(xc)+E(xc)   XCENC  =       474.04216074
  PAW double counting   =      9250.47132855    -9210.50234729
  entropy T*S    EENTRO =        -0.00288656
  eigenvalues    EBANDS =     -1465.04041135
  atomic energy  EATOM  =     11664.50664672
  ---------------------------------------------------
  free energy    TOTEN  =      -236.08061697 eV

  energy without entropy =     -236.07773041  energy(sigma->0) =     -236.07917369


--------------------------------------------------------------------------------------------------------




--------------------------------------- Iteration      1(   5)  ---------------------------------------


    TRIAL :  cpu time   43.9837: real time   44.3977
    CORREC:  cpu time    0.0021: real time    0.0021
    CHARGE:  cpu time    2.8788: real time    2.9006
    --------------------------------------------
      LOOP:  cpu time   46.8671: real time   47.3034

 eigenvalue-minimisations  : 19926
 total energy-change (2. order) :-0.2866430E-01  (-0.2858156E-01)
 number of electron     104.0000001 magnetization 
 augmentation part       11.6525738 magnetization 

 Free energy of the ion-electron system (eV)
  ---------------------------------------------------
  alpha Z        PSCENC =       448.76439764
  Ewald energy   TEWEN  =     -8460.98455511
  -Hartree energ DENC   =     -2937.33495032
  -exchange      EXHF   =         0.00000000
  -V(xc)+E(xc)   XCENC  =       474.04216074
  PAW double counting   =      9250.47132855    -9210.50234729
  entropy T*S    EENTRO =        -0.00287928
  eigenvalues    EBANDS =     -1465.06908293
  atomic energy  EATOM  =     11664.50664672
  ---------------------------------------------------
  free energy    TOTEN  =      -236.10928127 eV

  energy without entropy =     -236.10640199  energy(sigma->0) =     -236.10784163


--------------------------------------------------------------------------------------------------------




--------------------------------------- Iteration      1(   6)  ---------------------------------------


    POTLOK:  cpu time    0.2073: real time    0.2086
    SETDIJ:  cpu time    0.6266: real time    0.6312
    TRIAL :  cpu time   29.0601: real time   29.4307
    CORREC:  cpu time   10.6834: real time   10.7731
    CHARGE:  cpu time    2.7452: real time    2.7673
    --------------------------------------------
      LOOP:  cpu time   43.3643: real time   43.8532

 eigenvalue-minimisations  :     0
 total energy-change (2. order) : 0.7375754E+02  (-0.2218557E+02)
 number of electron     104.0000001 magnetization 
 augmentation part       14.1086776 magnetization 

 Free energy of the ion-electron system (eV)
  ---------------------------------------------------
  alpha Z        PSCENC =       448.76439764
  Ewald energy   TEWEN  =     -8460.98455511
  -Hartree energ DENC   =     -2368.94725049
  -exchange      EXHF   =         0.00000000
  -V(xc)+E(xc)   XCENC  =       463.64518764
  PAW double counting   =     11449.25148973   -11456.69491507
  entropy T*S    EENTRO =        -0.00323337
  eigenvalues    EBANDS =     -1901.88985809
  atomic energy  EATOM  =     11664.50664672
  ---------------------------------------------------
  free energy    TOTEN  =      -162.35173630 eV

  energy without entropy =     -162.34850293  energy(sigma->0) =     -162.35011962


--------------------------------------------------------------------------------------------------------




--------------------------------------- Iteration      1(   7)  ---------------------------------------


    POTLOK:  cpu time    0.1457: real time    0.1467
    SETDIJ:  cpu time    0.6370: real time    0.6417
    TRIAL :  cpu time   36.4234: real time   36.7397
    CORREC:  cpu time   11.8965: real time   11.9908
    CHARGE:  cpu time    2.4539: real time    2.4728
    --------------------------------------------
      LOOP:  cpu time   51.5570: real time   51.9949

 eigenvalue-minimisations  :     0
 total energy-change (2. order) :-0.2226770E+02  (-0.3806282E+01)
 number of electron     104.0000001 magnetization 
 augmentation part       14.0931626 magnetization 

 Free energy of the ion-electron system (eV)
  ---------------------------------------------------
  alpha Z        PSCENC =       448.76439764
  Ewald energy   TEWEN  =     -8460.98455511
  -Hartree energ DENC   =     -2687.19980059
  -exchange      EXHF   =         0.00000000
  -V(xc)+E(xc)   XCENC  =       477.12464522
  PAW double counting   =     11114.44907571   -11104.43807704
  entropy T*S    EENTRO =        -0.00256941
  eigenvalues    EBANDS =     -1636.83853587
  atomic energy  EATOM  =     11664.50664672
  ---------------------------------------------------
  free energy    TOTEN  =      -184.61943668 eV

  energy without entropy =     -184.61686728  energy(sigma->0) =     -184.61815198


--------------------------------------------------------------------------------------------------------




--------------------------------------- Iteration      1(   8)  ---------------------------------------


    POTLOK:  cpu time    0.1372: real time    0.1381
    SETDIJ:  cpu time    1.5635: real time    1.5736
    TRIAL :  cpu time   36.5179: real time   36.9390
    CORREC:  cpu time   10.1691: real time   10.2539
    CHARGE:  cpu time    3.9709: real time    4.0087
    --------------------------------------------
      LOOP:  cpu time   52.3704: real time   52.9266

 eigenvalue-minimisations  :     0
 total energy-change (2. order) :-0.3787795E+01  (-0.1092534E+01)
 number of electron     104.0000001 magnetization 
 augmentation part       14.0217901 magnetization 

 Free energy of the ion-electron system (eV)
  ---------------------------------------------------
  alpha Z        PSCENC =       448.76439764
  Ewald energy   TEWEN  =     -8460.98455511
  -Hartree energ DENC   =     -2755.55203669
  -exchange      EXHF   =         0.00000000
  -V(xc)+E(xc)   XCENC  =       479.71495255
  PAW double counting   =     11055.11815251   -11040.31615670
  entropy T*S    EENTRO =        -0.00250479
  eigenvalues    EBANDS =     -1579.65606326
  atomic energy  EATOM  =     11664.50664672
  ---------------------------------------------------
  free energy    TOTEN  =      -188.40723174 eV

  energy without entropy =     -188.40472695  energy(sigma->0) =     -188.40597935


--------------------------------------------------------------------------------------------------------




--------------------------------------- Iteration      1(   9)  ---------------------------------------


    POTLOK:  cpu time    0.1449: real time    0.1461
    SETDIJ:  cpu time    1.1520: real time    1.1601
    TRIAL :  cpu time   37.7771: real time   38.1387
    CORREC:  cpu time   12.2609: real time   12.3579
    CHARGE:  cpu time    2.4442: real time    2.4639
    --------------------------------------------
      LOOP:  cpu time   53.7878: real time   54.2765

 eigenvalue-minimisations  :     0
 total energy-change (2. order) :-0.1092345E+01  (-0.3432235E+00)
 number of electron     104.0000001 magnetization 
 augmentation part       14.0339575 magnetization 

 Free energy of the ion-electron system (eV)
  ---------------------------------------------------
  alpha Z        PSCENC =       448.76439764
  Ewald energy   TEWEN  =     -8460.98455511
  -Hartree energ DENC   =     -2764.16137696
  -exchange      EXHF   =         0.00000000
  -V(xc)+E(xc)   XCENC  =       480.06416653
  PAW double counting   =     11061.90409634   -11044.07729078
  entropy T*S    EENTRO =        -0.00287150
  eigenvalues    EBANDS =     -1575.51315660
  atomic energy  EATOM  =     11664.50664672
  ---------------------------------------------------
  free energy    TOTEN  =      -189.49957701 eV

  energy without entropy =     -189.49670550  energy(sigma->0) =     -189.49814125


--------------------------------------------------------------------------------------------------------




--------------------------------------- Iteration      1(  10)  ---------------------------------------


    POTLOK:  cpu time    0.1473: real time    0.1482
    SETDIJ:  cpu time    1.1860: real time    1.1952
    TRIAL :  cpu time   36.9765: real time   37.2926
    CORREC:  cpu time   13.0109: real time   13.1186
    CHARGE:  cpu time    3.3380: real time    3.3640
    --------------------------------------------
      LOOP:  cpu time   54.6596: real time   55.1206

 eigenvalue-minimisations  :     0
 total energy-change (2. order) :-0.3433379E+00  (-0.1505965E+00)
 number of electron     104.0000001 magnetization 
 augmentation part       14.0452275 magnetization 

 Free energy of the ion-electron system (eV)
  ---------------------------------------------------
  alpha Z        PSCENC =       448.76439764
  Ewald energy   TEWEN  =     -8460.98455511
  -Hartree energ DENC   =     -2767.82051607
  -exchange      EXHF   =         0.00000000
  -V(xc)+E(xc)   XCENC  =       480.35894049
  PAW double counting   =     11083.50808087   -11063.87494213
  entropy T*S    EENTRO =        -0.00300005
  eigenvalues    EBANDS =     -1574.29809584
  atomic energy  EATOM  =     11664.50664672
  ---------------------------------------------------
  free energy    TOTEN  =      -189.84291493 eV

  energy without entropy =     -189.83991489  energy(sigma->0) =     -189.84141491


--------------------------------------------------------------------------------------------------------




--------------------------------------- Iteration      1(  11)  ---------------------------------------


    POTLOK:  cpu time    0.1408: real time    0.1418
    SETDIJ:  cpu time    0.6466: real time    0.6515
[...]
     58       7.4276      0.00000
     59       8.1573      0.00000
     60       8.2468      0.00000
     61       8.5360      0.00000
     62       8.5761      0.00000
     63       9.0363      0.00000
     64       9.3273      0.00000
     65       9.5276      0.00000
     66       9.9440      0.00000

 k-point   110 :      -0.1429    0.1429    0.5000
  band No.  band energies     occupation 
      1     -56.5671      2.00000
      2     -56.5658      2.00000
      3     -56.3284      2.00000
      4     -56.3227      2.00000
      5     -56.3220      2.00000
      6     -56.3168      2.00000
      7     -29.9257      2.00000
      8     -29.9063      2.00000
      9     -29.9053      2.00000
     10     -29.8975      2.00000
     11     -29.8797      2.00000
     12     -29.8428      2.00000
     13     -29.8324      2.00000
     14     -29.8300      2.00000
     15     -29.8216      2.00000
     16     -29.7790      2.00000
     17     -29.6909      2.00000
     18     -29.6881      2.00000
     19     -29.6634      2.00000
     20     -29.6611      2.00000
     21     -29.6003      2.00000
     22     -29.5593      2.00000
     23     -29.5448      2.00000
     24     -29.5216      2.00000
     25      -2.0191      2.00000
     26      -1.9995      2.00000
     27      -1.1833      2.00000
     28      -0.7278      2.00000
     29       0.2788      2.00000
     30       0.4262      2.00000
     31       2.2030      2.00000
     32       2.6476      2.00000
     33       2.8295      2.00000
     34       2.9110      2.00000
     35       3.2280      2.00000
     36       3.3248      2.00000
     37       3.3730      2.00000
     38       3.6213      2.00000
     39       3.8498      2.00000
     40       4.2032      2.00000
     41       4.3554      2.00000
     42       4.6060      2.00000
     43       4.8060      2.00000
     44       4.9270      2.00000
     45       5.0074      2.00000
     46       5.0632      2.00000
     47       5.1138      2.00000
     48       5.2504      2.00000
     49       5.2698      2.00000
     50       5.5792      2.00000
     51       5.9512      2.00000
     52       6.3405      0.00799
     53       6.3558      0.00019
     54       6.4042      0.00000
     55       6.5895      0.00000
     56       6.9574      0.00000
     57       7.0549      0.00000
     58       7.4584      0.00000
     59       8.2286      0.00000
     60       8.4297      0.00000
     61       8.5101      0.00000
     62       8.7627      0.00000
     63       8.8050      0.00000
     64       9.2296      0.00000
     65       9.5153      0.00000
     66      10.0982      0.00000

 k-point   111 :       0.2857    0.2857    0.5000
  band No.  band energies     occupation 
      1     -56.5671      2.00000
      2     -56.5659      2.00000
      3     -56.3328      2.00000
      4     -56.3225      2.00000
      5     -56.3223      2.00000
      6     -56.3123      2.00000
      7     -29.9286      2.00000
      8     -29.9153      2.00000
      9     -29.9131      2.00000
     10     -29.9084      2.00000
     11     -29.9033      2.00000
     12     -29.8430      2.00000
     13     -29.8369      2.00000
     14     -29.8304      2.00000
     15     -29.8293      2.00000
     16     -29.7398      2.00000
     17     -29.6799      2.00000
     18     -29.6775      2.00000
     19     -29.6752      2.00000
     20     -29.6702      2.00000
     21     -29.6153      2.00000
     22     -29.5451      2.00000
     23     -29.5425      2.00000
     24     -29.4932      2.00000
     25      -2.7972      2.00000
     26      -1.3485      2.00000
     27      -1.0143      2.00000
     28      -0.5211      2.00000
     29       0.1273      2.00000
     30       0.3801      2.00000
     31       2.0214      2.00000
     32       2.2241      2.00000
     33       2.9448      2.00000
     34       3.0399      2.00000
     35       3.1323      2.00000
     36       3.5499      2.00000
     37       3.7731      2.00000
     38       3.8739      2.00000
     39       3.9718      2.00000
     40       4.0287      2.00000
     41       4.1741      2.00000
     42       4.2034      2.00000
     43       4.3811      2.00000
     44       4.6370      2.00000
     45       5.0029      2.00000
     46       5.0364      2.00000
     47       5.5697      2.00000
     48       5.6782      2.00000
     49       5.7158      2.00000
     50       5.7515      2.00000
     51       5.9556      2.00000
     52       6.1569      2.00000
     53       6.4267      0.00000
     54       6.6144      0.00000
     55       6.6763      0.00000
     56       6.7442      0.00000
     57       7.3545      0.00000
     58       7.4733      0.00000
     59       7.9985      0.00000
     60       8.0848      0.00000
     61       8.1371      0.00000
     62       8.5089      0.00000
     63       8.9485      0.00000
     64       9.1567      0.00000
     65       9.7295      0.00000
     66       9.7417      0.00000

 k-point   112 :       0.4286    0.2857    0.5000
  band No.  band energies     occupation 
      1     -56.5670      2.00000
      2     -56.5658      2.00000
      3     -56.3342      2.00000
      4     -56.3236      2.00000
      5     -56.3211      2.00000
      6     -56.3111      2.00000
      7     -29.9402      2.00000
      8     -29.9104      2.00000
      9     -29.9090      2.00000
     10     -29.9040      2.00000
     11     -29.9006      2.00000
     12     -29.8547      2.00000
     13     -29.8322      2.00000
     14     -29.8231      2.00000
     15     -29.8219      2.00000
     16     -29.7292      2.00000
     17     -29.6897      2.00000
     18     -29.6814      2.00000
     19     -29.6803      2.00000
     20     -29.6702      2.00000
     21     -29.6320      2.00000
     22     -29.5491      2.00000
     23     -29.5344      2.00000
     24     -29.4846      2.00000
     25      -2.8112      2.00000
     26      -1.2665      2.00000
     27      -1.1644      2.00000
     28      -0.3264      2.00000
     29       0.1007      2.00000
     30       0.3140      2.00000
     31       2.0586      2.00000
     32       2.1830      2.00000
     33       2.9411      2.00000
     34       2.9906      2.00000
     35       3.0914      2.00000
     36       3.5175      2.00000
     37       3.7453      2.00000
     38       3.8559      2.00000
     39       4.0142      2.00000
     40       4.0838      2.00000
     41       4.2652      2.00000
     42       4.3353      2.00000
     43       4.3757      2.00000
     44       4.7211      2.00000
     45       5.0128      2.00000
     46       5.1764      2.00000
     47       5.2812      2.00000
     48       5.3893      2.00000
     49       5.6679      2.00000
     50       5.9842      2.00000
     51       6.0304      2.00000
     52       6.1095      2.00000
     53       6.3554      0.00021
     54       6.4751      0.00000
     55       6.7188      0.00000
     56       6.8687      0.00000
     57       7.3569      0.00000
     58       7.5087      0.00000
     59       7.8514      0.00000
     60       8.2257      0.00000
     61       8.4400      0.00000
     62       8.4920      0.00000
     63       8.6385      0.00000
     64       9.1349      0.00000
     65       9.9554      0.00000
     66      10.1737      0.00000

 k-point   113 :      -0.4286    0.2857    0.5000
  band No.  band energies     occupation 
      1     -56.5670      2.00000
      2     -56.5658      2.00000
      3     -56.3343      2.00000
      4     -56.3236      2.00000
      5     -56.3211      2.00000
      6     -56.3111      2.00000
      7     -29.9402      2.00000
      8     -29.9089      2.00000
      9     -29.9041      2.00000
     10     -29.8998      2.00000
     11     -29.8983      2.00000
     12     -29.8571      2.00000
     13     -29.8334      2.00000
     14     -29.8179      2.00000
     15     -29.8151      2.00000
     16     -29.7292      2.00000
     17     -29.6971      2.00000
     18     -29.6853      2.00000
     19     -29.6812      2.00000
     20     -29.6701      2.00000
     21     -29.6400      2.00000
     22     -29.5499      2.00000
     23     -29.5354      2.00000
     24     -29.4845      2.00000
     25      -2.7031      2.00000
     26      -1.3321      2.00000
     27      -1.2191      2.00000
     28      -0.4189      2.00000
     29       0.0392      2.00000
     30       0.4611      2.00000
     31       2.0880      2.00000
     32       2.2419      2.00000
     33       2.8332      2.00000
     34       3.1615      2.00000
     35       3.2172      2.00000
     36       3.4181      2.00000
     37       3.7984      2.00000
     38       3.8164      2.00000
     39       3.8721      2.00000
     40       4.0216      2.00000
     41       4.3748      2.00000
     42       4.5431      2.00000
     43       4.5792      2.00000
     44       4.7047      2.00000
     45       4.9165      2.00000
     46       4.9915      2.00000
     47       5.2237      2.00000
     48       5.2664      2.00000
     49       5.5203      2.00000
     50       5.9401      2.00000
     51       6.0438      2.00000
     52       6.1142      2.00000
     53       6.2800      1.89537
     54       6.3961      0.00000
     55       6.6867      0.00000
     56       6.9555      0.00000
     57       7.3233      0.00000
     58       7.4569      0.00000
     59       7.8858      0.00000
     60       8.4409      0.00000
     61       8.4904      0.00000
     62       8.5889      0.00000
     63       8.7049      0.00000
     64       9.1739      0.00000
     65       9.3203      0.00000
     66      10.0696      0.00000

 k-point   114 :      -0.2857    0.2857    0.5000
  band No.  band energies     occupation 
      1     -56.5670      2.00000
      2     -56.5658      2.00000
      3     -56.3331      2.00000
      4     -56.3225      2.00000
      5     -56.3221      2.00000
      6     -56.3124      2.00000
      7     -29.9285      2.00000
      8     -29.9137      2.00000
      9     -29.9016      2.00000
     10     -29.9012      2.00000
     11     -29.8957      2.00000
     12     -29.8476      2.00000
     13     -29.8401      2.00000
     14     -29.8208      2.00000
     15     -29.8137      2.00000
     16     -29.7398      2.00000
     17     -29.6971      2.00000
     18     -29.6881      2.00000
     19     -29.6752      2.00000
     20     -29.6680      2.00000
     21     -29.6338      2.00000
     22     -29.5487      2.00000
     23     -29.5423      2.00000
     24     -29.4927      2.00000
     25      -2.5119      2.00000
     26      -1.5174      2.00000
     27      -1.1314      2.00000
     28      -0.7975      2.00000
     29       0.2275      2.00000
     30       0.5139      2.00000
     31       2.0699      2.00000
     32       2.5426      2.00000
     33       2.8075      2.00000
     34       3.2033      2.00000
     35       3.2674      2.00000
     36       3.2998      2.00000
     37       3.5443      2.00000
     38       3.7985      2.00000
     39       4.0812      2.00000
     40       4.1693      2.00000
     41       4.2220      2.00000
     42       4.6667      2.00000
     43       4.7204      2.00000
     44       4.7531      2.00000
     45       4.8226      2.00000
     46       4.9762      2.00000
     47       5.1846      2.00000
     48       5.1890      2.00000
     49       5.3321      2.00000
     50       5.4679      2.00000
     51       6.0244      2.00000
     52       6.2493      1.99985
     53       6.3304      0.05261
     54       6.3330      0.03402
     55       6.7996      0.00000
     56       6.8612      0.00000
     57       7.2227      0.00000
     58       7.4361      0.00000
     59       8.1597      0.00000
     60       8.5823      0.00000
     61       8.6072      0.00000
     62       8.7136      0.00000
     63       8.7773      0.00000
     64       9.2941      0.00000
     65       9.4543      0.00000
     66       9.6297      0.00000

 k-point   115 :       0.4286    0.4286    0.5000
  band No.  band energies     occupation 
      1     -56.5669      2.00000
      2     -56.5657      2.00000
      3     -56.3356      2.00000
      4     -56.3223      2.00000
      5     -56.3223      2.00000
      6     -56.3099      2.00000
      7     -29.9518      2.00000
      8     -29.9046      2.00000
      9     -29.9044      2.00000
     10     -29.8986      2.00000
     11     -29.8964      2.00000
     12     -29.8479      2.00000
     13     -29.8470      2.00000
     14     -29.8141      2.00000
     15     -29.8126      2.00000
     16     -29.7184      2.00000
     17     -29.7012      2.00000
     18     -29.6863      2.00000
     19     -29.6851      2.00000
     20     -29.6719      2.00000
     21     -29.6500      2.00000
     22     -29.5404      2.00000
     23     -29.5396      2.00000
     24     -29.4770      2.00000
     25      -2.8660      2.00000
     26      -1.3392      2.00000
     27      -0.8114      2.00000
     28      -0.3579      2.00000
     29      -0.0766      2.00000
     30       0.4330      2.00000
     31       1.9907      2.00000
     32       2.0470      2.00000
     33       2.8277      2.00000
     34       2.8919      2.00000
     35       3.1216      2.00000
     36       3.5329      2.00000
     37       3.7137      2.00000
     38       3.7782      2.00000
     39       4.0065      2.00000
     40       4.0680      2.00000
     41       4.3079      2.00000
     42       4.5124      2.00000
     43       4.5434      2.00000
     44       4.7301      2.00000
     45       5.0825      2.00000
     46       5.1934      2.00000
     47       5.2353      2.00000
     48       5.2953      2.00000
     49       5.9696      2.00000
     50       5.9713      2.00000
     51       6.0046      2.00000
     52       6.0233      2.00000
     53       6.3561      0.00017
     54       6.4649      0.00000
     55       6.4856      0.00000
     56       7.0614      0.00000
     57       7.4679      0.00000
     58       7.4781      0.00000
     59       7.6868      0.00000
     60       8.0678      0.00000
     61       8.6911      0.00000
     62       8.7104      0.00000
     63       8.8996      0.00000
     64       8.9085      0.00000
     65       9.1269      0.00000
     66      10.4514      0.00000

 k-point   116 :      -0.4286    0.4286    0.5000
  band No.  band energies     occupation 
      1     -56.5669      2.00000
      2     -56.5657      2.00000
      3     -56.3357      2.00000
      4     -56.3224      2.00000
      5     -56.3223      2.00000
      6     -56.3099      2.00000
      7     -29.9518      2.00000
      8     -29.9044      2.00000
      9     -29.9018      2.00000
     10     -29.8961      2.00000
     11     -29.8961      2.00000
     12     -29.8489      2.00000
     13     -29.8477      2.00000
     14     -29.8107      2.00000
     15     -29.8094      2.00000
     16     -29.7184      2.00000
     17     -29.7050      2.00000
     18     -29.6880      2.00000
     19     -29.6862      2.00000
     20     -29.6722      2.00000
     21     -29.6532      2.00000
     22     -29.5408      2.00000
     23     -29.5400      2.00000
     24     -29.4770      2.00000
     25      -2.8243      2.00000
     26      -1.3629      2.00000
     27      -0.8322      2.00000
     28      -0.3928      2.00000
     29      -0.1055      2.00000
     30       0.4918      2.00000
     31       1.9960      2.00000
     32       2.0567      2.00000
     33       2.7777      2.00000
     34       2.9354      2.00000
     35       3.2748      2.00000
     36       3.5491      2.00000
     37       3.6947      2.00000
     38       3.7622      2.00000
     39       3.9479      2.00000
     40       4.0141      2.00000
     41       4.3633      2.00000
     42       4.5259      2.00000
     43       4.6247      2.00000
     44       4.6320      2.00000
     45       5.0714      2.00000
     46       5.1319      2.00000
     47       5.2307      2.00000
     48       5.3217      2.00000
     49       5.9483      2.00000
     50       5.9552      2.00000
     51       5.9853      2.00000
     52       5.9943      2.00000
     53       6.3447      0.00318
     54       6.4373      0.00000
     55       6.4553      0.00000
     56       7.0926      0.00000
     57       7.4356      0.00000
     58       7.4666      0.00000
     59       7.6869      0.00000
     60       8.0079      0.00000
     61       8.8364      0.00000
     62       8.8818      0.00000
     63       8.9330      0.00000
     64       8.9682      0.00000
     65       9.1419      0.00000
     66      10.4006      0.00000


--------------------------------------------------------------------------------------------------------


 soft charge-density along one line, spin component           1
         0         1         2         3         4         5         6         7         8         9
 total charge-density along one line
 
 pseudopotential strength for first ion, spin component:           1
  6.108   9.270  -0.000   0.000   0.000  -0.001   0.000   0.001
  9.270  14.062  -0.001   0.000   0.001  -0.002   0.000   0.002
 -0.000  -0.001  -2.066  -0.005  -0.002  -3.469  -0.006  -0.001
  0.000   0.000  -0.005  -2.067  -0.003  -0.006  -3.469  -0.005
  0.000   0.001  -0.002  -0.003  -2.065  -0.001  -0.005  -3.468
 -0.001  -0.002  -3.469  -0.006  -0.001  -5.614  -0.008  -0.000
  0.000   0.000  -0.006  -3.469  -0.005  -0.008  -5.614  -0.005
  0.001   0.002  -0.001  -0.005  -3.468  -0.000  -0.005  -5.614
 total augmentation occupancy for first ion, spin component:           1
  2.855  -0.522   0.042   0.000  -0.058  -0.012   0.000   0.017
 -0.522   0.105  -0.009  -0.000   0.013   0.003   0.000  -0.004
  0.042  -0.009   1.630  -0.463  -0.325  -0.366   0.103   0.071
  0.000   0.000  -0.463   1.432  -0.332   0.103  -0.323   0.074
 -0.058   0.013  -0.325  -0.332   1.850   0.071   0.074  -0.414
 -0.012   0.003  -0.366   0.103   0.071   0.084  -0.023  -0.016
  0.000   0.000   0.103  -0.323   0.074  -0.023   0.074  -0.017
  0.017  -0.004   0.071   0.074  -0.414  -0.016  -0.017   0.095


------------------------ aborting loop because EDIFF is reached ----------------------------------------




--------------------------------------------------------------------------------------------------------



  FREE ENERGIE OF THE ION-ELECTRON SYSTEM (eV)
  ---------------------------------------------------
  free  energy   TOTEN  =      -190.12425014 eV

  energy  without entropy=     -190.12132851  energy(sigma->0) =     -190.12278932
 


--------------------------------------------------------------------------------------------------------


    POTLOK:  cpu time    0.8281: real time    0.8349


--------------------------------------------------------------------------------------------------------


 writing wavefunctions
     LOOP+:  cpu time 1876.8380: real time 1894.3904
    4ORBIT:  cpu time    0.0000: real time    0.0000

 total amount of memory used by VASP MPI-rank0   456207. kBytes
=======================================================================

   base      :      30000. kBytes
   nonl-proj :     175963. kBytes
   fftplans  :      17772. kBytes
   grid      :      13358. kBytes
   one-center:         93. kBytes
   wavefun   :     219021. kBytes
 
  
  
 General timing and accounting informations for this job:
 ========================================================
  
                  Total CPU time used (sec):     1888.205
                            User time (sec):     1865.980
                          System time (sec):       22.224
                         Elapsed time (sec):     1913.717
  
                   Maximum memory used (kb):      660948.
                   Average memory used (kb):          N/A
  
                          Minor page faults:      2723203
                          Major page faults:           37
                 Voluntary context switches:        14167
