 vasp.6.2.0 18Jan21 (build Jan 05 2022 15:41:44) complex                        
  
 executed on             LinuxIFC date 2025.05.07  20:23:56
 running on   24 total cores
 distrk:  each k-point on   12 cores,    2 groups
 distr:  one band on NCORE=   2 cores,    6 groups


--------------------------------------------------------------------------------------------------------


 INCAR:
   SYSTEM = routine with relax: pwdword
   ICHARG = 2
   NPAR = 6
   KPAR = 2
   NCORE = 2
   ADDGRID = T
   PREC = Acc
   ENCUT = 600
   METAGGA = R2SCAN
   LASPH = .TRUE.
   LMIXTAU = .FALSE.
   ALGO = A
   EDIFF = 1E-9
   NELM = 100
   NELMIN = 6
   IALGO = 38
   LREAL = F
   NSW = 0
   ISIF = -1
   ISMEAR = 0
   SIGMA = 0.02
   SYMPREC = 1E-4

 POTCAR:    PAW_PBE B 06Sep2000                   
 POTCAR:    PAW_PBE Mo_sv 02Feb2006               
 POTCAR:    PAW_PBE Si 05Jan2001                  
 -----------------------------------------------------------------------------
|                                                                             |
|           W    W    AA    RRRRR   N    N  II  N    N   GGGG   !!!           |
|           W    W   A  A   R    R  NN   N  II  NN   N  G    G  !!!           |
|           W    W  A    A  R    R  N N  N  II  N N  N  G       !!!           |
|           W WW W  AAAAAA  RRRRR   N  N N  II  N  N N  G  GGG   !            |
|           WW  WW  A    A  R   R   N   NN  II  N   NN  G    G                |
|           W    W  A    A  R    R  N    N  II  N    N   GGGG   !!!           |
|                                                                             |
|     For optimal performance we recommend to set                             |
|       NCORE = 2 up to number-of-cores-per-socket                            |
|     NCORE specifies how many cores store one orbital (NPAR=cpu/NCORE).      |
|     This setting can greatly improve the performance of VASP for DFT.       |
|     The default, NCORE=1 might be grossly inefficient on modern             |
|     multi-core architectures or massively parallel machines. Do your        |
|     own testing! More info at https://www.vasp.at/wiki/index.php/NCORE      |
|     Unfortunately you need to use the default for GW and RPA                |
|     calculations (for HF NCORE is supported but not extensively tested      |
|     yet).                                                                   |
|                                                                             |
 -----------------------------------------------------------------------------

 POTCAR:    PAW_PBE B 06Sep2000                   
   VRHFIN =B: s2p1                                                                                  
   LEXCH  = PE                                                                                      
   EATOM  =    71.1703 eV,    5.2309 Ry                                                             
                                                                                                    
   TITEL  = PAW_PBE B 06Sep2000                                                                     
   LULTRA =        F    use ultrasoft PP ?                                                          
   IUNSCR =        1    unscreen: 0-lin 1-nonlin 2-no                                               
   RPACOR =    1.200    partial core radius                                                         
   POMASS =   10.811; ZVAL   =    3.000    mass and valenz                                          
   RCORE  =    1.700    outmost cutoff radius                                                       
   RWIGS  =    1.710; RWIGS  =    0.905    wigner-seitz radius (au A)                               
   ENMAX  =  318.614; ENMIN  =  238.960 eV                                                          
   ICORE  =        2    local potential                                                             
   LCOR   =        T    correct aug charges                                                         
   LPAW   =        T    paw PP                                                                      
   EAUG   =  535.514                                                                                
   DEXC   =    0.000                                                                                
   RMAX   =    1.732    core radius for proj-oper                                                   
   RAUG   =    1.300    factor for augmentation sphere                                              
   RDEP   =    1.757    radius for radial grids                                                     
   RDEPT  =    1.436    core radius for aug-charge                                                  
                                                                                                    
   Atomic configuration                                                                             
    4 entries                                                                                       
     n  l   j            E        occ.                                                              
     1  0  0.50      -180.5896   2.0000                                                             
     2  0  0.50        -9.4431   2.0000                                                             
     2  1  0.50        -3.6068   1.0000                                                             
     3  2  1.50        -4.0817   0.0000                                                             
   Description                                                                                      
     l       E           TYP  RCUT    TYP  RCUT                                                     
     0     -9.4430752     23  1.500                                                                 
     0      0.8675899     23  1.500                                                                 
     1     -3.6067955     23  1.700                                                                 
     1      6.1086146     23  1.700                                                                 
     2     -4.0817478      7  1.700                                                                 
  local pseudopotential read in
  partial core-charges read in
  partial kinetic energy density read in
  atomic valenz-charges read in
  non local Contribution for L=           0  read in
    real space projection operators read in
  non local Contribution for L=           0  read in
    real space projection operators read in
  non local Contribution for L=           1  read in
    real space projection operators read in
  non local Contribution for L=           1  read in
    real space projection operators read in
    PAW grid and wavefunctions read in
 
   number of l-projection  operators is LMAX  =           4
   number of lm-projection operators is LMMAX =           8
 
 POTCAR:    PAW_PBE Mo_sv 02Feb2006               
   VRHFIN =Mo: 4p5s4d                                                                               
   LEXCH  = PE                                                                                      
   EATOM  =  1862.2866 eV,  136.8742 Ry                                                             
                                                                                                    
   TITEL  = PAW_PBE Mo_sv 02Feb2006                                                                 
   LULTRA =        F    use ultrasoft PP ?                                                          
   IUNSCR =        1    unscreen: 0-lin 1-nonlin 2-no                                               
   RPACOR =    2.200    partial core radius                                                         
   POMASS =   95.940; ZVAL   =   14.000    mass and valenz                                          
   RCORE  =    2.500    outmost cutoff radius                                                       
   RWIGS  =    2.750; RWIGS  =    1.455    wigner-seitz radius (au A)                               
   ENMAX  =  242.676; ENMIN  =  182.007 eV                                                          
   ICORE  =        3    local potential                                                             
   LCOR   =        T    correct aug charges                                                         
   LPAW   =        T    paw PP                                                                      
   EAUG   =  446.014                                                                                
   DEXC   =    0.000                                                                                
   RMAX   =    2.563    core radius for proj-oper                                                   
   RAUG   =    1.300    factor for augmentation sphere                                              
   RDEP   =    2.641    radius for radial grids                                                     
   RDEPT  =    2.031    core radius for aug-charge                                                  
                                                                                                    
   Atomic configuration                                                                             
   11 entries                                                                                       
     n  l   j            E        occ.                                                              
     1  0  0.50    -19819.0341   2.0000                                                             
     2  0  0.50     -2799.0127   2.0000                                                             
     2  1  1.50     -2502.0276   6.0000                                                             
     3  0  0.50      -476.4449   2.0000                                                             
     3  1  1.50      -379.1496   6.0000                                                             
     3  2  2.50      -220.9367  10.0000                                                             
     4  0  0.50       -64.3378   2.0000                                                             
     5  0  0.50        -4.0862   1.0000                                                             
     4  1  1.50       -38.4773   6.0000                                                             
     4  2  2.50        -3.7535   5.0000                                                             
     4  3  2.50        -1.3606   0.0000                                                             
   Description                                                                                      
     l       E           TYP  RCUT    TYP  RCUT                                                     
     0    -64.3377829     23  2.100                                                                 
     0     -4.0861640     23  2.400                                                                 
     1    -38.4772993     23  2.100                                                                 
     1     13.6058260     23  2.100                                                                 
     2     -3.7534941     23  2.400                                                                 
     2     -5.1140767     23  2.400                                                                 
     3     -4.0817478     23  2.500                                                                 
  local pseudopotential read in
  partial core-charges read in
  partial kinetic energy density read in
  atomic valenz-charges read in
  non local Contribution for L=           0  read in
    real space projection operators read in
  non local Contribution for L=           0  read in
    real space projection operators read in
  non local Contribution for L=           1  read in
    real space projection operators read in
  non local Contribution for L=           1  read in
    real space projection operators read in
  non local Contribution for L=           2  read in
    real space projection operators read in
  non local Contribution for L=           2  read in
    real space projection operators read in
    PAW grid and wavefunctions read in
 
   number of l-projection  operators is LMAX  =           6
   number of lm-projection operators is LMMAX =          18
 
 POTCAR:    PAW_PBE Si 05Jan2001                  
   VRHFIN =Si: s2p2                                                                                 
   LEXCH  = PE                                                                                      
   EATOM  =   103.0669 eV,    7.5752 Ry                                                             
                                                                                                    
   TITEL  = PAW_PBE Si 05Jan2001                                                                    
   LULTRA =        F    use ultrasoft PP ?                                                          
   IUNSCR =        1    unscreen: 0-lin 1-nonlin 2-no                                               
   RPACOR =    1.500    partial core radius                                                         
   POMASS =   28.085; ZVAL   =    4.000    mass and valenz                                          
   RCORE  =    1.900    outmost cutoff radius                                                       
   RWIGS  =    2.480; RWIGS  =    1.312    wigner-seitz radius (au A)                               
   ENMAX  =  245.345; ENMIN  =  184.009 eV                                                          
   ICORE  =        2    local potential                                                             
   LCOR   =        T    correct aug charges                                                         
   LPAW   =        T    paw PP                                                                      
   EAUG   =  322.069                                                                                
   DEXC   =    0.000                                                                                
   RMAX   =    1.950    core radius for proj-oper                                                   
   RAUG   =    1.300    factor for augmentation sphere                                              
   RDEP   =    1.993    radius for radial grids                                                     
   RDEPT  =    1.837    core radius for aug-charge                                                  
                                                                                                    
   Atomic configuration                                                                             
    6 entries                                                                                       
     n  l   j            E        occ.                                                              
     1  0  0.50     -1785.8828   2.0000                                                             
     2  0  0.50      -139.4969   2.0000                                                             
     2  1  1.50       -95.5546   6.0000                                                             
     3  0  0.50       -10.8127   2.0000                                                             
     3  1  0.50        -4.0811   2.0000                                                             
     3  2  1.50        -4.0817   0.0000                                                             
   Description                                                                                      
     l       E           TYP  RCUT    TYP  RCUT                                                     
     0    -10.8127223     23  1.900                                                                 
     0     -7.6451159     23  1.900                                                                 
     1     -4.0811372     23  1.900                                                                 
     1      2.4879257     23  1.900                                                                 
     2     -4.0817478      7  1.900                                                                 
  local pseudopotential read in
  partial core-charges read in
  partial kinetic energy density read in
  atomic valenz-charges read in
  non local Contribution for L=           0  read in
    real space projection operators read in
  non local Contribution for L=           0  read in
    real space projection operators read in
  non local Contribution for L=           1  read in
    real space projection operators read in
  non local Contribution for L=           1  read in
    real space projection operators read in
    PAW grid and wavefunctions read in
 
   number of l-projection  operators is LMAX  =           4
   number of lm-projection operators is LMMAX =           8
 
 -----------------------------------------------------------------------------
|                                                                             |
|               ----> ADVICE to this user running VASP <----                  |
|                                                                             |
|     You have a (more or less) 'large supercell' and for larger cells it     |
|     might be more efficient to use real-space projection operators.         |
|     Therefore, try LREAL= Auto in the INCAR file.                           |
|     Mind: For very accurate calculation, you might also keep the            |
|     reciprocal projection scheme (i.e. LREAL=.FALSE.).                      |
|                                                                             |
 -----------------------------------------------------------------------------

  PAW_PBE B 06Sep2000                   :
 energy of atom  1       EATOM=  -71.1703
 kinetic energy error for atom=    0.0007 (will be added to EATOM!!)
  PAW_PBE Mo_sv 02Feb2006               :
 energy of atom  2       EATOM=-1862.2866
 kinetic energy error for atom=    0.0041 (will be added to EATOM!!)
  PAW_PBE Si 05Jan2001                  :
 energy of atom  3       EATOM= -103.0669
 kinetic energy error for atom=    0.0003 (will be added to EATOM!!)
 
 
 POSCAR: EA193
  positions in direct lattice
  No initial velocities read in

 METAGGA = R2SCA    LMAXTAU =  6    LMIXTAU =  F

 exchange correlation table for  LEXCH =        8
   RHO(1)=    0.500       N(1)  =     2000
   RHO(2)=  100.500       N(2)  =     4000
 


--------------------------------------------------------------------------------------------------------


 ion  position               nearest neighbor table
   1  0.500  0.000  0.000-   5 1.38  12 1.38  17 2.46  18 2.46
   2  0.000  0.500  0.000-   6 1.38   8 1.38  17 2.46  18 2.46
   3  0.500  0.500  0.500-   9 1.38  16 1.38  18 2.46  17 2.46
   4  0.000  0.000  0.500-  11 1.38  14 1.38  17 2.46  18 2.46
   5  0.526  0.026  0.211-   1 1.38  15 2.36  14 2.72   9 2.72  12 2.77  18 2.82  17 2.82   8 2.85
                            10 3.24  13 3.24
   6  0.185  0.685  0.211-   2 1.38  15 2.36  11 2.72  16 2.72   8 2.77  17 2.82  18 2.82  12 2.85
                            13 3.24  10 3.24
   7  0.780  0.280  0.059-   8 2.36  12 2.36  16 3.24  11 3.24   9 3.24  14 3.24
   8  0.815  0.315  0.789-   2 1.38   7 2.36   9 2.72  14 2.72   6 2.77  17 2.82  18 2.82   5 2.85
                            13 3.24  10 3.24
   9  0.685  0.474  0.500-   3 1.38  13 2.36   5 2.72   8 2.72  16 2.77  17 2.82  18 2.82  14 2.85
                            15 3.24   7 3.24
  10  0.280  0.220  0.500-  14 2.36  16 2.36   8 3.24   6 3.24  12 3.24   5 3.24
  11  0.026  0.815  0.500-   4 1.38  13 2.36  12 2.72   6 2.72  14 2.77  17 2.82  18 2.82  16 2.85
                             7 3.24  15 3.24
  12  0.474  0.974  0.789-   1 1.38   7 2.36  11 2.72  16 2.72   5 2.77  17 2.82  18 2.82   6 2.85
                            10 3.24  13 3.24
  13  0.720  0.780  0.500-   9 2.36  11 2.36   8 3.24   6 3.24  12 3.24   5 3.24
  14  0.974  0.185  0.500-   4 1.38  10 2.36   5 2.72   8 2.72  11 2.77  18 2.82  17 2.82   9 2.85
                            15 3.24   7 3.24
  15  0.220  0.720  0.941-   6 2.36   5 2.36   9 3.24  14 3.24  11 3.24  16 3.24
  16  0.315  0.526  0.500-   3 1.38  10 2.36  12 2.72   6 2.72   9 2.77  18 2.82  17 2.82  11 2.85
                             7 3.24  15 3.24
  17  0.250  0.250  0.000-   3 2.46   4 2.46   1 2.46   2 2.46   9 2.82  11 2.82  16 2.82  14 2.82
                             8 2.82   6 2.82  12 2.82   5 2.82
  18  0.750  0.750  0.000-   4 2.46   3 2.46   1 2.46   2 2.46  14 2.82  16 2.82   9 2.82  11 2.82
                             8 2.82   6 2.82   5 2.82  12 2.82
 
 -----------------------------------------------------------------------------
|                                                                             |
|           W    W    AA    RRRRR   N    N  II  N    N   GGGG   !!!           |
|           W    W   A  A   R    R  NN   N  II  NN   N  G    G  !!!           |
|           W    W  A    A  R    R  N N  N  II  N N  N  G       !!!           |
|           W WW W  AAAAAA  RRRRR   N  N N  II  N  N N  G  GGG   !            |
|           WW  WW  A    A  R   R   N   NN  II  N   NN  G    G                |
|           W    W  A    A  R    R  N    N  II  N    N   GGGG   !!!           |
|                                                                             |
|     The distance between some ions is very small. Please check the          |
|     nearest-neighbor list in the OUTCAR file.                               |
|     I HOPE YOU KNOW WHAT YOU ARE DOING!                                     |
|                                                                             |
 -----------------------------------------------------------------------------

  LATTYP: Found a body centered tetragonal cell.
 ALAT       =     6.9661484205
 C/A-ratio  =     1.6409395690
  
  Lattice vectors:
  
 A1 = (   6.1794981777,   0.0000000000,  -4.3295034166)
 A2 = (  -1.6734676220,   5.9485883911,  -4.3295034166)
 A3 = (   0.0000000000,   0.0000000000,   7.5452500000)


Analysis of symmetry for initial positions (statically):
=====================================================================
 Subroutine PRICEL returns:
 Original cell was already a primitive cell.
 

 Routine SETGRP: Setting up the symmetry group for a 
 body centered tetragonal supercell.


 Subroutine GETGRP returns: Found 16 space group operations
 (whereof  8 operations were pure point group operations)
 out of a pool of 16 trial point group operations.


The static configuration has the point symmetry C_4h.
 The point group associated with its full space group is D_4h.


Analysis of symmetry for dynamics (positions and initial velocities):
=====================================================================
 Subroutine PRICEL returns:
 Original cell was already a primitive cell.
 

 Routine SETGRP: Setting up the symmetry group for a 
 body centered tetragonal supercell.


 Subroutine GETGRP returns: Found 16 space group operations
 (whereof  8 operations were pure point group operations)
 out of a pool of 16 trial point group operations.


The dynamic configuration has the point symmetry C_4h.
 The point group associated with its full space group is D_4h.


 Subroutine INISYM returns: Found 16 space group operations
 (whereof  8 operations are pure point group operations),
 and found     1 'primitive' translations


----------------------------------------------------------------------------------------

                                     Primitive cell                                     

  volume of cell :     277.3580

  direct lattice vectors                    reciprocal lattice vectors
     6.179498178  0.000000000 -4.329503417     0.161825438  0.045525024  0.000000000
    -1.673467622  5.948588391 -4.329503417     0.000000000  0.168107109  0.000000000
     0.000000000  0.000000000  7.545250000     0.092856272  0.122583222  0.132533713

  length of vectors
     7.545250000  7.545250000  7.545250000     0.168107109  0.168107109  0.203012607

  position of ions in fractional coordinates (direct lattice)
     0.500000000  0.000000000  0.000000000
     1.000000000  0.500000000  0.000000000
     0.500000000  0.500000000  0.500000000
     0.000000000  0.000000000  0.500000000
     0.525770000  0.025770000  0.211090000
     0.185320000  0.685320000  0.211090000
     0.779750000  0.279750000  0.059490000
     0.814680000  0.314680000  0.788910000
     0.685320000  0.474230000  0.500000000
     0.279750000  0.220250000  0.500000000
     0.025770000  0.814680000  0.500000000
     0.474230000  0.974230000  0.788910000
     0.720250000  0.779750000  0.500000000
     0.974230000  0.185320000  0.500000000
     0.220250000  0.720250000  0.940510000
     0.314680000  0.525770000  0.500000000
     0.250000000  0.250000000  0.000000000
     0.750000000  0.750000000  0.000000000

  ion indices of the primitive-cell ions
   primitive index   ion index
                 1           1
                 2           2
                 3           3
                 4           4
                 5           5
                 6           6
                 7           7
                 8           8
                 9           9
                10          10
                11          11
                12          12
                13          13
                14          14
                15          15
                16          16
                17          17
                18          18

----------------------------------------------------------------------------------------

 
 
 KPOINTS: EA                                      

Automatic generation of k-mesh.
 Grid dimensions read from file:
 generate k-points for:    6    6    7

 Generating k-lattice:

  Cartesian coordinates                     Fractional coordinates (reciprocal lattice)
     0.026970906  0.007587504  0.000000000     0.166666667  0.000000000  0.000000000
     0.000000000  0.028017852  0.000000000     0.000000000  0.166666667  0.000000000
     0.013265182  0.017511889  0.018933388     0.000000000  0.000000000  0.142857143

  Length of vectors
     0.028017852  0.028017852  0.029001801

  Shift w.r.t. Gamma in fractional coordinates (k-lattice)
     0.000000000  0.000000000  0.000000000

 -----------------------------------------------------------------------------
|                                                                             |
|           W    W    AA    RRRRR   N    N  II  N    N   GGGG   !!!           |
|           W    W   A  A   R    R  NN   N  II  NN   N  G    G  !!!           |
|           W    W  A    A  R    R  N N  N  II  N N  N  G       !!!           |
|           W WW W  AAAAAA  RRRRR   N  N N  II  N  N N  G  GGG   !            |
|           WW  WW  A    A  R   R   N   NN  II  N   NN  G    G                |
|           W    W  A    A  R    R  N    N  II  N    N   GGGG   !!!           |
|                                                                             |
|     Your reciprocal lattice and k-lattice belong to different lattice       |
|     classes:                                                                |
|                                                                             |
|        The reciprocal lattice is body-centered tetragonal,                  |
|        whereas your k-lattice is base-centered monoclinic.                  |
|                                                                             |
|     Results are often still useful ...                                      |
|                                                                             |
 -----------------------------------------------------------------------------

 WARNING: IBZKPT: internal override: KBLOWUP is changed to .FALSE.
      ... skipping the blow-up phase ...

 
 Subroutine IBZKPT returns following result:
 ===========================================
 
 Found     76 irreducible k-points:
 
 Following reciprocal coordinates:
            Coordinates               Weight
  0.000000  0.000000  0.000000      1.000000
  0.166667 -0.000000  0.000000      4.000000
  0.333333 -0.000000  0.000000      4.000000
  0.500000 -0.000000  0.000000      2.000000
  0.166667  0.166667  0.000000      2.000000
  0.333333  0.166667  0.000000      4.000000
  0.500000  0.166667  0.000000      4.000000
 -0.333333  0.166667  0.000000      4.000000
 -0.166667  0.166667  0.000000      2.000000
  0.333333  0.333333  0.000000      2.000000
  0.500000  0.333333  0.000000      4.000000
 -0.333333  0.333333  0.000000      2.000000
  0.500000  0.500000  0.000000      1.000000
  0.000000  0.000000  0.142857      2.000000
  0.166667  0.000000  0.142857      4.000000
  0.333333  0.000000  0.142857      4.000000
  0.500000  0.000000  0.142857      4.000000
 -0.333333  0.000000  0.142857      4.000000
 -0.166667  0.000000  0.142857      4.000000
  0.166667  0.166667  0.142857      2.000000
  0.333333  0.166667  0.142857      4.000000
  0.500000  0.166667  0.142857      4.000000
 -0.333333  0.166667  0.142857      4.000000
 -0.166667  0.166667  0.142857      4.000000
  0.333333  0.333333  0.142857      2.000000
  0.500000  0.333333  0.142857      4.000000
 -0.333333  0.333333  0.142857      4.000000
 -0.166667  0.333333  0.142857      4.000000
  0.500000  0.500000  0.142857      2.000000
 -0.333333  0.500000  0.142857      4.000000
 -0.166667  0.500000  0.142857      4.000000
 -0.333333 -0.333333  0.142857      2.000000
 -0.166667 -0.333333  0.142857      4.000000
 -0.166667 -0.166667  0.142857      2.000000
  0.000000 -0.000000  0.285714      2.000000
  0.166667 -0.000000  0.285714      4.000000
  0.333333 -0.000000  0.285714      4.000000
  0.500000 -0.000000  0.285714      4.000000
 -0.333333  0.000000  0.285714      4.000000
 -0.166667 -0.000000  0.285714      4.000000
  0.166667  0.166667  0.285714      2.000000
  0.333333  0.166667  0.285714      4.000000
  0.500000  0.166667  0.285714      4.000000
 -0.333333  0.166667  0.285714      4.000000
 -0.166667  0.166667  0.285714      4.000000
  0.333333  0.333333  0.285714      2.000000
  0.500000  0.333333  0.285714      4.000000
 -0.333333  0.333333  0.285714      4.000000
 -0.166667  0.333333  0.285714      4.000000
  0.500000  0.500000  0.285714      2.000000
 -0.333333  0.500000  0.285714      4.000000
 -0.166667  0.500000  0.285714      4.000000
 -0.333333 -0.333333  0.285714      2.000000
 -0.166667 -0.333333  0.285714      4.000000
 -0.166667 -0.166667  0.285714      2.000000
 -0.000000  0.000000  0.428571      2.000000
  0.166667 -0.000000  0.428571      4.000000
  0.333333 -0.000000  0.428571      4.000000
  0.500000 -0.000000  0.428571      4.000000
 -0.333333  0.000000  0.428571      4.000000
 -0.166667 -0.000000  0.428571      4.000000
  0.166667  0.166667  0.428571      2.000000
  0.333333  0.166667  0.428571      4.000000
  0.500000  0.166667  0.428571      4.000000
 -0.333333  0.166667  0.428571      4.000000
 -0.166667  0.166667  0.428571      4.000000
  0.333333  0.333333  0.428571      2.000000
  0.500000  0.333333  0.428571      4.000000
 -0.333333  0.333333  0.428571      4.000000
 -0.166667  0.333333  0.428571      4.000000
  0.500000  0.500000  0.428571      2.000000
 -0.333333  0.500000  0.428571      4.000000
 -0.166667  0.500000  0.428571      4.000000
 -0.333333 -0.333333  0.428571      2.000000
 -0.166667 -0.333333  0.428571      4.000000
 -0.166667 -0.166667  0.428571      2.000000
 
 Following cartesian coordinates:
            Coordinates               Weight
  0.000000  0.000000  0.000000      1.000000
  0.026971  0.007588  0.000000      4.000000
  0.053942  0.015175  0.000000      4.000000
  0.080913  0.022763  0.000000      2.000000
  0.026971  0.035605  0.000000      2.000000
  0.053942  0.043193  0.000000      4.000000
  0.080913  0.050780  0.000000      4.000000
 -0.053942  0.012843  0.000000      4.000000
 -0.026971  0.020430  0.000000      2.000000
  0.053942  0.071211  0.000000      2.000000
  0.080913  0.078798  0.000000      4.000000
 -0.053942  0.040861  0.000000      2.000000
  0.080913  0.106816  0.000000      1.000000
  0.013265  0.017512  0.018933      2.000000
  0.040236  0.025099  0.018933      4.000000
  0.067207  0.032687  0.018933      4.000000
  0.094178  0.040274  0.018933      4.000000
 -0.040677  0.002337  0.018933      4.000000
 -0.013706  0.009924  0.018933      4.000000
  0.040236  0.053117  0.018933      2.000000
  0.067207  0.060705  0.018933      4.000000
  0.094178  0.068292  0.018933      4.000000
 -0.040677  0.030355  0.018933      4.000000
 -0.013706  0.037942  0.018933      4.000000
  0.067207  0.088723  0.018933      2.000000
  0.094178  0.096310  0.018933      4.000000
 -0.040677  0.058373  0.018933      4.000000
 -0.013706  0.065960  0.018933      4.000000
  0.094178  0.124328  0.018933      2.000000
 -0.040677  0.086390  0.018933      4.000000
 -0.013706  0.093978  0.018933      4.000000
 -0.040677 -0.053699  0.018933      2.000000
 -0.013706 -0.046111  0.018933      4.000000
 -0.013706 -0.018093  0.018933      2.000000
  0.026530  0.035024  0.037867      2.000000
  0.053501  0.042611  0.037867      4.000000
  0.080472  0.050199  0.037867      4.000000
  0.107443  0.057786  0.037867      4.000000
 -0.027411  0.019849  0.037867      4.000000
 -0.000441  0.027436  0.037867      4.000000
  0.053501  0.070629  0.037867      2.000000
  0.080472  0.078217  0.037867      4.000000
  0.107443  0.085804  0.037867      4.000000
 -0.027411  0.047867  0.037867      4.000000
 -0.000441  0.055454  0.037867      4.000000
  0.080472  0.106234  0.037867      2.000000
  0.107443  0.113822  0.037867      4.000000
 -0.027411  0.075884  0.037867      4.000000
 -0.000441  0.083472  0.037867      4.000000
  0.107443  0.141840  0.037867      2.000000
 -0.027411  0.103902  0.037867      4.000000
 -0.000441  0.111490  0.037867      4.000000
 -0.027411 -0.036187  0.037867      2.000000
 -0.000441 -0.028599  0.037867      4.000000
 -0.000441 -0.000582  0.037867      2.000000
  0.039796  0.052536  0.056800      2.000000
  0.066766  0.060123  0.056800      4.000000
  0.093737  0.067711  0.056800      4.000000
  0.120708  0.075298  0.056800      4.000000
 -0.014146  0.037361  0.056800      4.000000
  0.012825  0.044948  0.056800      4.000000
  0.066766  0.088141  0.056800      2.000000
  0.093737  0.095729  0.056800      4.000000
  0.120708  0.103316  0.056800      4.000000
 -0.014146  0.065379  0.056800      4.000000
  0.012825  0.072966  0.056800      4.000000
  0.093737  0.123746  0.056800      2.000000
  0.120708  0.131334  0.056800      4.000000
 -0.014146  0.093396  0.056800      4.000000
  0.012825  0.100984  0.056800      4.000000
  0.120708  0.159352  0.056800      2.000000
 -0.014146  0.121414  0.056800      4.000000
  0.012825  0.129002  0.056800      4.000000
 -0.014146 -0.018675  0.056800      2.000000
  0.012825 -0.011088  0.056800      4.000000
  0.012825  0.016930  0.056800      2.000000
 


--------------------------------------------------------------------------------------------------------




 Dimension of arrays:
   k-points           NKPTS =     76   k-points in BZ     NKDIM =     76   number of bands    NBANDS=    114
   number of dos      NEDOS =    301   number of ions     NIONS =     18
   non local maximal  LDIM  =      6   non local SUM 2l+1 LMDIM =     18
   total plane-waves  NPLWV = 216000
   max r-space proj   IRMAX =      1   max aug-charges    IRDMAX= 272625
   dimension x,y,z NGX =    60 NGY =   60 NGZ =   60
   dimension x,y,z NGXF=   120 NGYF=  120 NGZF=  120
   support grid    NGXF=   240 NGYF=  240 NGZF=  240
   ions per type =               4  12   2
   NGX,Y,Z   is equivalent  to a cutoff of  13.22, 13.22, 13.22 a.u.
   NGXF,Y,Z  is equivalent  to a cutoff of  26.44, 26.44, 26.44 a.u.

 SYSTEM =  routine with relax: pwdword             
 POSCAR =  EA193                                   

 Startparameter for this run:
   NWRITE =      2    write-flag & timer
   PREC   = acc       normal or accurate (medium, high low for compatibility)
   ISTART =      0    job   : 0-new  1-cont  2-samecut
   ICHARG =      2    charge: 1-file 2-atom 10-const
   ISPIN  =      1    spin polarized calculation?
   LNONCOLLINEAR =      F non collinear calculations
   LSORBIT =      F    spin-orbit coupling
   INIWAV =      1    electr: 0-lowe 1-rand  2-diag
   LASPH  =      T    aspherical Exc in radial PAW
   METAGGA=      F    non-selfconsistent MetaGGA calc.

 Electronic Relaxation 1
   ENCUT  =  600.0 eV  44.10 Ry    6.64 a.u.  15.07 15.07 15.07*2*pi/ulx,y,z
   ENINI  =  600.0     initial cutoff
   ENAUG  =  535.5 eV  augmentation charge cutoff
   NELM   =    100;   NELMIN=  6; NELMDL= -5     # of ELM steps 
   EDIFF  = 0.1E-08   stopping-criterion for ELM
   LREAL  =      F    real-space projection
   NLSPLINE    = F    spline interpolate recip. space projectors
   LCOMPAT=      F    compatible to vasp.4.4
   GGA_COMPAT  = T    GGA compatible to vasp.4.4-vasp.4.6
   LMAXPAW     = -100 max onsite density
   LMAXMIX     =    2 max onsite mixed and CHGCAR
   VOSKOWN=      0    Vosko Wilk Nusair interpolation
   ROPT   =    0.00000   0.00000   0.00000
 Ionic relaxation
   EDIFFG = 0.1E-07   stopping-criterion for IOM
   NSW    =      0    number of steps for IOM
   NBLOCK =      1;   KBLOCK =      1    inner block; outer block 
   IBRION =     -1    ionic relax: 0-MD 1-quasi-New 2-CG
   NFREE  =      0    steps in history (QN), initial steepest desc. (CG)
   ISIF   =     -1    stress and relaxation
   IWAVPR =     10    prediction:  0-non 1-charg 2-wave 3-comb
   ISYM   =      2    0-nonsym 1-usesym 2-fastsym
   LCORR  =      T    Harris-Foulkes like correction to forces

   POTIM  = 0.5000    time-step for ionic-motion
   TEIN   =    0.0    initial temperature
   TEBEG  =    0.0;   TEEND  =   0.0 temperature during run
   SMASS  =  -3.00    Nose mass-parameter (am)
   estimated Nose-frequenzy (Omega)   =  0.10E-29 period in steps = 0.13E+47 mass=  -0.130E-26a.u.
   SCALEE = 1.0000    scale energy and forces
   NPACO  =    256;   APACO  = 16.0  distance and # of slots for P.C.
   PSTRESS=    0.0 pullay stress

  Mass of Ions in am
   POMASS =  10.81 95.94 28.09
  Ionic Valenz
   ZVAL   =   3.00 14.00  4.00
  Atomic Wigner-Seitz radii
   RWIGS  =  -1.00 -1.00 -1.00
  virtual crystal weights 
   VCA    =   1.00  1.00  1.00
   NELECT =     188.0000    total number of electrons
   NUPDOWN=      -1.0000    fix difference up-down

 DOS related values:
   EMIN   =  10.00;   EMAX   =-10.00  energy-range for DOS
   EFERMI =   0.00
   ISMEAR =     0;   SIGMA  =   0.02  broadening in eV -4-tet -1-fermi 0-gaus

 Electronic relaxation 2 (details)
   IALGO  =     58    algorithm
   LDIAG  =      T    sub-space diagonalisation (order eigenvalues)
   LSUBROT=      F    optimize rotation matrix (better conditioning)
   TURBO    =      0    0=normal 1=particle mesh
   IRESTART =      0    0=no restart 2=restart with 2 vectors
   NREBOOT  =      0    no. of reboots
   NMIN     =      0    reboot dimension
   EREF     =   0.00    reference energy to select bands
   IMIX   =      4    mixing-type and parameters
     AMIX     =   0.40;   BMIX     =  1.00
     AMIX_MAG =   1.60;   BMIX_MAG =  1.00
     AMIN     =   0.10
     WC   =   100.;   INIMIX=   1;  MIXPRE=   1;  MAXMIX= -45

 Intra band minimization:
   WEIMIN = 0.0000     energy-eigenvalue tresh-hold
   EBREAK =  0.22E-11  absolut break condition
   DEPER  =   0.30     relativ break condition  

   TIME   =   0.40     timestep for ELM

  volume/ion in A,a.u.               =      15.41       103.98
  Fermi-wavevector in a.u.,A,eV,Ry     =   1.438072  2.717561 28.137530  2.068050
  Thomas-Fermi vector in A             =   2.557079
 
 Write flags
   LWAVE        =      T    write WAVECAR
   LDOWNSAMPLE  =      F    k-point downsampling of WAVECAR
   LCHARG       =      T    write CHGCAR
   LVTOT        =      F    write LOCPOT, total local potential
   LVHAR        =      F    write LOCPOT, Hartree potential only
   LELF         =      F    write electronic localiz. function (ELF)
   LORBIT       =      0    0 simple, 1 ext, 2 COOP (PROOUT), +10 PAW based schemes


 Dipole corrections
   LMONO  =      F    monopole corrections only (constant potential shift)
   LDIPOL =      F    correct potential (dipole corrections)
   IDIPOL =      0    1-x, 2-y, 3-z, 4-all directions 
   EPSILON=  1.0000000 bulk dielectric constant

 Exchange correlation treatment:
   GGA     =    --    GGA type
   LEXCH   =     8    internal setting for exchange type
   VOSKOWN=      0    Vosko Wilk Nusair interpolation
   LHFCALC =     F    Hartree Fock is set to
   LHFONE  =     F    Hartree Fock one center treatment
   AEXX    =    0.0000 exact exchange contribution

 Linear response parameters
   LEPSILON=     F    determine dielectric tensor
   LRPA    =     F    only Hartree local field effects (RPA)
   LNABLA  =     F    use nabla operator in PAW spheres
   LVEL    =     F    velocity operator in full k-point grid
   LINTERFAST=   F  fast interpolation
   KINTER  =     0    interpolate to denser k-point grid
   CSHIFT  =0.1000    complex shift for real part using Kramers Kronig
   OMEGAMAX=  -1.0    maximum frequency
   DEG_THRESHOLD= 0.2000000E-02 threshold for treating states as degnerate
   RTIME   =   -0.100 relaxation time in fs
  (WPLASMAI=    0.000 imaginary part of plasma frequency in eV, 0.658/RTIME)
   DFIELD  = 0.0000000 0.0000000 0.0000000 field for delta impulse in time
 
 Orbital magnetization related:
   ORBITALMAG=     F  switch on orbital magnetization
   LCHIMAG   =     F  perturbation theory with respect to B field
   DQ        =  0.001000  dq finite difference perturbation B field
   LLRAUG    =     F  two centre corrections for induced B field



--------------------------------------------------------------------------------------------------------


 Static calculation
 charge density and potential will be updated during run
 non-spin polarized calculation
 Conjugate gradient for all bands (Freysoldt, et al. PRB 79, 241103 (2009))
 preconditioned conjugated gradient                                        
 perform sub-space diagonalisation
    before iterative eigenvector-optimisation
 modified Broyden-mixing scheme, WC =      100.0
 initial mixing is a Kerker type mixing with AMIX =  0.4000 and BMIX =      1.0000
 Hartree-type preconditioning will be used
 using additional bands           20
 reciprocal scheme for non local part
 use partial core corrections
 no Harris-corrections to forces 
 use gradient corrections 
 use of overlap-Matrix (Vanderbilt PP)
 Gauss-broadening in eV      SIGMA  =   0.02


--------------------------------------------------------------------------------------------------------


  energy-cutoff  :      600.00
  volume of cell :      277.36
      direct lattice vectors                 reciprocal lattice vectors
     6.179498178  0.000000000 -4.329503417     0.161825438  0.045525024  0.000000000
    -1.673467622  5.948588391 -4.329503417     0.000000000  0.168107109  0.000000000
     0.000000000  0.000000000  7.545250000     0.092856272  0.122583222  0.132533713

  length of vectors
     7.545250000  7.545250000  7.545250000     0.168107109  0.168107109  0.203012607


 
 k-points in units of 2pi/SCALE and weight: EA                                      
   0.00000000  0.00000000  0.00000000       0.004
   0.02697091  0.00758750  0.00000000       0.016
   0.05394181  0.01517501  0.00000000       0.016
   0.08091272  0.02276251  0.00000000       0.008
   0.02697091  0.03560536  0.00000000       0.008
   0.05394181  0.04319286  0.00000000       0.016
   0.08091272  0.05078036  0.00000000       0.016
  -0.05394181  0.01284284  0.00000000       0.016
  -0.02697091  0.02043035  0.00000000       0.008
   0.05394181  0.07121071  0.00000000       0.008
   0.08091272  0.07879822  0.00000000       0.016
  -0.05394181  0.04086070  0.00000000       0.008
   0.08091272  0.10681607  0.00000000       0.004
   0.01326518  0.01751189  0.01893339       0.008
   0.04023609  0.02509939  0.01893339       0.016
   0.06720699  0.03268690  0.01893339       0.016
   0.09417790  0.04027440  0.01893339       0.016
  -0.04067663  0.00233688  0.01893339       0.016
  -0.01370572  0.00992438  0.01893339       0.016
   0.04023609  0.05311724  0.01893339       0.008
   0.06720699  0.06070475  0.01893339       0.016
   0.09417790  0.06829225  0.01893339       0.016
  -0.04067663  0.03035473  0.01893339       0.016
  -0.01370572  0.03794224  0.01893339       0.016
   0.06720699  0.08872260  0.01893339       0.008
   0.09417790  0.09631010  0.01893339       0.016
  -0.04067663  0.05837258  0.01893339       0.016
  -0.01370572  0.06596009  0.01893339       0.016
   0.09417790  0.12432796  0.01893339       0.008
  -0.04067663  0.08639044  0.01893339       0.016
  -0.01370572  0.09397794  0.01893339       0.016
  -0.04067663 -0.05369882  0.01893339       0.008
  -0.01370572 -0.04611132  0.01893339       0.016
  -0.01370572 -0.01809347  0.01893339       0.008
   0.02653036  0.03502378  0.03786678       0.008
   0.05350127  0.04261128  0.03786678       0.016
   0.08047218  0.05019879  0.03786678       0.016
   0.10744308  0.05778629  0.03786678       0.016
  -0.02741145  0.01984877  0.03786678       0.016
  -0.00044054  0.02743627  0.03786678       0.016
   0.05350127  0.07062913  0.03786678       0.008
   0.08047218  0.07821664  0.03786678       0.016
   0.10744308  0.08580414  0.03786678       0.016
  -0.02741145  0.04786662  0.03786678       0.016
  -0.00044054  0.05545413  0.03786678       0.016
   0.08047218  0.10623449  0.03786678       0.008
   0.10744308  0.11382199  0.03786678       0.016
  -0.02741145  0.07588447  0.03786678       0.016
  -0.00044054  0.08347198  0.03786678       0.016
   0.10744308  0.14183984  0.03786678       0.008
  -0.02741145  0.10390232  0.03786678       0.016
  -0.00044054  0.11148983  0.03786678       0.016
  -0.02741145 -0.03618693  0.03786678       0.008
  -0.00044054 -0.02859943  0.03786678       0.016
  -0.00044054 -0.00058158  0.03786678       0.008
   0.03979555  0.05253567  0.05680016       0.008
   0.06676645  0.06012317  0.05680016       0.016
   0.09373736  0.06771067  0.05680016       0.016
   0.12070826  0.07529818  0.05680016       0.016
  -0.01414627  0.03736066  0.05680016       0.016
   0.01282464  0.04494816  0.05680016       0.016
   0.06676645  0.08814102  0.05680016       0.008
   0.09373736  0.09572853  0.05680016       0.016
   0.12070826  0.10331603  0.05680016       0.016
  -0.01414627  0.06537851  0.05680016       0.016
   0.01282464  0.07296601  0.05680016       0.016
   0.09373736  0.12374638  0.05680016       0.008
   0.12070826  0.13133388  0.05680016       0.016
  -0.01414627  0.09339636  0.05680016       0.016
   0.01282464  0.10098387  0.05680016       0.016
   0.12070826  0.15935173  0.05680016       0.008
  -0.01414627  0.12141421  0.05680016       0.016
   0.01282464  0.12900172  0.05680016       0.016
  -0.01414627 -0.01867504  0.05680016       0.008
   0.01282464 -0.01108754  0.05680016       0.016
   0.01282464  0.01693031  0.05680016       0.008
 
 k-points in reciprocal lattice and weights: EA                                      
   0.00000000  0.00000000  0.00000000       0.004
   0.16666667 -0.00000000  0.00000000       0.016
   0.33333333 -0.00000000  0.00000000       0.016
   0.50000000 -0.00000000  0.00000000       0.008
   0.16666667  0.16666667  0.00000000       0.008
   0.33333333  0.16666667  0.00000000       0.016
   0.50000000  0.16666667  0.00000000       0.016
  -0.33333333  0.16666667  0.00000000       0.016
  -0.16666667  0.16666667  0.00000000       0.008
   0.33333333  0.33333333  0.00000000       0.008
   0.50000000  0.33333333  0.00000000       0.016
  -0.33333333  0.33333333  0.00000000       0.008
   0.50000000  0.50000000  0.00000000       0.004
   0.00000000  0.00000000  0.14285714       0.008
   0.16666667  0.00000000  0.14285714       0.016
   0.33333333  0.00000000  0.14285714       0.016
   0.50000000  0.00000000  0.14285714       0.016
  -0.33333333  0.00000000  0.14285714       0.016
  -0.16666667  0.00000000  0.14285714       0.016
   0.16666667  0.16666667  0.14285714       0.008
   0.33333333  0.16666667  0.14285714       0.016
   0.50000000  0.16666667  0.14285714       0.016
  -0.33333333  0.16666667  0.14285714       0.016
  -0.16666667  0.16666667  0.14285714       0.016
   0.33333333  0.33333333  0.14285714       0.008
   0.50000000  0.33333333  0.14285714       0.016
  -0.33333333  0.33333333  0.14285714       0.016
  -0.16666667  0.33333333  0.14285714       0.016
   0.50000000  0.50000000  0.14285714       0.008
  -0.33333333  0.50000000  0.14285714       0.016
  -0.16666667  0.50000000  0.14285714       0.016
  -0.33333333 -0.33333333  0.14285714       0.008
  -0.16666667 -0.33333333  0.14285714       0.016
  -0.16666667 -0.16666667  0.14285714       0.008
   0.00000000 -0.00000000  0.28571429       0.008
   0.16666667 -0.00000000  0.28571429       0.016
   0.33333333 -0.00000000  0.28571429       0.016
   0.50000000 -0.00000000  0.28571429       0.016
  -0.33333333  0.00000000  0.28571429       0.016
  -0.16666667 -0.00000000  0.28571429       0.016
   0.16666667  0.16666667  0.28571429       0.008
   0.33333333  0.16666667  0.28571429       0.016
   0.50000000  0.16666667  0.28571429       0.016
  -0.33333333  0.16666667  0.28571429       0.016
  -0.16666667  0.16666667  0.28571429       0.016
   0.33333333  0.33333333  0.28571429       0.008
   0.50000000  0.33333333  0.28571429       0.016
  -0.33333333  0.33333333  0.28571429       0.016
  -0.16666667  0.33333333  0.28571429       0.016
   0.50000000  0.50000000  0.28571429       0.008
  -0.33333333  0.50000000  0.28571429       0.016
  -0.16666667  0.50000000  0.28571429       0.016
  -0.33333333 -0.33333333  0.28571429       0.008
  -0.16666667 -0.33333333  0.28571429       0.016
  -0.16666667 -0.16666667  0.28571429       0.008
  -0.00000000  0.00000000  0.42857143       0.008
   0.16666667 -0.00000000  0.42857143       0.016
   0.33333333 -0.00000000  0.42857143       0.016
   0.50000000 -0.00000000  0.42857143       0.016
  -0.33333333  0.00000000  0.42857143       0.016
  -0.16666667 -0.00000000  0.42857143       0.016
   0.16666667  0.16666667  0.42857143       0.008
   0.33333333  0.16666667  0.42857143       0.016
   0.50000000  0.16666667  0.42857143       0.016
  -0.33333333  0.16666667  0.42857143       0.016
  -0.16666667  0.16666667  0.42857143       0.016
   0.33333333  0.33333333  0.42857143       0.008
   0.50000000  0.33333333  0.42857143       0.016
  -0.33333333  0.33333333  0.42857143       0.016
  -0.16666667  0.33333333  0.42857143       0.016
   0.50000000  0.50000000  0.42857143       0.008
  -0.33333333  0.50000000  0.42857143       0.016
  -0.16666667  0.50000000  0.42857143       0.016
  -0.33333333 -0.33333333  0.42857143       0.008
  -0.16666667 -0.33333333  0.42857143       0.016
  -0.16666667 -0.16666667  0.42857143       0.008
 
 position of ions in fractional coordinates (direct lattice) 
   0.50000000  0.00000000  0.00000000
   0.00000000  0.50000000  0.00000000
   0.50000000  0.50000000  0.50000000
   0.00000000  0.00000000  0.50000000
   0.52577000  0.02577000  0.21109000
   0.18532000  0.68532000  0.21109000
   0.77975000  0.27975000  0.05949000
   0.81468000  0.31468000  0.78891000
   0.68532000  0.47423000  0.50000000
   0.27975000  0.22025000  0.50000000
   0.02577000  0.81468000  0.50000000
   0.47423000  0.97423000  0.78891000
   0.72025000  0.77975000  0.50000000
   0.97423000  0.18532000  0.50000000
   0.22025000  0.72025000  0.94051000
   0.31468000  0.52577000  0.50000000
   0.25000000  0.25000000  0.00000000
   0.75000000  0.75000000  0.00000000
 
 position of ions in cartesian coordinates  (Angst):
   3.08974909  0.00000000 -2.16475171
  -0.83673381  2.97429420 -2.16475171
   2.25301528  2.97429420 -0.55687842
   0.00000000  0.00000000  3.77262500
   3.20586950  0.15329512 -0.79516749
  -0.00167623  4.07668660 -2.17671203
   4.35031114  1.66411760 -4.13824195
   4.50770678  1.87190179  1.06295520
   3.44132514  2.82099907 -1.24765069
   1.36013337  1.31017659  1.60787329
  -1.20409493  4.84619599  0.13389385
   1.30016106  5.79529327 -0.31858934
   3.14589718  4.63841180 -2.72163012
   5.71012549  1.10239240 -1.24765069
   0.15571942  4.28447079  3.02448511
   1.06470541  3.12758932  0.13389385
   1.12650764  1.48714710 -2.16475171
   3.37952292  4.46144129 -6.49425512
 


--------------------------------------------------------------------------------------------------------


 k-point   1 :   0.0000 0.0000 0.0000  plane waves:    9203
 k-point   2 :   0.1667-0.0000 0.0000  plane waves:    9233
 k-point   3 :   0.3333-0.0000 0.0000  plane waves:    9256
 k-point   4 :   0.5000-0.0000 0.0000  plane waves:    9270
 k-point   5 :   0.1667 0.1667 0.0000  plane waves:    9247
 k-point   6 :   0.3333 0.1667 0.0000  plane waves:    9246
 k-point   7 :   0.5000 0.1667 0.0000  plane waves:    9248
 k-point   8 :  -0.3333 0.1667 0.0000  plane waves:    9257
 k-point   9 :  -0.1667 0.1667 0.0000  plane waves:    9232
 k-point  10 :   0.3333 0.3333 0.0000  plane waves:    9260
 k-point  11 :   0.5000 0.3333 0.0000  plane waves:    9263
 k-point  12 :  -0.3333 0.3333 0.0000  plane waves:    9276
 k-point  13 :   0.5000 0.5000 0.0000  plane waves:    9264
 k-point  14 :   0.0000 0.0000 0.1429  plane waves:    9221
 k-point  15 :   0.1667 0.0000 0.1429  plane waves:    9247
 k-point  16 :   0.3333 0.0000 0.1429  plane waves:    9249
 k-point  17 :   0.5000 0.0000 0.1429  plane waves:    9248
 k-point  18 :  -0.3333 0.0000 0.1429  plane waves:    9241
 k-point  19 :  -0.1667 0.0000 0.1429  plane waves:    9237
 k-point  20 :   0.1667 0.1667 0.1429  plane waves:    9262
 k-point  21 :   0.3333 0.1667 0.1429  plane waves:    9271
 k-point  22 :   0.5000 0.1667 0.1429  plane waves:    9269
 k-point  23 :  -0.3333 0.1667 0.1429  plane waves:    9259
 k-point  24 :  -0.1667 0.1667 0.1429  plane waves:    9235
 k-point  25 :   0.3333 0.3333 0.1429  plane waves:    9273
 k-point  26 :   0.5000 0.3333 0.1429  plane waves:    9263
 k-point  27 :  -0.3333 0.3333 0.1429  plane waves:    9239
 k-point  28 :  -0.1667 0.3333 0.1429  plane waves:    9256
 k-point  29 :   0.5000 0.5000 0.1429  plane waves:    9266
 k-point  30 :  -0.3333 0.5000 0.1429  plane waves:    9264
 k-point  31 :  -0.1667 0.5000 0.1429  plane waves:    9251
 k-point  32 :  -0.3333-0.3333 0.1429  plane waves:    9281
 k-point  33 :  -0.1667-0.3333 0.1429  plane waves:    9254
 k-point  34 :  -0.1667-0.1667 0.1429  plane waves:    9226
 k-point  35 :   0.0000-0.0000 0.2857  plane waves:    9266
 k-point  36 :   0.1667-0.0000 0.2857  plane waves:    9256
 k-point  37 :   0.3333-0.0000 0.2857  plane waves:    9263
 k-point  38 :   0.5000-0.0000 0.2857  plane waves:    9255
 k-point  39 :  -0.3333 0.0000 0.2857  plane waves:    9254
 k-point  40 :  -0.1667-0.0000 0.2857  plane waves:    9236
 k-point  41 :   0.1667 0.1667 0.2857  plane waves:    9279
 k-point  42 :   0.3333 0.1667 0.2857  plane waves:    9285
 k-point  43 :   0.5000 0.1667 0.2857  plane waves:    9257
 k-point  44 :  -0.3333 0.1667 0.2857  plane waves:    9253
 k-point  45 :  -0.1667 0.1667 0.2857  plane waves:    9249
 k-point  46 :   0.3333 0.3333 0.2857  plane waves:    9272
 k-point  47 :   0.5000 0.3333 0.2857  plane waves:    9267
 k-point  48 :  -0.3333 0.3333 0.2857  plane waves:    9255
 k-point  49 :  -0.1667 0.3333 0.2857  plane waves:    9264
 k-point  50 :   0.5000 0.5000 0.2857  plane waves:    9262
 k-point  51 :  -0.3333 0.5000 0.2857  plane waves:    9263
 k-point  52 :  -0.1667 0.5000 0.2857  plane waves:    9271
 k-point  53 :  -0.3333-0.3333 0.2857  plane waves:    9253
 k-point  54 :  -0.1667-0.3333 0.2857  plane waves:    9261
 k-point  55 :  -0.1667-0.1667 0.2857  plane waves:    9239
 k-point  56 :  -0.0000 0.0000 0.4286  plane waves:    9296
 k-point  57 :   0.1667-0.0000 0.4286  plane waves:    9251
 k-point  58 :   0.3333-0.0000 0.4286  plane waves:    9266
 k-point  59 :   0.5000-0.0000 0.4286  plane waves:    9257
 k-point  60 :  -0.3333 0.0000 0.4286  plane waves:    9246
 k-point  61 :  -0.1667-0.0000 0.4286  plane waves:    9255
 k-point  62 :   0.1667 0.1667 0.4286  plane waves:    9272
 k-point  63 :   0.3333 0.1667 0.4286  plane waves:    9254
 k-point  64 :   0.5000 0.1667 0.4286  plane waves:    9260
 k-point  65 :  -0.3333 0.1667 0.4286  plane waves:    9252
 k-point  66 :  -0.1667 0.1667 0.4286  plane waves:    9270
 k-point  67 :   0.3333 0.3333 0.4286  plane waves:    9261
 k-point  68 :   0.5000 0.3333 0.4286  plane waves:    9259
 k-point  69 :  -0.3333 0.3333 0.4286  plane waves:    9266
 k-point  70 :  -0.1667 0.3333 0.4286  plane waves:    9278
 k-point  71 :   0.5000 0.5000 0.4286  plane waves:    9260
 k-point  72 :  -0.3333 0.5000 0.4286  plane waves:    9256
 k-point  73 :  -0.1667 0.5000 0.4286  plane waves:    9271
 k-point  74 :  -0.3333-0.3333 0.4286  plane waves:    9265
 k-point  75 :  -0.1667-0.3333 0.4286  plane waves:    9257
 k-point  76 :  -0.1667-0.1667 0.4286  plane waves:    9259

 maximum and minimum number of plane-waves per node :      4675     4575

 maximum number of plane-waves:      9296
 maximum index in each direction: 
   IXMAX=   15   IYMAX=   15   IZMAX=   15
   IXMIN=  -15   IYMIN=  -15   IZMIN=  -15


 parallel 3D FFT for wavefunctions:
    minimum data exchange during FFTs selected (reduces bandwidth)
 parallel 3D FFT for charge:
    minimum data exchange during FFTs selected (reduces bandwidth)


 total amount of memory used by VASP MPI-rank0   561308. kBytes
=======================================================================

   base      :      30000. kBytes
   nonl-proj :     155001. kBytes
   fftplans  :      24333. kBytes
   grid      :      18307. kBytes
   one-center:        139. kBytes
   wavefun   :     333528. kBytes
 
     INWAV:  cpu time    0.0001: real time    0.0001
 Broyden mixing: mesh for mixing (old mesh)
   NGX = 31   NGY = 31   NGZ = 31
  (NGX  =120   NGY  =120   NGZ  =120)
  gives a total of  29791 points

 initial charge density was supplied:
 charge density of overlapping atoms calculated
 number of electron     188.0000000 magnetization 
 keeping initial charge density in first step


--------------------------------------------------------------------------------------------------------


 Maximum index for augmentation-charges        21983 (set IRDMAX)


--------------------------------------------------------------------------------------------------------


 First call to EWALD:  gamma=   0.272
 Maximum number of real-space cells 3x 3x 3
 Maximum number of reciprocal cells 3x 3x 3

    FEWALD:  cpu time    0.0736: real time    0.0744


--------------------------------------- Iteration      1(   1)  ---------------------------------------


    POTLOK:  cpu time    0.2578: real time    0.2603
    SETDIJ:  cpu time    0.7299: real time    0.7363
    TRIAL :  cpu time   66.3955: real time   67.0577
    CORREC:  cpu time    0.0026: real time    0.0026
    --------------------------------------------
      LOOP:  cpu time   67.5918: real time   68.2716

 eigenvalue-minimisations  : 18084
 total energy-change (2. order) : 0.2395612E+04  (-0.1316299E+05)
 number of electron     188.0000000 magnetization 
 augmentation part      188.0000000 magnetization 

 Free energy of the ion-electron system (eV)
  ---------------------------------------------------
  alpha Z        PSCENC =      1144.27379602
  Ewald energy   TEWEN  =    -16962.21030340
  -Hartree energ DENC   =     -5639.29982147
  -exchange      EXHF   =         0.00000000
  -V(xc)+E(xc)   XCENC  =       950.42524654
  PAW double counting   =     18167.42904368   -18107.57746203
  entropy T*S    EENTRO =        -0.00073090
  eigenvalues    EBANDS =         4.37028755
  atomic energy  EATOM  =     22838.20177132
  ---------------------------------------------------
  free energy    TOTEN  =      2395.61182732 eV

  energy without entropy =     2395.61255822  energy(sigma->0) =     2395.61219277


--------------------------------------------------------------------------------------------------------




--------------------------------------- Iteration      1(   2)  ---------------------------------------


    TRIAL :  cpu time   70.2913: real time   70.9858
    CORREC:  cpu time    0.0025: real time    0.0025
    --------------------------------------------
      LOOP:  cpu time   70.2953: real time   70.9922

 eigenvalue-minimisations  : 18708
 total energy-change (2. order) :-0.2645591E+04  (-0.2571411E+04)
 number of electron     188.0000000 magnetization 
 augmentation part      188.0000000 magnetization 

 Free energy of the ion-electron system (eV)
  ---------------------------------------------------
  alpha Z        PSCENC =      1144.27379602
  Ewald energy   TEWEN  =    -16962.21030340
  -Hartree energ DENC   =     -5639.29982147
  -exchange      EXHF   =         0.00000000
  -V(xc)+E(xc)   XCENC  =       950.42524654
  PAW double counting   =     18167.42904368   -18107.57746203
  entropy T*S    EENTRO =        -0.00169028
  eigenvalues    EBANDS =     -2641.22008341
  atomic energy  EATOM  =     22838.20177132
  ---------------------------------------------------
  free energy    TOTEN  =      -249.97950303 eV

  energy without entropy =     -249.97781274  energy(sigma->0) =     -249.97865789


--------------------------------------------------------------------------------------------------------




--------------------------------------- Iteration      1(   3)  ---------------------------------------


    TRIAL :  cpu time   78.8923: real time   79.6894
    CORREC:  cpu time    0.0024: real time    0.0024
    --------------------------------------------
      LOOP:  cpu time   78.8958: real time   79.6947

 eigenvalue-minimisations  : 22920
 total energy-change (2. order) :-0.1225179E+03  (-0.1167003E+03)
 number of electron     188.0000000 magnetization 
 augmentation part      188.0000000 magnetization 

 Free energy of the ion-electron system (eV)
  ---------------------------------------------------
  alpha Z        PSCENC =      1144.27379602
  Ewald energy   TEWEN  =    -16962.21030340
  -Hartree energ DENC   =     -5639.29982147
  -exchange      EXHF   =         0.00000000
  -V(xc)+E(xc)   XCENC  =       950.42524654
  PAW double counting   =     18167.42904368   -18107.57746203
  entropy T*S    EENTRO =        -0.00213752
  eigenvalues    EBANDS =     -2763.73749772
  atomic energy  EATOM  =     22838.20177132
  ---------------------------------------------------
  free energy    TOTEN  =      -372.49736457 eV

  energy without entropy =     -372.49522705  energy(sigma->0) =     -372.49629581


--------------------------------------------------------------------------------------------------------




--------------------------------------- Iteration      1(   4)  ---------------------------------------


    TRIAL :  cpu time   74.6990: real time   75.4401
    CORREC:  cpu time    0.0024: real time    0.0024
    --------------------------------------------
      LOOP:  cpu time   74.7024: real time   75.4456

 eigenvalue-minimisations  : 21252
 total energy-change (2. order) :-0.3478252E+01  (-0.3404773E+01)
 number of electron     188.0000000 magnetization 
 augmentation part      188.0000000 magnetization 

 Free energy of the ion-electron system (eV)
  ---------------------------------------------------
  alpha Z        PSCENC =      1144.27379602
  Ewald energy   TEWEN  =    -16962.21030340
  -Hartree energ DENC   =     -5639.29982147
  -exchange      EXHF   =         0.00000000
  -V(xc)+E(xc)   XCENC  =       950.42524654
  PAW double counting   =     18167.42904368   -18107.57746203
  entropy T*S    EENTRO =        -0.00306316
  eigenvalues    EBANDS =     -2767.21482379
  atomic energy  EATOM  =     22838.20177132
  ---------------------------------------------------
  free energy    TOTEN  =      -375.97561628 eV

  energy without entropy =     -375.97255312  energy(sigma->0) =     -375.97408470


--------------------------------------------------------------------------------------------------------




--------------------------------------- Iteration      1(   5)  ---------------------------------------


    TRIAL :  cpu time   76.4965: real time   77.2535
    CORREC:  cpu time    0.0025: real time    0.0025
    CHARGE:  cpu time    3.9355: real time    3.9762
    --------------------------------------------
      LOOP:  cpu time   80.4352: real time   81.2353

 eigenvalue-minimisations  : 21468
 total energy-change (2. order) :-0.7689061E-01  (-0.7654219E-01)
 number of electron     188.0000001 magnetization 
 augmentation part       28.6720730 magnetization 

 Free energy of the ion-electron system (eV)
  ---------------------------------------------------
  alpha Z        PSCENC =      1144.27379602
  Ewald energy   TEWEN  =    -16962.21030340
  -Hartree energ DENC   =     -5639.29982147
  -exchange      EXHF   =         0.00000000
  -V(xc)+E(xc)   XCENC  =       950.42524654
  PAW double counting   =     18167.42904368   -18107.57746203
  entropy T*S    EENTRO =        -0.00310672
  eigenvalues    EBANDS =     -2767.29167084
  atomic energy  EATOM  =     22838.20177132
  ---------------------------------------------------
  free energy    TOTEN  =      -376.05250689 eV

  energy without entropy =     -376.04940017  energy(sigma->0) =     -376.05095353


--------------------------------------------------------------------------------------------------------




--------------------------------------- Iteration      1(   6)  ---------------------------------------


    POTLOK:  cpu time    0.2848: real time    0.2868
    SETDIJ:  cpu time    0.7187: real time    0.7248
    TRIAL :  cpu time   59.3195: real time   59.9597
    CORREC:  cpu time   19.0717: real time   19.2473
    CHARGE:  cpu time    4.6684: real time    4.7134
    --------------------------------------------
      LOOP:  cpu time   84.0657: real time   84.9366

 eigenvalue-minimisations  :     0
 total energy-change (2. order) : 0.3316291E+03  (-0.1748580E+03)
 number of electron     188.0000001 magnetization 
 augmentation part       29.0183907 magnetization 

 Free energy of the ion-electron system (eV)
  ---------------------------------------------------
  alpha Z        PSCENC =      1144.27379602
  Ewald energy   TEWEN  =    -16962.21030340
  -Hartree energ DENC   =     -6187.27160793
  -exchange      EXHF   =         0.00000000
  -V(xc)+E(xc)   XCENC  =       986.23764220
  PAW double counting   =     32858.79345631   -32829.22181149
  entropy T*S    EENTRO =        -0.00266327
  eigenvalues    EBANDS =     -1893.22328667
  atomic energy  EATOM  =     22838.20177132
  ---------------------------------------------------
  free energy    TOTEN  =       -44.42345037 eV

  energy without entropy =      -44.42078710  energy(sigma->0) =      -44.42211873


--------------------------------------------------------------------------------------------------------




--------------------------------------- Iteration      1(   7)  ---------------------------------------


    POTLOK:  cpu time    0.2108: real time    0.2123
    SETDIJ:  cpu time    1.0156: real time    1.0231
    TRIAL :  cpu time   64.0102: real time   64.5834
    CORREC:  cpu time   19.5098: real time   19.6901
    CHARGE:  cpu time    4.3674: real time    4.4116
    --------------------------------------------
      LOOP:  cpu time   89.1145: real time   89.9222

 eigenvalue-minimisations  :     0
 total energy-change (2. order) :-0.1957929E+03  (-0.1747881E+02)
 number of electron     188.0000002 magnetization 
 augmentation part       29.7557552 magnetization 

 Free energy of the ion-electron system (eV)
  ---------------------------------------------------
  alpha Z        PSCENC =      1144.27379602
  Ewald energy   TEWEN  =    -16962.21030340
  -Hartree energ DENC   =     -5622.16115058
  -exchange      EXHF   =         0.00000000
  -V(xc)+E(xc)   XCENC  =       976.04972636
  PAW double counting   =     31676.49038891   -31653.07430408
  entropy T*S    EENTRO =        -0.00262207
  eigenvalues    EBANDS =     -2637.78361722
  atomic energy  EATOM  =     22838.20177132
  ---------------------------------------------------
  free energy    TOTEN  =      -240.21635594 eV

  energy without entropy =     -240.21373387  energy(sigma->0) =     -240.21504491


--------------------------------------------------------------------------------------------------------




--------------------------------------- Iteration      1(   8)  ---------------------------------------


    POTLOK:  cpu time    0.2133: real time    0.2148
    SETDIJ:  cpu time    0.8033: real time    0.8096
    TRIAL :  cpu time   65.6226: real time   66.2119
    CORREC:  cpu time   18.3758: real time   18.5401
    CHARGE:  cpu time    5.7893: real time    5.8423
    --------------------------------------------
      LOOP:  cpu time   90.8106: real time   91.6255

 eigenvalue-minimisations  :     0
 total energy-change (2. order) :-0.1745379E+02  (-0.4652710E+01)
 number of electron     188.0000002 magnetization 
 augmentation part       30.1016402 magnetization 

 Free energy of the ion-electron system (eV)
  ---------------------------------------------------
  alpha Z        PSCENC =      1144.27379602
  Ewald energy   TEWEN  =    -16962.21030340
  -Hartree energ DENC   =     -5622.94629704
  -exchange      EXHF   =         0.00000000
  -V(xc)+E(xc)   XCENC  =       977.32413424
  PAW double counting   =     30219.97356428   -30184.23176611
  entropy T*S    EENTRO =        -0.00242035
  eigenvalues    EBANDS =     -2668.05242749
  atomic energy  EATOM  =     22838.20177132
  ---------------------------------------------------
  free energy    TOTEN  =      -257.67015024 eV

  energy without entropy =     -257.66772989  energy(sigma->0) =     -257.66894007


--------------------------------------------------------------------------------------------------------




--------------------------------------- Iteration      1(   9)  ---------------------------------------


    POTLOK:  cpu time    0.2093: real time    0.2110
    SETDIJ:  cpu time    0.7294: real time    0.7361
    TRIAL :  cpu time   64.3233: real time   64.9105
    CORREC:  cpu time   18.5283: real time   18.7027
    CHARGE:  cpu time    4.8905: real time    4.9381
    --------------------------------------------
      LOOP:  cpu time   88.6882: real time   89.5070

 eigenvalue-minimisations  :     0
 total energy-change (2. order) :-0.4644474E+01  (-0.1581226E+01)
 number of electron     188.0000002 magnetization 
 augmentation part       30.0536602 magnetization 

 Free energy of the ion-electron system (eV)
  ---------------------------------------------------
  alpha Z        PSCENC =      1144.27379602
  Ewald energy   TEWEN  =    -16962.21030340
  -Hartree energ DENC   =     -5665.00070680
  -exchange      EXHF   =         0.00000000
  -V(xc)+E(xc)   XCENC  =       979.01387583
  PAW double counting   =     29629.73917833   -29586.52099332
  entropy T*S    EENTRO =        -0.00260580
  eigenvalues    EBANDS =     -2639.80882156
  atomic energy  EATOM  =     22838.20177132
  ---------------------------------------------------
  free energy    TOTEN  =      -262.31462394 eV

  energy without entropy =     -262.31201813  energy(sigma->0) =     -262.31332103


--------------------------------------------------------------------------------------------------------




--------------------------------------- Iteration      1(  10)  ---------------------------------------


    POTLOK:  cpu time    0.2084: real time    0.2098
    SETDIJ:  cpu time    1.7814: real time    1.7937
    TRIAL :  cpu time   66.4925: real time   67.1178
    CORREC:  cpu time   18.5221: real time   18.6995
    CHARGE:  cpu time    4.4209: real time    4.4622
    --------------------------------------------
      LOOP:  cpu time   91.9025: real time   92.7638

 eigenvalue-minimisations  :     0
 total energy-change (2. order) :-0.1583119E+01  (-0.5651311E+00)
 number of electron     188.0000002 magnetization 
 augmentation part       29.9892638 magnetization 

 Free energy of the ion-electron system (eV)
  ---------------------------------------------------
  alpha Z        PSCENC =      1144.27379602
  Ewald energy   TEWEN  =    -16962.21030340
  -Hartree energ DENC   =     -5650.20638198
  -exchange      EXHF   =         0.00000000
  -V(xc)+E(xc)   XCENC  =       979.10720407
  PAW double counting   =     29339.09173486   -29293.67522875
  entropy T*S    EENTRO =        -0.00276795
  eigenvalues    EBANDS =     -2658.47772887
  atomic energy  EATOM  =     22838.20177132
  ---------------------------------------------------
  free energy    TOTEN  =      -263.89774253 eV

  energy without entropy =     -263.89497457  energy(sigma->0) =     -263.89635855


--------------------------------------------------------------------------------------------------------




--------------------------------------- Iteration      1(  11)  ---------------------------------------


    POTLOK:  cpu time    0.2159: real time    0.2175
    SETDIJ:  cpu time    0.7552: real time    0.7611
    TRIAL :  cpu time   70.9014: real time   71.5393
    CORREC:  cpu time   21.0852: real time   21.2751
    CHARGE:  cpu time    5.0262: real time    5.0734
    --------------------------------------------
      LOOP:  cpu time   98.0004: real time   98.8837

 eigenvalue-minimisations  :     0
 total energy-change (2. order) :-0.5651203E+00  (-0.3167813E+00)
 number of electron     188.0000001 magnetization 
 augmentation part       30.0016716 magnetization 

 Free energy of the ion-electron system (eV)
  ---------------------------------------------------
  alpha Z        PSCENC =      1144.27379602
  Ewald energy   TEWEN  =    -16962.21030340
  -Hartree energ DENC   =     -5654.87229951
  -exchange      EXHF   =         0.00000000
  -V(xc)+E(xc)   XCENC  =       979.19413279
  PAW double counting   =     29083.52086412   -29037.46715855
  entropy T*S    EENTRO =        -0.00314260
  eigenvalues    EBANDS =     -2655.10089765
  atomic energy  EATOM  =     22838.20177132
  ---------------------------------------------------
  free energy    TOTEN  =      -264.46286281 eV

  energy without entropy =     -264.45972021  energy(sigma->0) =     -264.46129151


--------------------------------------------------------------------------------------------------------




--------------------------------------- Iteration      1(  12)  ---------------------------------------


    POTLOK:  cpu time    0.2103: real time    0.2120
    SETDIJ:  cpu time    0.7525: real time    0.7583
    TRIAL :  cpu time   70.5493: real time   71.1539
    CORREC:  cpu time   19.2684: real time   19.4386
    CHARGE:  cpu time    4.0269: real time    4.0634
    --------------------------------------------
      LOOP:  cpu time   94.8179: real time   95.6373

 eigenvalue-minimisations  :     0
 total energy-change (2. order) :-0.3161000E+00  (-0.1352943E+00)
 number of electron     188.0000002 magnetization 
 augmentation part       29.9692419 magnetization 

 Free energy of the ion-electron system (eV)
  ---------------------------------------------------
  alpha Z        PSCENC =      1144.27379602
  Ewald energy   TEWEN  =    -16962.21030340
  -Hartree energ DENC   =     -5655.15438220
  -exchange      EXHF   =         0.00000000
  -V(xc)+E(xc)   XCENC  =       979.28536462
  PAW double counting   =     28894.98655744   -28848.70317261
  entropy T*S    EENTRO =        -0.00294098
  eigenvalues    EBANDS =     -2655.45545138
  atomic energy  EATOM  =     22838.20177132
  ---------------------------------------------------
  free energy    TOTEN  =      -264.77896279 eV

  energy without entropy =     -264.77602181  energy(sigma->0) =     -264.77749230


--------------------------------------------------------------------------------------------------------




--------------------------------------- Iteration      1(  13)  ---------------------------------------


    POTLOK:  cpu time    0.2089: real time    0.2103
    SETDIJ:  cpu time    0.8038: real time    0.8106
    TRIAL :  cpu time   70.9853: real time   71.6143
    CORREC:  cpu time   19.7165: real time   19.9003
    CHARGE:  cpu time    4.3670: real time    4.4131
    --------------------------------------------
      LOOP:  cpu time   96.0830: real time   96.9525

 eigenvalue-minimisations  :     0
 total energy-change (2. order) :-0.1352774E+00  (-0.7407766E-01)
 number of electron     188.0000002 magnetization 
 augmentation part       29.9610444 magnetization 

 Free energy of the ion-electron system (eV)
  ---------------------------------------------------
  alpha Z        PSCENC =      1144.27379602
  Ewald energy   TEWEN  =    -16962.21030340
  -Hartree energ DENC   =     -5653.05018177
  -exchange      EXHF   =         0.00000000
  -V(xc)+E(xc)   XCENC  =       979.09762870
  PAW double counting   =     28885.53037414   -28839.73771620
  entropy T*S    EENTRO =        -0.00284777
  eigenvalues    EBANDS =     -2657.01666801
  atomic energy  EATOM  =     22838.20177132
  ---------------------------------------------------
  free energy    TOTEN  =      -264.91424019 eV

  energy without entropy =     -264.91139241  energy(sigma->0) =     -264.91281630


--------------------------------------------------------------------------------------------------------




--------------------------------------- Iteration      1(  14)  ---------------------------------------


    POTLOK:  cpu time    0.2098: real time    0.2113
    SETDIJ:  cpu time    1.2884: real time    1.2978
    TRIAL :  cpu time   65.1857: real time   65.7689
    CORREC:  cpu time   21.0464: real time   21.2387
    CHARGE:  cpu time    3.9289: real time    3.9688
    --------------------------------------------
      LOOP:  cpu time   91.6604: real time   92.4871

 eigenvalue-minimisations  :     0
 total energy-change (2. order) :-0.7381105E-01  (-0.3304837E-01)
 number of electron     188.0000002 magnetization 
 augmentation part       29.9797873 magnetization 

 Free energy of the ion-electron system (eV)
  ---------------------------------------------------
  alpha Z        PSCENC =      1144.27379602
  Ewald energy   TEWEN  =    -16962.21030340
  -Hartree energ DENC   =     -5647.51792970
  -exchange      EXHF   =         0.00000000
  -V(xc)+E(xc)   XCENC  =       978.97866209
  PAW double counting   =     28936.58005854   -28890.99688784
  entropy T*S    EENTRO =        -0.00257289
  eigenvalues    EBANDS =     -2662.29437049
  atomic energy  EATOM  =     22838.20177132
  ---------------------------------------------------
  free energy    TOTEN  =      -264.98805124 eV

  energy without entropy =     -264.98547835  energy(sigma->0) =     -264.98676479


--------------------------------------------------------------------------------------------------------




--------------------------------------- Iteration      1(  15)  ---------------------------------------


    POTLOK:  cpu time    0.2125: real time    0.2140
    SETDIJ:  cpu time    0.9223: real time    0.9295
    TRIAL :  cpu time   65.3723: real time   65.9450
    CORREC:  cpu time   21.4134: real time   21.5931
    CHARGE:  cpu time    4.7618: real time    4.8037
    --------------------------------------------
      LOOP:  cpu time   92.6836: real time   93.4872

 eigenvalue-minimisations  :     0
 total energy-change (2. order) :-0.3299644E-01  (-0.2524447E-01)
 number of electron     188.0000002 magnetization 
 augmentation part       30.0036710 magnetization 

 Free energy of the ion-electron system (eV)
  ---------------------------------------------------
  alpha Z        PSCENC =      1144.27379602
  Ewald energy   TEWEN  =    -16962.21030340
  -Hartree energ DENC   =     -5651.93863942
  -exchange      EXHF   =         0.00000000
  -V(xc)+E(xc)   XCENC  =       979.10875631
  PAW double counting   =     28971.58454844   -28925.80469202
  entropy T*S    EENTRO =        -0.00254852
  eigenvalues    EBANDS =     -2658.23371205
  atomic energy  EATOM  =     22838.20177132
  ---------------------------------------------------
  free energy    TOTEN  =      -265.02104768 eV

  energy without entropy =     -265.01849916  energy(sigma->0) =     -265.01977342


--------------------------------------------------------------------------------------------------------




--------------------------------------- Iteration      1(  16)  ---------------------------------------


    POTLOK:  cpu time    0.2248: real time    0.2264
    SETDIJ:  cpu time    0.7769: real time    0.7828
    TRIAL :  cpu time   65.2474: real time   65.8251
    CORREC:  cpu time   20.3111: real time   20.4983
    CHARGE:  cpu time    4.8736: real time    4.9183
    --------------------------------------------
      LOOP:  cpu time   91.4350: real time   92.2527

 eigenvalue-minimisations  :     0
 total energy-change (2. order) :-0.2515807E-01  (-0.1265919E-01)
 number of electron     188.0000002 magnetization 
 augmentation part       29.9938246 magnetization 

 Free energy of the ion-electron system (eV)
  ---------------------------------------------------
  alpha Z        PSCENC =      1144.27379602
  Ewald energy   TEWEN  =    -16962.21030340
  -Hartree energ DENC   =     -5653.60698858
  -exchange      EXHF   =         0.00000000
  -V(xc)+E(xc)   XCENC  =       979.24188378
  PAW double counting   =     28999.37736874   -28953.30207777
  entropy T*S    EENTRO =        -0.00254444
  eigenvalues    EBANDS =     -2657.01910735
  atomic energy  EATOM  =     22838.20177132
  ---------------------------------------------------
  free energy    TOTEN  =      -265.04620575 eV

  energy without entropy =     -265.04366131  energy(sigma->0) =     -265.04493353


--------------------------------------------------------------------------------------------------------




--------------------------------------- Iteration      1(  17)  ---------------------------------------


    POTLOK:  cpu time    0.2173: real time    0.2188
    SETDIJ:  cpu time    1.2704: real time    1.2793
    TRIAL :  cpu time   65.1850: real time   65.7782
    CORREC:  cpu time   19.3029: real time   19.4774
    CHARGE:  cpu time    4.2890: real time    4.3363
    --------------------------------------------
      LOOP:  cpu time   90.2663: real time   91.0922

 eigenvalue-minimisations  :     0
 total energy-change (2. order) :-0.1268796E-01  (-0.5120708E-02)
 number of electron     188.0000002 magnetization 
 augmentation part       29.9875901 magnetization 

 Free energy of the ion-electron system (eV)
  ---------------------------------------------------
  alpha Z        PSCENC =      1144.27379602
  Ewald energy   TEWEN  =    -16962.21030340
  -Hartree energ DENC   =     -5654.11018374
  -exchange      EXHF   =         0.00000000
  -V(xc)+E(xc)   XCENC  =       979.21610719
  PAW double counting   =     29008.66359283   -28962.60484130
  entropy T*S    EENTRO =        -0.00260657
  eigenvalues    EBANDS =     -2656.48628818
  atomic energy  EATOM  =     22838.20177132
  ---------------------------------------------------
  free energy    TOTEN  =      -265.05889371 eV

  energy without entropy =     -265.05628714  energy(sigma->0) =     -265.05759042


--------------------------------------------------------------------------------------------------------




--------------------------------------- Iteration      1(  18)  ---------------------------------------


    POTLOK:  cpu time    0.2051: real time    0.2067
    SETDIJ:  cpu time    1.2748: real time    1.2842
    TRIAL :  cpu time   64.7167: real time   65.3065
    CORREC:  cpu time   19.4052: real time   19.5873
    CHARGE:  cpu time    4.5105: real time    4.5544
    --------------------------------------------
      LOOP:  cpu time   90.1129: real time   90.9411

 eigenvalue-minimisations  :     0
 total energy-change (2. order) :-0.5121433E-02  (-0.3248396E-02)
 number of electron     188.0000002 magnetization 
 augmentation part       29.9884106 magnetization 

 Free energy of the ion-electron system (eV)
  ---------------------------------------------------
  alpha Z        PSCENC =      1144.27379602
  Ewald energy   TEWEN  =    -16962.21030340
  -Hartree energ DENC   =     -5652.46377570
  -exchange      EXHF   =         0.00000000
  -V(xc)+E(xc)   XCENC  =       979.17126091
  PAW double counting   =     29007.69563881   -28961.69392401
  entropy T*S    EENTRO =        -0.00262089
  eigenvalues    EBANDS =     -2658.03587252
  atomic energy  EATOM  =     22838.20177132
  ---------------------------------------------------
  free energy    TOTEN  =      -265.06401515 eV

  energy without entropy =     -265.06139426  energy(sigma->0) =     -265.06270470


--------------------------------------------------------------------------------------------------------




--------------------------------------- Iteration      1(  19)  ---------------------------------------


    POTLOK:  cpu time    0.2135: real time    0.2151
    SETDIJ:  cpu time    1.2490: real time    1.2585
    TRIAL :  cpu time   69.1162: real time   69.7205
    CORREC:  cpu time   19.0799: real time   19.2559
    CHARGE:  cpu time    4.4247: real time    4.4681
    --------------------------------------------
      LOOP:  cpu time   94.0847: real time   94.9205

 eigenvalue-minimisations  :     0
 total energy-change (2. order) :-0.3247606E-02  (-0.1824907E-02)
 number of electron     188.0000002 magnetization 
 augmentation part       29.9937428 magnetization 

 Free energy of the ion-electron system (eV)
  ---------------------------------------------------
  alpha Z        PSCENC =      1144.27379602
  Ewald energy   TEWEN  =    -16962.21030340
  -Hartree energ DENC   =     -5653.31482108
  -exchange      EXHF   =         0.00000000
  -V(xc)+E(xc)   XCENC  =       979.18339621
  PAW double counting   =     29003.51372425   -28957.51421327
  entropy T*S    EENTRO =        -0.00265308
  eigenvalues    EBANDS =     -2657.19799192
  atomic energy  EATOM  =     22838.20177132
  ---------------------------------------------------
  free energy    TOTEN  =      -265.06726275 eV

  energy without entropy =     -265.06460967  energy(sigma->0) =     -265.06593621


--------------------------------------------------------------------------------------------------------




--------------------------------------- Iteration      1(  20)  ---------------------------------------


    POTLOK:  cpu time    0.2125: real time    0.2141
    SETDIJ:  cpu time    0.8157: real time    0.8223
    TRIAL :  cpu time   64.1480: real time   64.7144
    CORREC:  cpu time   20.3811: real time   20.5646
    CHARGE:  cpu time    4.4026: real time    4.4464
    --------------------------------------------
      LOOP:  cpu time   89.9628: real time   90.7650

 eigenvalue-minimisations  :     0
 total energy-change (2. order) :-0.1814697E-02  (-0.6241485E-03)
 number of electron     188.0000002 magnetization 
 augmentation part       29.9931423 magnetization 

 Free energy of the ion-electron system (eV)
  ---------------------------------------------------
  alpha Z        PSCENC =      1144.27379602
  Ewald energy   TEWEN  =    -16962.21030340
  -Hartree energ DENC   =     -5653.46795716
  -exchange      EXHF   =         0.00000000
  -V(xc)+E(xc)   XCENC  =       979.20595095
  PAW double counting   =     28998.19163899   -28952.16168647
  entropy T*S    EENTRO =        -0.00265039
  eigenvalues    EBANDS =     -2657.09963462
  atomic energy  EATOM  =     22838.20177132
  ---------------------------------------------------
  free energy    TOTEN  =      -265.06907745 eV

  energy without entropy =     -265.06642706  energy(sigma->0) =     -265.06775225


--------------------------------------------------------------------------------------------------------




--------------------------------------- Iteration      1(  21)  ---------------------------------------


    POTLOK:  cpu time    0.2242: real time    0.2257
    SETDIJ:  cpu time    0.8421: real time    0.8488
    TRIAL :  cpu time   67.6560: real time   68.2637
    CORREC:  cpu time   19.6343: real time   19.8131
    CHARGE:  cpu time    4.3096: real time    4.3539
    --------------------------------------------
      LOOP:  cpu time   92.6680: real time   93.5082

 eigenvalue-minimisations  :     0
 total energy-change (2. order) :-0.6242374E-03  (-0.3995079E-03)
 number of electron     188.0000002 magnetization 
 augmentation part       29.9910368 magnetization 

 Free energy of the ion-electron system (eV)
  ---------------------------------------------------
  alpha Z        PSCENC =      1144.27379602
  Ewald energy   TEWEN  =    -16962.21030340
  -Hartree energ DENC   =     -5653.75687000
  -exchange      EXHF   =         0.00000000
  -V(xc)+E(xc)   XCENC  =       979.20693522
  PAW double counting   =     28996.70968059   -28950.68633586
  entropy T*S    EENTRO =        -0.00265901
  eigenvalues    EBANDS =     -2656.80572519
  atomic energy  EATOM  =     22838.20177132
  ---------------------------------------------------
  free energy    TOTEN  =      -265.06970169 eV

  energy without entropy =     -265.06704267  energy(sigma->0) =     -265.06837218


--------------------------------------------------------------------------------------------------------




--------------------------------------- Iteration      1(  22)  ---------------------------------------


    POTLOK:  cpu time    0.2140: real time    0.2155
    SETDIJ:  cpu time    1.2829: real time    1.2923
    TRIAL :  cpu time   67.1568: real time   67.7553
    CORREC:  cpu time   20.3416: real time   20.5192
    CHARGE:  cpu time    4.9621: real time    5.0054
    --------------------------------------------
      LOOP:  cpu time   93.9585: real time   94.7900

 eigenvalue-minimisations  :     0
 total energy-change (2. order) :-0.3994295E-03  (-0.2145976E-03)
 number of electron     188.0000002 magnetization 
 augmentation part       29.9904037 magnetization 

 Free energy of the ion-electron system (eV)
  ---------------------------------------------------
  alpha Z        PSCENC =      1144.27379602
  Ewald energy   TEWEN  =    -16962.21030340
  -Hartree energ DENC   =     -5653.27988094
  -exchange      EXHF   =         0.00000000
  -V(xc)+E(xc)   XCENC  =       979.19446206
  PAW double counting   =     28996.19220686   -28950.18819701
  entropy T*S    EENTRO =        -0.00265370
  eigenvalues    EBANDS =     -2657.25129702
  atomic energy  EATOM  =     22838.20177132
  ---------------------------------------------------
  free energy    TOTEN  =      -265.07010111 eV

  energy without entropy =     -265.06744741  energy(sigma->0) =     -265.06877426


--------------------------------------------------------------------------------------------------------




--------------------------------------- Iteration      1(  23)  ---------------------------------------


    POTLOK:  cpu time    0.1993: real time    0.2007
    SETDIJ:  cpu time    1.3797: real time    1.3893
    TRIAL :  cpu time   69.9820: real time   70.5901
    CORREC:  cpu time   19.5736: real time   19.7520
    CHARGE:  cpu time    4.4229: real time    4.4631
    --------------------------------------------
      LOOP:  cpu time   96.6295: real time   97.4743

 eigenvalue-minimisations  :     0
 total energy-change (2. order) :-0.2146017E-03  (-0.8052041E-04)
 number of electron     188.0000002 magnetization 
 augmentation part       29.9906164 magnetization 

 Free energy of the ion-electron system (eV)
  ---------------------------------------------------
  alpha Z        PSCENC =      1144.27379602
  Ewald energy   TEWEN  =    -16962.21030340
  -Hartree energ DENC   =     -5653.49308505
  -exchange      EXHF   =         0.00000000
  -V(xc)+E(xc)   XCENC  =       979.19841816
  PAW double counting   =     28995.74782125   -28949.74478944
  entropy T*S    EENTRO =        -0.00265451
  eigenvalues    EBANDS =     -2657.04129087
  atomic energy  EATOM  =     22838.20177132
  ---------------------------------------------------
  free energy    TOTEN  =      -265.07031572 eV

  energy without entropy =     -265.06766121  energy(sigma->0) =     -265.06898846


--------------------------------------------------------------------------------------------------------




--------------------------------------- Iteration      1(  24)  ---------------------------------------


    POTLOK:  cpu time    0.2138: real time    0.2153
    SETDIJ:  cpu time    0.7531: real time    0.7592
    TRIAL :  cpu time   70.1551: real time   70.7616
    CORREC:  cpu time   18.9279: real time   19.1015
    CHARGE:  cpu time    5.1159: real time    5.1579
    --------------------------------------------
      LOOP:  cpu time   95.1675: real time   95.9977

 eigenvalue-minimisations  :     0
 total energy-change (2. order) :-0.8056142E-04  (-0.6175560E-04)
 number of electron     188.0000002 magnetization 
 augmentation part       29.9909148 magnetization 

 Free energy of the ion-electron system (eV)
  ---------------------------------------------------
  alpha Z        PSCENC =      1144.27379602
  Ewald energy   TEWEN  =    -16962.21030340
  -Hartree energ DENC   =     -5653.38397804
  -exchange      EXHF   =         0.00000000
  -V(xc)+E(xc)   XCENC  =       979.19842912
  PAW double counting   =     28994.65132166   -28948.64660216
  entropy T*S    EENTRO =        -0.00264811
  eigenvalues    EBANDS =     -2657.15217630
  atomic energy  EATOM  =     22838.20177132
  ---------------------------------------------------
  free energy    TOTEN  =      -265.07039628 eV

  energy without entropy =     -265.06774816  energy(sigma->0) =     -265.06907222


--------------------------------------------------------------------------------------------------------




--------------------------------------- Iteration      1(  25)  ---------------------------------------


    POTLOK:  cpu time    0.2135: real time    0.2150
    SETDIJ:  cpu time    1.1568: real time    1.1652
    TRIAL :  cpu time   66.8117: real time   67.3941
    CORREC:  cpu time   21.1131: real time   21.3004
    CHARGE:  cpu time    5.5813: real time    5.6261
    --------------------------------------------
      LOOP:  cpu time   95.2556: real time   96.0823

 eigenvalue-minimisations  :     0
 total energy-change (2. order) :-0.6171597E-04  (-0.2996790E-04)
 number of electron     188.0000002 magnetization 
 augmentation part       29.9908587 magnetization 

 Free energy of the ion-electron system (eV)
  ---------------------------------------------------
  alpha Z        PSCENC =      1144.27379602
  Ewald energy   TEWEN  =    -16962.21030340
  -Hartree energ DENC   =     -5653.46570896
  -exchange      EXHF   =         0.00000000
  -V(xc)+E(xc)   XCENC  =       979.19923020
  PAW double counting   =     28993.14573549   -28947.13928449
  entropy T*S    EENTRO =        -0.00264607
  eigenvalues    EBANDS =     -2657.07304606
  atomic energy  EATOM  =     22838.20177132
  ---------------------------------------------------
  free energy    TOTEN  =      -265.07045799 eV

  energy without entropy =     -265.06781192  energy(sigma->0) =     -265.06913496


--------------------------------------------------------------------------------------------------------




--------------------------------------- Iteration      1(  26)  ---------------------------------------


    POTLOK:  cpu time    0.2197: real time    0.2214
    SETDIJ:  cpu time    1.1976: real time    1.2072
    TRIAL :  cpu time   64.1357: real time   64.7011
    CORREC:  cpu time   18.3708: real time   18.5455
    CHARGE:  cpu time    4.2208: real time    4.2598
    --------------------------------------------
      LOOP:  cpu time   88.1652: real time   88.9561

 eigenvalue-minimisations  :     0
 total energy-change (2. order) :-0.2999081E-04  (-0.1244067E-04)
 number of electron     188.0000002 magnetization 
 augmentation part       29.9908727 magnetization 

 Free energy of the ion-electron system (eV)
  ---------------------------------------------------
  alpha Z        PSCENC =      1144.27379602
  Ewald energy   TEWEN  =    -16962.21030340
  -Hartree energ DENC   =     -5653.33303734
  -exchange      EXHF   =         0.00000000
  -V(xc)+E(xc)   XCENC  =       979.19598065
  PAW double counting   =     28992.50666167   -28946.50305678
  entropy T*S    EENTRO =        -0.00264287
  eigenvalues    EBANDS =     -2657.19965405
  atomic energy  EATOM  =     22838.20177132
  ---------------------------------------------------
  free energy    TOTEN  =      -265.07048798 eV

  energy without entropy =     -265.06784511  energy(sigma->0) =     -265.06916655


--------------------------------------------------------------------------------------------------------




--------------------------------------- Iteration      1(  27)  ---------------------------------------


    POTLOK:  cpu time    0.2748: real time    0.2767
    SETDIJ:  cpu time    0.8549: real time    0.8617
