<?xml version="1.0" encoding="ISO-8859-1"?>
<modeling>
 <generator>
  <i name="program" type="string">vasp </i>
  <i name="version" type="string">6.2.0  </i>
  <i name="subversion" type="string">18Jan21 (build Jan 05 2022 15:41:44) complex                          parallel </i>
  <i name="platform" type="string">LinuxIFC </i>
  <i name="date" type="string">2025 05 07 </i>
  <i name="time" type="string">20:23:56 </i>
 </generator>
 <incar>
  <i type="string" name="SYSTEM">routine with relax: pwdword</i>
  <i type="string" name="PREC">Acc</i>
  <i type="int" name="IALGO">    38</i>
  <i type="string" name="ALGO">A</i>
  <i type="logical" name="ADDGRID"> T  </i>
  <i type="int" name="ICHARG">     2</i>
  <i type="int" name="NELM">   100</i>
  <i type="int" name="NELMIN">     6</i>
  <i name="EDIFF">      0.00000000</i>
  <i type="int" name="NSW">     0</i>
  <i type="int" name="ISIF">    -1</i>
  <i name="SYMPREC">      0.00010000</i>
  <i name="ENCUT">    600.00000000</i>
  <i type="logical" name="LREAL"> F  </i>
  <i type="int" name="ISMEAR">     0</i>
  <i name="SIGMA">      0.02000000</i>
  <i type="logical" name="LASPH"> T  </i>
  <i type="string" name="METAGGA">R2SCAN</i>
  <i type="logical" name="LMIXTAU"> F  </i>
 </incar>
 <primitive_cell>
  <structure name="primitive_cell" >
   <crystal>
    <varray name="basis" >
     <v>       6.17949818       0.00000000      -4.32950342 </v>
     <v>      -1.67346762       5.94858839      -4.32950342 </v>
     <v>       0.00000000       0.00000000       7.54525000 </v>
    </varray>
    <i name="volume">    277.35804134 </i>
    <varray name="rec_basis" >
     <v>       0.16182544       0.04552502       0.00000000 </v>
     <v>       0.00000000       0.16810711       0.00000000 </v>
     <v>       0.09285627       0.12258322       0.13253371 </v>
    </varray>
   </crystal>
   <varray name="positions" >
    <v>       0.50000000       0.00000000       0.00000000 </v>
    <v>       1.00000000       0.50000000       0.00000000 </v>
    <v>       0.50000000       0.50000000       0.50000000 </v>
    <v>       0.00000000       0.00000000       0.50000000 </v>
    <v>       0.52577000       0.02577000       0.21109000 </v>
    <v>       0.18532000       0.68532000       0.21109000 </v>
    <v>       0.77975000       0.27975000       0.05949000 </v>
    <v>       0.81468000       0.31468000       0.78891000 </v>
    <v>       0.68532000       0.47423000       0.50000000 </v>
    <v>       0.27975000       0.22025000       0.50000000 </v>
    <v>       0.02577000       0.81468000       0.50000000 </v>
    <v>       0.47423000       0.97423000       0.78891000 </v>
    <v>       0.72025000       0.77975000       0.50000000 </v>
    <v>       0.97423000       0.18532000       0.50000000 </v>
    <v>       0.22025000       0.72025000       0.94051000 </v>
    <v>       0.31468000       0.52577000       0.50000000 </v>
    <v>       0.25000000       0.25000000       0.00000000 </v>
    <v>       0.75000000       0.75000000       0.00000000 </v>
   </varray>
  </structure>
  <varray name="primitive_index" >
   <v type="int" >        1 </v>
   <v type="int" >        2 </v>
   <v type="int" >        3 </v>
   <v type="int" >        4 </v>
   <v type="int" >        5 </v>
   <v type="int" >        6 </v>
   <v type="int" >        7 </v>
   <v type="int" >        8 </v>
   <v type="int" >        9 </v>
   <v type="int" >       10 </v>
   <v type="int" >       11 </v>
   <v type="int" >       12 </v>
   <v type="int" >       13 </v>
   <v type="int" >       14 </v>
   <v type="int" >       15 </v>
   <v type="int" >       16 </v>
   <v type="int" >       17 </v>
   <v type="int" >       18 </v>
  </varray>
 </primitive_cell>
 <kpoints>
  <generation param="Gamma">
   <v type="int" name="divisions">       6        6        7 </v>
   <v name="usershift">      0.00000000       0.00000000       0.00000000 </v>
   <v name="genvec1">      0.16666667       0.00000000       0.00000000 </v>
   <v name="genvec2">      0.00000000       0.16666667       0.00000000 </v>
   <v name="genvec3">      0.00000000       0.00000000       0.14285714 </v>
   <v name="shift">      0.00000000       0.00000000       0.00000000 </v>
  </generation>
  <varray name="kpointlist" >
   <v>       0.00000000       0.00000000       0.00000000 </v>
   <v>       0.16666667      -0.00000000       0.00000000 </v>
   <v>       0.33333333      -0.00000000       0.00000000 </v>
   <v>       0.50000000      -0.00000000       0.00000000 </v>
   <v>       0.16666667       0.16666667       0.00000000 </v>
   <v>       0.33333333       0.16666667       0.00000000 </v>
   <v>       0.50000000       0.16666667       0.00000000 </v>
   <v>      -0.33333333       0.16666667       0.00000000 </v>
   <v>      -0.16666667       0.16666667       0.00000000 </v>
   <v>       0.33333333       0.33333333       0.00000000 </v>
   <v>       0.50000000       0.33333333       0.00000000 </v>
   <v>      -0.33333333       0.33333333       0.00000000 </v>
   <v>       0.50000000       0.50000000       0.00000000 </v>
   <v>       0.00000000       0.00000000       0.14285714 </v>
   <v>       0.16666667       0.00000000       0.14285714 </v>
   <v>       0.33333333       0.00000000       0.14285714 </v>
   <v>       0.50000000       0.00000000       0.14285714 </v>
   <v>      -0.33333333       0.00000000       0.14285714 </v>
   <v>      -0.16666667       0.00000000       0.14285714 </v>
   <v>       0.16666667       0.16666667       0.14285714 </v>
   <v>       0.33333333       0.16666667       0.14285714 </v>
   <v>       0.50000000       0.16666667       0.14285714 </v>
   <v>      -0.33333333       0.16666667       0.14285714 </v>
   <v>      -0.16666667       0.16666667       0.14285714 </v>
   <v>       0.33333333       0.33333333       0.14285714 </v>
   <v>       0.50000000       0.33333333       0.14285714 </v>
   <v>      -0.33333333       0.33333333       0.14285714 </v>
   <v>      -0.16666667       0.33333333       0.14285714 </v>
   <v>       0.50000000       0.50000000       0.14285714 </v>
   <v>      -0.33333333       0.50000000       0.14285714 </v>
   <v>      -0.16666667       0.50000000       0.14285714 </v>
   <v>      -0.33333333      -0.33333333       0.14285714 </v>
   <v>      -0.16666667      -0.33333333       0.14285714 </v>
   <v>      -0.16666667      -0.16666667       0.14285714 </v>
   <v>       0.00000000      -0.00000000       0.28571429 </v>
   <v>       0.16666667      -0.00000000       0.28571429 </v>
   <v>       0.33333333      -0.00000000       0.28571429 </v>
   <v>       0.50000000      -0.00000000       0.28571429 </v>
   <v>      -0.33333333       0.00000000       0.28571429 </v>
   <v>      -0.16666667      -0.00000000       0.28571429 </v>
   <v>       0.16666667       0.16666667       0.28571429 </v>
   <v>       0.33333333       0.16666667       0.28571429 </v>
   <v>       0.50000000       0.16666667       0.28571429 </v>
   <v>      -0.33333333       0.16666667       0.28571429 </v>
   <v>      -0.16666667       0.16666667       0.28571429 </v>
   <v>       0.33333333       0.33333333       0.28571429 </v>
   <v>       0.50000000       0.33333333       0.28571429 </v>
   <v>      -0.33333333       0.33333333       0.28571429 </v>
   <v>      -0.16666667       0.33333333       0.28571429 </v>
   <v>       0.50000000       0.50000000       0.28571429 </v>
   <v>      -0.33333333       0.50000000       0.28571429 </v>
   <v>      -0.16666667       0.50000000       0.28571429 </v>
   <v>      -0.33333333      -0.33333333       0.28571429 </v>
   <v>      -0.16666667      -0.33333333       0.28571429 </v>
   <v>      -0.16666667      -0.16666667       0.28571429 </v>
   <v>      -0.00000000       0.00000000       0.42857143 </v>
   <v>       0.16666667      -0.00000000       0.42857143 </v>
   <v>       0.33333333      -0.00000000       0.42857143 </v>
   <v>       0.50000000      -0.00000000       0.42857143 </v>
   <v>      -0.33333333       0.00000000       0.42857143 </v>
   <v>      -0.16666667      -0.00000000       0.42857143 </v>
   <v>       0.16666667       0.16666667       0.42857143 </v>
   <v>       0.33333333       0.16666667       0.42857143 </v>
   <v>       0.50000000       0.16666667       0.42857143 </v>
   <v>      -0.33333333       0.16666667       0.42857143 </v>
   <v>      -0.16666667       0.16666667       0.42857143 </v>
   <v>       0.33333333       0.33333333       0.42857143 </v>
   <v>       0.50000000       0.33333333       0.42857143 </v>
   <v>      -0.33333333       0.33333333       0.42857143 </v>
   <v>      -0.16666667       0.33333333       0.42857143 </v>
   <v>       0.50000000       0.50000000       0.42857143 </v>
   <v>      -0.33333333       0.50000000       0.42857143 </v>
   <v>      -0.16666667       0.50000000       0.42857143 </v>
   <v>      -0.33333333      -0.33333333       0.42857143 </v>
   <v>      -0.16666667      -0.33333333       0.42857143 </v>
   <v>      -0.16666667      -0.16666667       0.42857143 </v>
  </varray>
  <varray name="weights" >
   <v>       0.00396825 </v>
   <v>       0.01587302 </v>
   <v>       0.01587302 </v>
   <v>       0.00793651 </v>
   <v>       0.00793651 </v>
   <v>       0.01587302 </v>
   <v>       0.01587302 </v>
   <v>       0.01587302 </v>
   <v>       0.00793651 </v>
   <v>       0.00793651 </v>
   <v>       0.01587302 </v>
   <v>       0.00793651 </v>
   <v>       0.00396825 </v>
   <v>       0.00793651 </v>
   <v>       0.01587302 </v>
   <v>       0.01587302 </v>
   <v>       0.01587302 </v>
   <v>       0.01587302 </v>
   <v>       0.01587302 </v>
   <v>       0.00793651 </v>
   <v>       0.01587302 </v>
   <v>       0.01587302 </v>
   <v>       0.01587302 </v>
   <v>       0.01587302 </v>
   <v>       0.00793651 </v>
   <v>       0.01587302 </v>
   <v>       0.01587302 </v>
   <v>       0.01587302 </v>
   <v>       0.00793651 </v>
   <v>       0.01587302 </v>
   <v>       0.01587302 </v>
   <v>       0.00793651 </v>
   <v>       0.01587302 </v>
   <v>       0.00793651 </v>
   <v>       0.00793651 </v>
   <v>       0.01587302 </v>
   <v>       0.01587302 </v>
   <v>       0.01587302 </v>
   <v>       0.01587302 </v>
   <v>       0.01587302 </v>
   <v>       0.00793651 </v>
   <v>       0.01587302 </v>
   <v>       0.01587302 </v>
   <v>       0.01587302 </v>
   <v>       0.01587302 </v>
   <v>       0.00793651 </v>
   <v>       0.01587302 </v>
   <v>       0.01587302 </v>
   <v>       0.01587302 </v>
   <v>       0.00793651 </v>
   <v>       0.01587302 </v>
   <v>       0.01587302 </v>
   <v>       0.00793651 </v>
   <v>       0.01587302 </v>
   <v>       0.00793651 </v>
   <v>       0.00793651 </v>
   <v>       0.01587302 </v>
   <v>       0.01587302 </v>
   <v>       0.01587302 </v>
   <v>       0.01587302 </v>
   <v>       0.01587302 </v>
   <v>       0.00793651 </v>
   <v>       0.01587302 </v>
   <v>       0.01587302 </v>
   <v>       0.01587302 </v>
   <v>       0.01587302 </v>
   <v>       0.00793651 </v>
   <v>       0.01587302 </v>
   <v>       0.01587302 </v>
   <v>       0.01587302 </v>
   <v>       0.00793651 </v>
   <v>       0.01587302 </v>
   <v>       0.01587302 </v>
   <v>       0.00793651 </v>
   <v>       0.01587302 </v>
   <v>       0.00793651 </v>
  </varray>
 </kpoints>
 <parameters>
  <separator name="general" >
   <i type="string" name="SYSTEM">routine with relax: pwdword</i>
   <i type="logical" name="LCOMPAT"> F  </i>
  </separator>
  <separator name="electronic" >
   <i type="string" name="PREC">acc</i>
   <i name="ENMAX">    600.00000000</i>
   <i name="ENAUG">    535.51400000</i>
   <i name="EDIFF">      0.00000000</i>
   <i type="int" name="IALGO">    58</i>
   <i type="int" name="IWAVPR">    10</i>
   <i type="int" name="NBANDS">   114</i>
   <i type="int" name="NBANDSLOW">    -1</i>
   <i type="int" name="NBANDSHIGH">    -1</i>
   <i name="NELECT">    188.00000000</i>
   <i type="int" name="TURBO">     0</i>
   <i type="int" name="IRESTART">     0</i>
   <i type="int" name="NREBOOT">     0</i>
   <i type="int" name="NMIN">     0</i>
   <i name="EREF">      0.00000000</i>
   <separator name="electronic smearing" >
    <i type="int" name="ISMEAR">     0</i>
    <i name="SIGMA">      0.02000000</i>
    <i name="KSPACING">      0.50000000</i>
    <i type="logical" name="KGAMMA"> T  </i>
    <i type="logical" name="KBLOWUP"> F  </i>
   </separator>
   <separator name="electronic projectors" >
    <i type="logical" name="LREAL"> F  </i>
    <v name="ROPT">      0.00000000      0.00000000      0.00000000</v>
    <i type="int" name="LMAXPAW">  -100</i>
    <i type="int" name="LMAXMIX">     2</i>
    <i type="logical" name="NLSPLINE"> F  </i>
   </separator>
   <separator name="electronic startup" >
    <i type="int" name="ISTART">     0</i>
    <i type="int" name="ICHARG">     2</i>
    <i type="int" name="INIWAV">     1</i>
   </separator>
   <separator name="electronic spin" >
    <i type="int" name="ISPIN">     1</i>
    <i type="logical" name="LNONCOLLINEAR"> F  </i>
    <v name="MAGMOM">      1.00000000      1.00000000      1.00000000      1.00000000      1.00000000      1.00000000      1.00000000      1.00000000      1.00000000      1.00000000      1.00000000      1.00000000      1.00000000      1.00000000      1.00000000      1.00000000      1.00000000      1.00000000</v>
    <i name="NUPDOWN">     -1.00000000</i>
    <i type="logical" name="LSORBIT"> F  </i>
    <v name="SAXIS">      0.00000000      0.00000000      1.00000000</v>
    <i type="logical" name="LSPIRAL"> F  </i>
    <v name="QSPIRAL">      0.00000000      0.00000000      0.00000000</v>
    <i type="logical" name="LZEROZ"> F  </i>
   </separator>
   <separator name="electronic exchange-correlation" >
    <i type="logical" name="LASPH"> T  </i>
    <i type="logical" name="LMETAGGA"> F  </i>
   </separator>
   <separator name="electronic convergence" >
    <i type="int" name="NELM">   100</i>
    <i type="int" name="NELMDL">    -5</i>
    <i type="int" name="NELMIN">     6</i>
    <i name="ENINI">    600.00000000</i>
    <separator name="electronic convergence detail" >
     <i type="logical" name="LDIAG"> T  </i>
     <i type="logical" name="LSUBROT"> F  </i>
     <i name="WEIMIN">      0.00000000</i>
     <i name="EBREAK">      0.00000000</i>
     <i name="DEPER">      0.30000000</i>
     <i type="int" name="NRMM">     4</i>
     <i name="TIME">      0.40000000</i>
    </separator>
   </separator>
   <separator name="electronic mixer" >
    <i name="AMIX">      0.40000000</i>
    <i name="BMIX">      1.00000000</i>
    <i name="AMIN">      0.10000000</i>
    <i name="AMIX_MAG">      1.60000000</i>
    <i name="BMIX_MAG">      1.00000000</i>
    <separator name="electronic mixer details" >
     <i type="int" name="IMIX">     4</i>
     <i type="logical" name="MIXFIRST"> F  </i>
     <i type="int" name="MAXMIX">   -45</i>
     <i name="WC">    100.00000000</i>
     <i type="int" name="INIMIX">     1</i>
     <i type="int" name="MIXPRE">     1</i>
     <i type="int" name="MREMOVE">     5</i>
    </separator>
   </separator>
   <separator name="electronic dipolcorrection" >
    <i type="logical" name="LDIPOL"> F  </i>
    <i type="logical" name="LMONO"> F  </i>
    <i type="int" name="IDIPOL">     0</i>
    <i name="EPSILON">      1.00000000</i>
    <v name="DIPOL">   -100.00000000   -100.00000000   -100.00000000</v>
    <i name="EFIELD">      0.00000000</i>
   </separator>
  </separator>
  <separator name="grids" >
   <i type="int" name="NGX">    60</i>
   <i type="int" name="NGY">    60</i>
   <i type="int" name="NGZ">    60</i>
   <i type="int" name="NGXF">   120</i>
   <i type="int" name="NGYF">   120</i>
   <i type="int" name="NGZF">   120</i>
   <i type="logical" name="ADDGRID"> T  </i>
  </separator>
  <separator name="ionic" >
   <i type="int" name="NSW">     0</i>
   <i type="int" name="IBRION">    -1</i>
   <i type="int" name="MDALGO">     0</i>
   <i type="int" name="ISIF">    -1</i>
   <i name="PSTRESS">      0.00000000</i>
   <i name="EDIFFG">      0.00000001</i>
   <i type="int" name="NFREE">     0</i>
   <i name="POTIM">      0.50000000</i>
   <i name="SMASS">     -3.00000000</i>
   <i name="SCALEE">      1.00000000</i>
  </separator>
  <separator name="ionic md" >
   <i name="TEBEG">      0.00010000</i>
   <i name="TEEND">      0.00010000</i>
   <i type="int" name="NBLOCK">     1</i>
   <i type="int" name="KBLOCK">     1</i>
   <i type="int" name="NPACO">   256</i>
   <i name="APACO">     16.00000000</i>
  </separator>
  <separator name="symmetry" >
   <i type="int" name="ISYM">     2</i>
   <i name="SYMPREC">      0.00010000</i>
  </separator>
  <separator name="dos" >
   <i type="int" name="LORBIT">     0</i>
   <v name="RWIGS">     -1.00000000     -1.00000000     -1.00000000</v>
   <i type="int" name="NEDOS">   301</i>
   <i name="EMIN">     10.00000000</i>
   <i name="EMAX">    -10.00000000</i>
   <i name="EFERMI">      0.00000000</i>
  </separator>
  <separator name="writing" >
   <i type="int" name="NWRITE">     2</i>
   <i type="logical" name="LWAVE"> T  </i>
   <i type="logical" name="LDOWNSAMPLE"> F  </i>
   <i type="logical" name="LCHARG"> T  </i>
   <i type="logical" name="LPARD"> F  </i>
   <i type="logical" name="LVTOT"> F  </i>
   <i type="logical" name="LVHAR"> F  </i>
   <i type="logical" name="LELF"> F  </i>
   <i type="logical" name="LOPTICS"> F  </i>
   <v name="STM">      0.00000000      0.00000000      0.00000000      0.00000000      0.00000000      0.00000000      0.00000000</v>
  </separator>
  <separator name="performance" >
   <i type="int" name="NPAR">     6</i>
   <i type="int" name="NSIM">     4</i>
   <i type="int" name="NBLK">    -1</i>
   <i type="logical" name="LPLANE"> T  </i>
   <i type="logical" name="LSCALAPACK"> T  </i>
   <i type="logical" name="LSCAAWARE"> F  </i>
   <i type="logical" name="LSCALU"> F  </i>
   <i type="logical" name="LASYNC"> F  </i>
   <i type="logical" name="LORBITALREAL"> F  </i>
  </separator>
  <separator name="miscellaneous" >
   <i type="int" name="IDIOT">     3</i>
   <i type="int" name="PHON_NSTRUCT">    -1</i>
   <i type="logical" name="LMUSIC"> F  </i>
   <v name="POMASS">     10.81100000     95.94000000     28.08500000</v>
   <v name="DARWINR">      0.00000000      0.00000000      0.00000000</v>
   <v name="DARWINV">      1.00000000      1.00000000      1.00000000</v>
   <i type="logical" name="LCORR"> T  </i>
  </separator>
  <i type="logical" name="GGA_COMPAT"> T  </i>
  <i type="logical" name="LBERRY"> F  </i>
  <i type="int" name="ICORELEVEL">     0</i>
  <i type="logical" name="LDAU"> F  </i>
  <i type="int" name="I_CONSTRAINED_M">     0</i>
  <separator name="electronic exchange-correlation" >
   <i type="string" name="GGA">--</i>
   <i type="int" name="VOSKOWN">     0</i>
   <i type="logical" name="LHFCALC"> F  </i>
   <i type="string" name="PRECFOCK"></i>
   <i type="logical" name="LSYMGRAD"> F  </i>
   <i type="logical" name="LHFONE"> F  </i>
   <i type="logical" name="LRHFCALC"> F  </i>
   <i type="logical" name="LTHOMAS"> F  </i>
   <i type="logical" name="LMODELHF"> F  </i>
   <i type="logical" name="LFOCKACE"> F  </i>
   <i name="ENCUT4O">     -1.00000000</i>
   <i type="int" name="EXXOEP">     0</i>
   <i type="int" name="FOURORBIT">     0</i>
   <i name="AEXX">      0.00000000</i>
   <i name="HFALPHA">      0.00000000</i>
   <i name="MCALPHA">      0.00000000</i>
   <i name="ALDAX">      1.00000000</i>
   <i name="AGGAX">      1.00000000</i>
   <i name="ALDAC">      1.00000000</i>
   <i name="AGGAC">      1.00000000</i>
   <i type="int" name="NKREDX">     1</i>
   <i type="int" name="NKREDY">     1</i>
   <i type="int" name="NKREDZ">     1</i>
   <i type="logical" name="SHIFTRED"> F  </i>
   <i type="logical" name="ODDONLY"> F  </i>
   <i type="logical" name="EVENONLY"> F  </i>
   <i type="int" name="LMAXFOCK">     0</i>
   <i type="int" name="NMAXFOCKAE">     0</i>
   <i type="logical" name="LFOCKAEDFT"> F  </i>
   <i name="HFSCREEN">      0.00000000</i>
   <i name="HFSCREENC">      0.00000000</i>
   <i type="int" name="NBANDSGWLOW">     0</i>
  </separator>
  <separator name="vdW DFT" >
   <i type="logical" name="LUSE_VDW"> F  </i>
   <i name="Zab_VDW">     -0.84910000</i>
   <i name="PARAM1">      0.12340000</i>
   <i name="PARAM2">      1.00000000</i>
   <i name="PARAM3">      0.00000000</i>
  </separator>
  <separator name="model GW" >
   <i type="int" name="MODEL_GW">     0</i>
   <i name="MODEL_EPS0">      9.24526804</i>
   <i name="MODEL_ALPHA">      1.00000000</i>
  </separator>
  <separator name="linear response parameters" >
   <i type="logical" name="LEPSILON"> F  </i>
   <i type="logical" name="LRPA"> F  </i>
   <i type="logical" name="LNABLA"> F  </i>
   <i type="logical" name="LVEL"> F  </i>
   <i type="int" name="KINTER">     0</i>
   <i name="CSHIFT">      0.10000000</i>
   <i name="OMEGAMAX">     -1.00000000</i>
   <i name="DEG_THRESHOLD">      0.00200000</i>
   <i name="RTIME">     -0.10000000</i>
   <i name="WPLASMAI">      0.00000000</i>
   <v name="DFIELD">      0.00000000      0.00000000      0.00000000</v>
   <v name="WPLASMA">      0.00000000      0.00000000      0.00000000      0.00000000      0.00000000      0.00000000      0.00000000      0.00000000      0.00000000</v>
  </separator>
  <separator name="orbital magnetization" >
   <i type="logical" name="NUCIND"> F  </i>
   <v name="MAGPOS">      0.00000000      0.00000000      0.00000000</v>
   <i type="logical" name="LNICSALL"> T  </i>
   <i type="logical" name="ORBITALMAG"> F  </i>
   <i type="logical" name="LMAGBLOCH"> F  </i>
   <i type="logical" name="LCHIMAG"> F  </i>
   <i type="logical" name="LGAUGE"> T  </i>
   <i type="int" name="MAGATOM">     0</i>
   <v name="MAGDIPOL">      0.00000000      0.00000000      0.00000000</v>
   <v name="AVECCONST">      0.00000000      0.00000000      0.00000000</v>
  </separator>
  <separator name="response functions" >
   <i type="logical" name="LFINITE_TEMPERATURE"> F  </i>
   <i type="logical" name="LADDER"> F  </i>
   <i type="logical" name="LRPAFORCE"> F  </i>
   <i type="logical" name="LFXC"> F  </i>
   <i type="logical" name="LHARTREE"> T  </i>
   <i type="int" name="IBSE">     0</i>
   <v type="int" name="KPOINT">    -1     0     0     0</v>
   <i type="logical" name="LTCTC"> F  </i>
   <i type="logical" name="LTCTE"> F  </i>
   <i type="logical" name="LTETE"> F  </i>
   <i type="logical" name="LTRIPLET"> F  </i>
   <i type="logical" name="LFXCEPS"> F  </i>
   <i type="logical" name="LFXHEG"> F  </i>
   <i type="int" name="NATURALO">     2</i>
   <i type="logical" name="LHOLEGF"> F  </i>
   <i type="logical" name="L2ORDER"> F  </i>
   <i type="logical" name="LDMP1"> F  </i>
   <i type="logical" name="LMP2LT"> F  </i>
   <i type="logical" name="LSMP2LT"> F  </i>
   <i type="logical" name="LGWLF"> F  </i>
   <i name="ENCUTGW">     -2.00000000</i>
   <i name="ENCUTGWSOFT">     -2.00000000</i>
   <i name="ENCUTLF">     -1.00000000</i>
   <i type="logical" name="LESF_SPLINES"> F  </i>
   <i type="int" name="LMAXMP2">    -1</i>
   <i name="SCISSOR">      0.00000000</i>
   <i type="int" name="NOMEGA">     0</i>
   <i type="int" name="NOMEGAR">     0</i>
   <i type="int" name="NBANDSGW">    -1</i>
   <i type="int" name="NBANDSO">    -1</i>
   <i type="int" name="NBANDSV">    -1</i>
   <i type="int" name="NELM">   100</i>
   <i type="int" name="NELMHF">     1</i>
   <i type="int" name="DIM">     3</i>
   <i type="int" name="IESPILON">     4</i>
   <i type="int" name="ANTIRES">     0</i>
   <i name="OMEGAMAX">    -30.00000000</i>
   <i name="OMEGAMIN">    -30.00000000</i>
   <i name="OMEGATL">   -200.00000000</i>
   <i type="int" name="OMEGAGRID">     0</i>
   <i name="CSHIFT">     -0.10000000</i>
   <i type="logical" name="LSELFENERGY"> F  </i>
   <i type="logical" name="LSPECTRAL"> F  </i>
   <i type="logical" name="LSPECTRALGW"> F  </i>
   <i type="logical" name="LSINGLES"> F  </i>
   <i type="logical" name="LFERMIGW"> F  </i>
   <i type="logical" name="ODDONLYGW"> F  </i>
   <i type="logical" name="EVENONLYGW"> F  </i>
   <i type="int" name="NKREDLFX">     1</i>
   <i type="int" name="NKREDLFY">     1</i>
   <i type="int" name="NKREDLFZ">     1</i>
   <i type="int" name="MAXMEM">  2800</i>
   <i type="int" name="TELESCOPE">     0</i>
   <i type="int" name="NTAUPAR">    -1</i>
   <i type="int" name="NOMEGAPAR">    -1</i>
   <i name="DAMP_NEWTON">      0.80000001</i>
   <i name="LAMBDA">      1.00000000</i>
  </separator>
  <separator name="External order field" >
   <i name="OFIELD_KAPPA">      0.00000000</i>
   <v name="OFIELD_K">      0.00000000      0.00000000      0.00000000</v>
   <i name="OFIELD_Q6_NEAR">      0.00000000</i>
   <i name="OFIELD_Q6_FAR">      0.00000000</i>
   <i name="OFIELD_A">      0.00000000</i>
  </separator>
 </parameters>
 <atominfo>
  <atoms>      18 </atoms>
  <types>       3 </types>
  <array name="atoms" >
   <dimension dim="1">ion</dimension>
   <field type="string">element</field>
   <field type="int">atomtype</field>
   <set>
    <rc><c>B </c><c>   1</c></rc>
    <rc><c>B </c><c>   1</c></rc>
    <rc><c>B </c><c>   1</c></rc>
    <rc><c>B </c><c>   1</c></rc>
    <rc><c>Mo</c><c>   2</c></rc>
    <rc><c>Mo</c><c>   2</c></rc>
    <rc><c>Mo</c><c>   2</c></rc>
    <rc><c>Mo</c><c>   2</c></rc>
    <rc><c>Mo</c><c>   2</c></rc>
    <rc><c>Mo</c><c>   2</c></rc>
    <rc><c>Mo</c><c>   2</c></rc>
    <rc><c>Mo</c><c>   2</c></rc>
    <rc><c>Mo</c><c>   2</c></rc>
    <rc><c>Mo</c><c>   2</c></rc>
    <rc><c>Mo</c><c>   2</c></rc>
    <rc><c>Mo</c><c>   2</c></rc>
    <rc><c>Si</c><c>   3</c></rc>
    <rc><c>Si</c><c>   3</c></rc>
   </set>
  </array>
  <array name="atomtypes" >
   <dimension dim="1">type</dimension>
   <field type="int">atomspertype</field>
   <field type="string">element</field>
   <field>mass</field>
   <field>valence</field>
   <field type="string">pseudopotential</field>
   <set>
    <rc><c>   4</c><c>B </c><c>     10.81100000</c><c>      3.00000000</c><c>  PAW_PBE B 06Sep2000                   </c></rc>
    <rc><c>  12</c><c>Mo</c><c>     95.94000000</c><c>     14.00000000</c><c>  PAW_PBE Mo_sv 02Feb2006               </c></rc>
    <rc><c>   2</c><c>Si</c><c>     28.08500000</c><c>      4.00000000</c><c>  PAW_PBE Si 05Jan2001                  </c></rc>
   </set>
  </array>
 </atominfo>
 <structure name="initialpos" >
  <crystal>
   <varray name="basis" >
    <v>       6.17949818       0.00000000      -4.32950342 </v>
    <v>      -1.67346762       5.94858839      -4.32950342 </v>
    <v>       0.00000000       0.00000000       7.54525000 </v>
   </varray>
   <i name="volume">    277.35804134 </i>
   <varray name="rec_basis" >
    <v>       0.16182544       0.04552502       0.00000000 </v>
    <v>       0.00000000       0.16810711       0.00000000 </v>
    <v>       0.09285627       0.12258322       0.13253371 </v>
   </varray>
  </crystal>
  <varray name="positions" >
   <v>       0.50000000       0.00000000       0.00000000 </v>
   <v>       0.00000000       0.50000000       0.00000000 </v>
   <v>       0.50000000       0.50000000       0.50000000 </v>
   <v>       0.00000000       0.00000000       0.50000000 </v>
   <v>       0.52577000       0.02577000       0.21109000 </v>
   <v>       0.18532000       0.68532000       0.21109000 </v>
   <v>       0.77975000       0.27975000       0.05949000 </v>
   <v>       0.81468000       0.31468000       0.78891000 </v>
   <v>       0.68532000       0.47423000       0.50000000 </v>
   <v>       0.27975000       0.22025000       0.50000000 </v>
   <v>       0.02577000       0.81468000       0.50000000 </v>
   <v>       0.47423000       0.97423000       0.78891000 </v>
   <v>       0.72025000       0.77975000       0.50000000 </v>
   <v>       0.97423000       0.18532000       0.50000000 </v>
   <v>       0.22025000       0.72025000       0.94051000 </v>
   <v>       0.31468000       0.52577000       0.50000000 </v>
   <v>       0.25000000       0.25000000       0.00000000 </v>
   <v>       0.75000000       0.75000000       0.00000000 </v>
  </varray>
 </structure>
 <calculation>
  <scstep>
   <time name="total">   67.59   68.27</time>
   <energy>
    <i name="alphaZ">   1144.27379602 </i>
    <i name="ewald"> -16962.21030340 </i>
    <i name="hartreedc">  -5639.29982147 </i>
    <i name="XCdc">    950.42524654 </i>
    <i name="pawpsdc">  18167.42904368 </i>
    <i name="pawaedc"> -18107.57746203 </i>
    <i name="eentropy">     -0.00073090 </i>
    <i name="bandstr">      4.37028755 </i>
    <i name="atom">  22838.20177132 </i>
    <i name="e_fr_energy">   2395.61182732 </i>
    <i name="e_wo_entrp">   2395.61255822 </i>
    <i name="e_0_energy">   2395.61219277 </i>
   </energy>
  </scstep>
  <scstep>
   <time name="total">   70.30   70.99</time>
   <energy>
    <i name="e_fr_energy">   -249.97950303 </i>
    <i name="e_wo_entrp">   -249.97781274 </i>
    <i name="e_0_energy">   -249.97865789 </i>
   </energy>
  </scstep>
  <scstep>
   <time name="total">   78.90   79.69</time>
   <energy>
    <i name="e_fr_energy">   -372.49736457 </i>
    <i name="e_wo_entrp">   -372.49522705 </i>
    <i name="e_0_energy">   -372.49629581 </i>
   </energy>
  </scstep>
  <scstep>
   <time name="total">   74.70   75.45</time>
   <energy>
    <i name="e_fr_energy">   -375.97561628 </i>
    <i name="e_wo_entrp">   -375.97255312 </i>
    <i name="e_0_energy">   -375.97408470 </i>
   </energy>
  </scstep>
  <scstep>
   <time name="total">   80.44   81.24</time>
   <energy>
    <i name="e_fr_energy">   -376.05250689 </i>
    <i name="e_wo_entrp">   -376.04940017 </i>
    <i name="e_0_energy">   -376.05095353 </i>
   </energy>
  </scstep>
  <scstep>
   <time name="total">   84.07   84.94</time>
   <energy>
    <i name="e_fr_energy">    -44.42345037 </i>
    <i name="e_wo_entrp">    -44.42078710 </i>
    <i name="e_0_energy">    -44.42211873 </i>
   </energy>
  </scstep>
  <scstep>
   <time name="total">   89.11   89.92</time>
   <energy>
    <i name="e_fr_energy">   -240.21635594 </i>
    <i name="e_wo_entrp">   -240.21373387 </i>
    <i name="e_0_energy">   -240.21504491 </i>
   </energy>
  </scstep>
  <scstep>
   <time name="total">   90.81   91.63</time>
   <energy>
    <i name="e_fr_energy">   -257.67015024 </i>
    <i name="e_wo_entrp">   -257.66772989 </i>
    <i name="e_0_energy">   -257.66894007 </i>
   </energy>
  </scstep>
  <scstep>
   <time name="total">   88.69   89.51</time>
   <energy>
    <i name="e_fr_energy">   -262.31462394 </i>
    <i name="e_wo_entrp">   -262.31201813 </i>
    <i name="e_0_energy">   -262.31332103 </i>
   </energy>
  </scstep>
  <scstep>
   <time name="total">   91.90   92.76</time>
   <energy>
    <i name="e_fr_energy">   -263.89774253 </i>
    <i name="e_wo_entrp">   -263.89497457 </i>
    <i name="e_0_energy">   -263.89635855 </i>
   </energy>
  </scstep>
  <scstep>
   <time name="total">   98.00   98.88</time>
   <energy>
    <i name="e_fr_energy">   -264.46286281 </i>
    <i name="e_wo_entrp">   -264.45972021 </i>
    <i name="e_0_energy">   -264.46129151 </i>
   </energy>
  </scstep>
  <scstep>
   <time name="total">   94.82   95.64</time>
   <energy>
    <i name="e_fr_energy">   -264.77896279 </i>
    <i name="e_wo_entrp">   -264.77602181 </i>
    <i name="e_0_energy">   -264.77749230 </i>
   </energy>
  </scstep>
  <scstep>
   <time name="total">   96.08   96.95</time>
   <energy>
    <i name="e_fr_energy">   -264.91424019 </i>
    <i name="e_wo_entrp">   -264.91139241 </i>
    <i name="e_0_energy">   -264.91281630 </i>
   </energy>
  </scstep>
  <scstep>
   <time name="total">   91.66   92.49</time>
   <energy>
    <i name="e_fr_energy">   -264.98805124 </i>
    <i name="e_wo_entrp">   -264.98547835 </i>
    <i name="e_0_energy">   -264.98676479 </i>
   </energy>
  </scstep>
  <scstep>
   <time name="total">   92.68   93.49</time>
   <energy>
    <i name="e_fr_energy">   -265.02104768 </i>
    <i name="e_wo_entrp">   -265.01849916 </i>
    <i name="e_0_energy">   -265.01977342 </i>
   </energy>
  </scstep>
  <scstep>
   <time name="total">   91.44   92.25</time>
   <energy>
    <i name="e_fr_energy">   -265.04620575 </i>
    <i name="e_wo_entrp">   -265.04366131 </i>
    <i name="e_0_energy">   -265.04493353 </i>
   </energy>
  </scstep>
  <scstep>
   <time name="total">   90.27   91.09</time>
   <energy>
    <i name="e_fr_energy">   -265.05889371 </i>
    <i name="e_wo_entrp">   -265.05628714 </i>
    <i name="e_0_energy">   -265.05759042 </i>
   </energy>
  </scstep>
  <scstep>
   <time name="total">   90.11   90.94</time>
   <energy>
    <i name="e_fr_energy">   -265.06401515 </i>
    <i name="e_wo_entrp">   -265.06139426 </i>
    <i name="e_0_energy">   -265.06270470 </i>
   </energy>
  </scstep>
  <scstep>
   <time name="total">   94.08   94.92</time>
   <energy>
    <i name="e_fr_energy">   -265.06726275 </i>
    <i name="e_wo_entrp">   -265.06460967 </i>
    <i name="e_0_energy">   -265.06593621 </i>
   </energy>
  </scstep>
  <scstep>
   <time name="total">   89.96   90.76</time>
   <energy>
    <i name="e_fr_energy">   -265.06907745 </i>
    <i name="e_wo_entrp">   -265.06642706 </i>
    <i name="e_0_energy">   -265.06775225 </i>
   </energy>
  </scstep>
  <scstep>
   <time name="total">   92.67   93.51</time>
   <energy>
    <i name="e_fr_energy">   -265.06970169 </i>
    <i name="e_wo_entrp">   -265.06704267 </i>
    <i name="e_0_energy">   -265.06837218 </i>
   </energy>
  </scstep>
  <scstep>
   <time name="total">   93.96   94.79</time>
   <energy>
    <i name="e_fr_energy">   -265.07010111 </i>
    <i name="e_wo_entrp">   -265.06744741 </i>
    <i name="e_0_energy">   -265.06877426 </i>
   </energy>
  </scstep>
  <scstep>
   <time name="total">   96.63   97.47</time>
   <energy>
    <i name="e_fr_energy">   -265.07031572 </i>
    <i name="e_wo_entrp">   -265.06766121 </i>
    <i name="e_0_energy">   -265.06898846 </i>
   </energy>
  </scstep>
  <scstep>
   <time name="total">   95.17   96.00</time>
   <energy>
    <i name="e_fr_energy">   -265.07039628 </i>
    <i name="e_wo_entrp">   -265.06774816 </i>
    <i name="e_0_energy">   -265.06907222 </i>
   </energy>
  </scstep>
  <scstep>
   <time name="total">   95.26   96.08</time>
   <energy>
    <i name="e_fr_energy">   -265.07045799 </i>
    <i name="e_wo_entrp">   -265.06781192 </i>
    <i name="e_0_energy">   -265.06913496 </i>
   </energy>
  </scstep>
  <scstep>
   <time name="total">   88.17   88.96</time>
   <energy>
    <i name="e_fr_energy">   -265.07048798 </i>
    <i name="e_wo_entrp">   -265.06784511 </i>
    <i name="e_0_energy">   -265.06916655 </i>
   </energy>
  </scstep>
  <scstep>
