 vasp.6.2.0 18Jan21 (build Jan 05 2022 15:41:44) complex                        
  
 executed on             LinuxIFC date 2025.05.07  14:21:05
 running on   24 total cores
 distrk:  each k-point on   12 cores,    2 groups
 distr:  one band on NCORE=   2 cores,    6 groups


--------------------------------------------------------------------------------------------------------


 INCAR:
   SYSTEM = routine with relax: pwdword
   ICHARG = 2
   NPAR = 6
   KPAR = 2
   NCORE = 2
   ADDGRID = T
   PREC = Acc
   ENCUT = 600
   METAGGA = R2SCAN
   LASPH = .TRUE.
   LMIXTAU = .FALSE.
   ALGO = A
   EDIFF = 1E-9
   NELM = 100
   NELMIN = 6
   IALGO = 38
   LREAL = F
   NSW = 0
   ISIF = -1
   ISMEAR = 0
   SIGMA = 0.02
   SYMPREC = 1E-4

 POTCAR:    PAW_PBE B 06Sep2000                   
 POTCAR:    PAW_PBE Mo_sv 02Feb2006               
 POTCAR:    PAW_PBE Si 05Jan2001                  
 -----------------------------------------------------------------------------
|                                                                             |
|           W    W    AA    RRRRR   N    N  II  N    N   GGGG   !!!           |
|           W    W   A  A   R    R  NN   N  II  NN   N  G    G  !!!           |
|           W    W  A    A  R    R  N N  N  II  N N  N  G       !!!           |
|           W WW W  AAAAAA  RRRRR   N  N N  II  N  N N  G  GGG   !            |
|           WW  WW  A    A  R   R   N   NN  II  N   NN  G    G                |
|           W    W  A    A  R    R  N    N  II  N    N   GGGG   !!!           |
|                                                                             |
|     For optimal performance we recommend to set                             |
|       NCORE = 2 up to number-of-cores-per-socket                            |
|     NCORE specifies how many cores store one orbital (NPAR=cpu/NCORE).      |
|     This setting can greatly improve the performance of VASP for DFT.       |
|     The default, NCORE=1 might be grossly inefficient on modern             |
|     multi-core architectures or massively parallel machines. Do your        |
|     own testing! More info at https://www.vasp.at/wiki/index.php/NCORE      |
|     Unfortunately you need to use the default for GW and RPA                |
|     calculations (for HF NCORE is supported but not extensively tested      |
|     yet).                                                                   |
|                                                                             |
 -----------------------------------------------------------------------------

 POTCAR:    PAW_PBE B 06Sep2000                   
   VRHFIN =B: s2p1                                                                                  
   LEXCH  = PE                                                                                      
   EATOM  =    71.1703 eV,    5.2309 Ry                                                             
                                                                                                    
   TITEL  = PAW_PBE B 06Sep2000                                                                     
   LULTRA =        F    use ultrasoft PP ?                                                          
   IUNSCR =        1    unscreen: 0-lin 1-nonlin 2-no                                               
   RPACOR =    1.200    partial core radius                                                         
   POMASS =   10.811; ZVAL   =    3.000    mass and valenz                                          
   RCORE  =    1.700    outmost cutoff radius                                                       
   RWIGS  =    1.710; RWIGS  =    0.905    wigner-seitz radius (au A)                               
   ENMAX  =  318.614; ENMIN  =  238.960 eV                                                          
   ICORE  =        2    local potential                                                             
   LCOR   =        T    correct aug charges                                                         
   LPAW   =        T    paw PP                                                                      
   EAUG   =  535.514                                                                                
   DEXC   =    0.000                                                                                
   RMAX   =    1.732    core radius for proj-oper                                                   
   RAUG   =    1.300    factor for augmentation sphere                                              
   RDEP   =    1.757    radius for radial grids                                                     
   RDEPT  =    1.436    core radius for aug-charge                                                  
                                                                                                    
   Atomic configuration                                                                             
    4 entries                                                                                       
     n  l   j            E        occ.                                                              
     1  0  0.50      -180.5896   2.0000                                                             
     2  0  0.50        -9.4431   2.0000                                                             
     2  1  0.50        -3.6068   1.0000                                                             
     3  2  1.50        -4.0817   0.0000                                                             
   Description                                                                                      
     l       E           TYP  RCUT    TYP  RCUT                                                     
     0     -9.4430752     23  1.500                                                                 
     0      0.8675899     23  1.500                                                                 
     1     -3.6067955     23  1.700                                                                 
     1      6.1086146     23  1.700                                                                 
     2     -4.0817478      7  1.700                                                                 
  local pseudopotential read in
  partial core-charges read in
  partial kinetic energy density read in
  atomic valenz-charges read in
  non local Contribution for L=           0  read in
    real space projection operators read in
  non local Contribution for L=           0  read in
    real space projection operators read in
  non local Contribution for L=           1  read in
    real space projection operators read in
  non local Contribution for L=           1  read in
    real space projection operators read in
    PAW grid and wavefunctions read in
 
   number of l-projection  operators is LMAX  =           4
   number of lm-projection operators is LMMAX =           8
 
 POTCAR:    PAW_PBE Mo_sv 02Feb2006               
   VRHFIN =Mo: 4p5s4d                                                                               
   LEXCH  = PE                                                                                      
   EATOM  =  1862.2866 eV,  136.8742 Ry                                                             
                                                                                                    
   TITEL  = PAW_PBE Mo_sv 02Feb2006                                                                 
   LULTRA =        F    use ultrasoft PP ?                                                          
   IUNSCR =        1    unscreen: 0-lin 1-nonlin 2-no                                               
   RPACOR =    2.200    partial core radius                                                         
   POMASS =   95.940; ZVAL   =   14.000    mass and valenz                                          
   RCORE  =    2.500    outmost cutoff radius                                                       
   RWIGS  =    2.750; RWIGS  =    1.455    wigner-seitz radius (au A)                               
   ENMAX  =  242.676; ENMIN  =  182.007 eV                                                          
   ICORE  =        3    local potential                                                             
   LCOR   =        T    correct aug charges                                                         
   LPAW   =        T    paw PP                                                                      
   EAUG   =  446.014                                                                                
   DEXC   =    0.000                                                                                
   RMAX   =    2.563    core radius for proj-oper                                                   
   RAUG   =    1.300    factor for augmentation sphere                                              
   RDEP   =    2.641    radius for radial grids                                                     
   RDEPT  =    2.031    core radius for aug-charge                                                  
                                                                                                    
   Atomic configuration                                                                             
   11 entries                                                                                       
     n  l   j            E        occ.                                                              
     1  0  0.50    -19819.0341   2.0000                                                             
     2  0  0.50     -2799.0127   2.0000                                                             
     2  1  1.50     -2502.0276   6.0000                                                             
     3  0  0.50      -476.4449   2.0000                                                             
     3  1  1.50      -379.1496   6.0000                                                             
     3  2  2.50      -220.9367  10.0000                                                             
     4  0  0.50       -64.3378   2.0000                                                             
     5  0  0.50        -4.0862   1.0000                                                             
     4  1  1.50       -38.4773   6.0000                                                             
     4  2  2.50        -3.7535   5.0000                                                             
     4  3  2.50        -1.3606   0.0000                                                             
   Description                                                                                      
     l       E           TYP  RCUT    TYP  RCUT                                                     
     0    -64.3377829     23  2.100                                                                 
     0     -4.0861640     23  2.400                                                                 
     1    -38.4772993     23  2.100                                                                 
     1     13.6058260     23  2.100                                                                 
     2     -3.7534941     23  2.400                                                                 
     2     -5.1140767     23  2.400                                                                 
     3     -4.0817478     23  2.500                                                                 
  local pseudopotential read in
  partial core-charges read in
  partial kinetic energy density read in
  atomic valenz-charges read in
  non local Contribution for L=           0  read in
    real space projection operators read in
  non local Contribution for L=           0  read in
    real space projection operators read in
  non local Contribution for L=           1  read in
    real space projection operators read in
  non local Contribution for L=           1  read in
    real space projection operators read in
  non local Contribution for L=           2  read in
    real space projection operators read in
  non local Contribution for L=           2  read in
    real space projection operators read in
    PAW grid and wavefunctions read in
 
   number of l-projection  operators is LMAX  =           6
   number of lm-projection operators is LMMAX =          18
 
 POTCAR:    PAW_PBE Si 05Jan2001                  
   VRHFIN =Si: s2p2                                                                                 
   LEXCH  = PE                                                                                      
   EATOM  =   103.0669 eV,    7.5752 Ry                                                             
                                                                                                    
   TITEL  = PAW_PBE Si 05Jan2001                                                                    
   LULTRA =        F    use ultrasoft PP ?                                                          
   IUNSCR =        1    unscreen: 0-lin 1-nonlin 2-no                                               
   RPACOR =    1.500    partial core radius                                                         
   POMASS =   28.085; ZVAL   =    4.000    mass and valenz                                          
   RCORE  =    1.900    outmost cutoff radius                                                       
   RWIGS  =    2.480; RWIGS  =    1.312    wigner-seitz radius (au A)                               
   ENMAX  =  245.345; ENMIN  =  184.009 eV                                                          
   ICORE  =        2    local potential                                                             
   LCOR   =        T    correct aug charges                                                         
   LPAW   =        T    paw PP                                                                      
   EAUG   =  322.069                                                                                
   DEXC   =    0.000                                                                                
   RMAX   =    1.950    core radius for proj-oper                                                   
   RAUG   =    1.300    factor for augmentation sphere                                              
   RDEP   =    1.993    radius for radial grids                                                     
   RDEPT  =    1.837    core radius for aug-charge                                                  
                                                                                                    
   Atomic configuration                                                                             
    6 entries                                                                                       
     n  l   j            E        occ.                                                              
     1  0  0.50     -1785.8828   2.0000                                                             
     2  0  0.50      -139.4969   2.0000                                                             
     2  1  1.50       -95.5546   6.0000                                                             
     3  0  0.50       -10.8127   2.0000                                                             
     3  1  0.50        -4.0811   2.0000                                                             
     3  2  1.50        -4.0817   0.0000                                                             
   Description                                                                                      
     l       E           TYP  RCUT    TYP  RCUT                                                     
     0    -10.8127223     23  1.900                                                                 
     0     -7.6451159     23  1.900                                                                 
     1     -4.0811372     23  1.900                                                                 
     1      2.4879257     23  1.900                                                                 
     2     -4.0817478      7  1.900                                                                 
  local pseudopotential read in
  partial core-charges read in
  partial kinetic energy density read in
  atomic valenz-charges read in
  non local Contribution for L=           0  read in
    real space projection operators read in
  non local Contribution for L=           0  read in
    real space projection operators read in
  non local Contribution for L=           1  read in
    real space projection operators read in
  non local Contribution for L=           1  read in
    real space projection operators read in
    PAW grid and wavefunctions read in
 
   number of l-projection  operators is LMAX  =           4
   number of lm-projection operators is LMMAX =           8
 
 -----------------------------------------------------------------------------
|                                                                             |
|               ----> ADVICE to this user running VASP <----                  |
|                                                                             |
|     You have a (more or less) 'large supercell' and for larger cells it     |
|     might be more efficient to use real-space projection operators.         |
|     Therefore, try LREAL= Auto in the INCAR file.                           |
|     Mind: For very accurate calculation, you might also keep the            |
|     reciprocal projection scheme (i.e. LREAL=.FALSE.).                      |
|                                                                             |
 -----------------------------------------------------------------------------

  PAW_PBE B 06Sep2000                   :
 energy of atom  1       EATOM=  -71.1703
 kinetic energy error for atom=    0.0007 (will be added to EATOM!!)
  PAW_PBE Mo_sv 02Feb2006               :
 energy of atom  2       EATOM=-1862.2866
 kinetic energy error for atom=    0.0041 (will be added to EATOM!!)
  PAW_PBE Si 05Jan2001                  :
 energy of atom  3       EATOM= -103.0669
 kinetic energy error for atom=    0.0003 (will be added to EATOM!!)
 
 
 POSCAR: EA2
  positions in direct lattice
  No initial velocities read in

 METAGGA = R2SCA    LMAXTAU =  6    LMIXTAU =  F

 exchange correlation table for  LEXCH =        8
   RHO(1)=    0.500       N(1)  =     2000
   RHO(2)=  100.500       N(2)  =     4000
 


--------------------------------------------------------------------------------------------------------


 ion  position               nearest neighbor table
   1  0.211  0.711  0.923-   8 0.54   5 2.34  13 2.34
   2  0.289  0.211  0.500-  15 0.54  14 2.34  16 2.34
   3  0.789  0.289  0.077-  10 0.54  12 2.34   7 2.34
   4  0.711  0.789  0.500-   6 0.54  11 2.34   9 2.34
   5  0.519  0.019  0.252-   1 2.34  13 2.37   9 2.78  14 2.78   6 2.82  15 2.82   8 2.82  10 3.00
                             7 3.04
   6  0.668  0.832  0.500-   4 0.54   7 2.82  13 2.82  12 2.82   5 2.82   9 2.82  11 2.82  16 3.00
                            14 3.00  17 3.23  18 3.23
   7  0.767  0.267  0.748-   3 2.34  12 2.37   9 2.78  14 2.78   6 2.82  15 2.82  10 2.82   8 3.00
                             5 3.04
   8  0.168  0.668  0.835-   1 0.54   9 2.82  14 2.82  11 2.82  16 2.82  13 2.82   5 2.82   7 3.00
                            12 3.00  18 3.23  17 3.23
   9  0.733  0.481  0.500-   4 2.34  11 2.37   5 2.78   7 2.78   8 2.82  10 2.82   6 2.82  15 3.00
                            14 3.04
  10  0.832  0.332  0.165-   3 0.54  16 2.82  11 2.82  14 2.82   9 2.82   7 2.82  12 2.82  13 3.00
                             5 3.00  18 3.23  17 3.23
  11  0.019  0.767  0.500-   4 2.34   9 2.37  12 2.78  13 2.78  10 2.82   8 2.82   6 2.82  15 3.00
                            16 3.04
  12  0.481  0.981  0.748-   3 2.34   7 2.37  11 2.78  16 2.78  15 2.82   6 2.82  10 2.82   8 3.00
                            13 3.04
  13  0.233  0.733  0.252-   1 2.34   5 2.37  11 2.78  16 2.78  15 2.82   6 2.82   8 2.82  10 3.00
                            12 3.04
  14  0.981  0.233  0.500-   2 2.34  16 2.37   5 2.78   7 2.78   8 2.82  10 2.82  15 2.82   6 3.00
                             9 3.04
  15  0.332  0.168  0.500-   2 0.54   7 2.82  13 2.82  12 2.82   5 2.82  14 2.82  16 2.82   9 3.00
                            11 3.00  18 3.23  17 3.23
  16  0.267  0.519  0.500-   2 2.34  14 2.37  12 2.78  13 2.78  10 2.82   8 2.82  15 2.82   6 3.00
                            11 3.04
  17  0.000  0.000  0.000-   8 3.23  10 3.23  15 3.23   6 3.23
  18  0.500  0.500  0.000-   8 3.23  10 3.23   6 3.23  15 3.23
 
 -----------------------------------------------------------------------------
|                                                                             |
|           W    W    AA    RRRRR   N    N  II  N    N   GGGG   !!!           |
|           W    W   A  A   R    R  NN   N  II  NN   N  G    G  !!!           |
|           W    W  A    A  R    R  N N  N  II  N N  N  G       !!!           |
|           W WW W  AAAAAA  RRRRR   N  N N  II  N  N N  G  GGG   !            |
|           WW  WW  A    A  R   R   N   NN  II  N   NN  G    G                |
|           W    W  A    A  R    R  N    N  II  N    N   GGGG   !!!           |
|                                                                             |
|     The distance between some ions is very small. Please check the          |
|     nearest-neighbor list in the OUTCAR file.                               |
|     I HOPE YOU KNOW WHAT YOU ARE DOING!                                     |
|                                                                             |
 -----------------------------------------------------------------------------

  LATTYP: Found a body centered tetragonal cell.
 ALAT       =     8.6715888430
 C/A-ratio  =     0.9548545690
  
  Lattice vectors:
  
 A1 = (   7.0264773430,   0.0000000000,  -2.3167128115)
 A2 = (  -3.6754720076,   5.9885131187,  -2.3167128115)
 A3 = (   0.0000000000,   0.0000000000,   7.3985500000)


Analysis of symmetry for initial positions (statically):
=====================================================================
 Subroutine PRICEL returns:
 Original cell was already a primitive cell.
 

 Routine SETGRP: Setting up the symmetry group for a 
 body centered tetragonal supercell.


 Subroutine GETGRP returns: Found 16 space group operations
 (whereof  8 operations were pure point group operations)
 out of a pool of 16 trial point group operations.


The static configuration has the point symmetry C_4h.
 The point group associated with its full space group is D_4h.


Analysis of symmetry for dynamics (positions and initial velocities):
=====================================================================
 Subroutine PRICEL returns:
 Original cell was already a primitive cell.
 

 Routine SETGRP: Setting up the symmetry group for a 
 body centered tetragonal supercell.


 Subroutine GETGRP returns: Found 16 space group operations
 (whereof  8 operations were pure point group operations)
 out of a pool of 16 trial point group operations.


The dynamic configuration has the point symmetry C_4h.
 The point group associated with its full space group is D_4h.


 Subroutine INISYM returns: Found 16 space group operations
 (whereof  8 operations are pure point group operations),
 and found     1 'primitive' translations


----------------------------------------------------------------------------------------

                                     Primitive cell                                     

  volume of cell :     311.3173

  direct lattice vectors                    reciprocal lattice vectors
     7.026477343  0.000000000 -2.316712812     0.142318825  0.087348704  0.000000000
    -3.675472008  5.988513119 -2.316712812     0.000000000  0.166986359  0.000000000
     0.000000000  0.000000000  7.398550000     0.044564387  0.079640105  0.135161620

  length of vectors
     7.398550000  7.398550000  7.398550000     0.166986359  0.166986359  0.163086463

  position of ions in fractional coordinates (direct lattice)
     0.211430000  0.711430000  0.922850000
     0.288570000  0.211430000  0.500000000
     0.788570000  0.288570000  0.077150000
     0.711430000  0.788570000  0.500000000
     0.519440000  0.019440000  0.252300000
     0.667600000  0.832400000  0.500000000
     0.767140000  0.267140000  0.747700000
     0.167600000  0.667600000  0.835210000
     0.732860000  0.480560000  0.500000000
     0.832400000  0.332400000  0.164790000
     0.019440000  0.767140000  0.500000000
     0.480560000  0.980560000  0.747700000
     0.232860000  0.732860000  0.252300000
     0.980560000  0.232860000  0.500000000
     0.332400000  0.167600000  0.500000000
     0.267140000  0.519440000  0.500000000
     0.000000000  0.000000000  0.000000000
     0.500000000  0.500000000  1.000000000

  ion indices of the primitive-cell ions
   primitive index   ion index
                 1           1
                 2           2
                 3           3
                 4           4
                 5           5
                 6           6
                 7           7
                 8           8
                 9           9
                10          10
                11          11
                12          12
                13          13
                14          14
                15          15
                16          16
                17          17
                18          18

----------------------------------------------------------------------------------------

 
 
 KPOINTS: EA                                      

Automatic generation of k-mesh.
 Grid dimensions read from file:
 generate k-points for:    6    6    6

 Generating k-lattice:

  Cartesian coordinates                     Fractional coordinates (reciprocal lattice)
     0.023719804  0.014558117  0.000000000     0.166666667 -0.000000000  0.000000000
     0.000000000  0.027831060  0.000000000     0.000000000  0.166666667  0.000000000
     0.007427398  0.013273351  0.022526937     0.000000000  0.000000000  0.166666667

  Length of vectors
     0.027831060  0.027831060  0.027181077

  Shift w.r.t. Gamma in fractional coordinates (k-lattice)
     0.000000000  0.000000000  0.000000000

 
 Subroutine IBZKPT returns following result:
 ===========================================
 
 Found     30 irreducible k-points:
 
 Following reciprocal coordinates:
            Coordinates               Weight
  0.000000  0.000000  0.000000      1.000000
  0.166667 -0.000000  0.000000      8.000000
  0.333333 -0.000000  0.000000      8.000000
  0.500000 -0.000000  0.000000      4.000000
  0.166667  0.166667  0.000000      8.000000
  0.333333  0.166667  0.000000     16.000000
  0.500000  0.166667  0.000000     16.000000
 -0.333333  0.166667  0.000000     16.000000
 -0.166667  0.166667  0.000000      4.000000
  0.333333  0.333333  0.000000      8.000000
  0.500000  0.333333  0.000000     16.000000
 -0.333333  0.333333  0.000000      4.000000
  0.500000  0.500000  0.000000      2.000000
  0.166667  0.166667  0.166667      8.000000
  0.333333  0.166667  0.166667      8.000000
 -0.166667  0.166667  0.166667      4.000000
  0.333333  0.333333  0.166667      4.000000
 -0.333333  0.333333  0.166667      8.000000
 -0.166667  0.333333  0.166667      8.000000
  0.500000  0.500000  0.166667      4.000000
 -0.333333  0.500000  0.166667     16.000000
 -0.166667  0.500000  0.166667      8.000000
 -0.333333 -0.333333  0.166667      8.000000
 -0.166667 -0.333333  0.166667      8.000000
 -0.166667 -0.166667  0.166667      2.000000
 -0.333333  0.333333  0.333333      4.000000
  0.500000  0.500000  0.333333      4.000000
 -0.333333  0.500000  0.333333      8.000000
 -0.333333 -0.333333  0.333333      2.000000
  0.500000  0.500000  0.500000      1.000000
 
 Following cartesian coordinates:
            Coordinates               Weight
  0.000000  0.000000  0.000000      1.000000
  0.023720  0.014558  0.000000      8.000000
  0.047440  0.029116  0.000000      8.000000
  0.071159  0.043674  0.000000      4.000000
  0.023720  0.042389  0.000000      8.000000
  0.047440  0.056947  0.000000     16.000000
  0.071159  0.071505  0.000000     16.000000
 -0.047440 -0.001285  0.000000     16.000000
 -0.023720  0.013273  0.000000      4.000000
  0.047440  0.084778  0.000000      8.000000
  0.071159  0.099336  0.000000     16.000000
 -0.047440  0.026546  0.000000      4.000000
  0.071159  0.127168  0.000000      2.000000
  0.031147  0.055663  0.022527      8.000000
  0.054867  0.070221  0.022527      8.000000
 -0.016292  0.026546  0.022527      4.000000
  0.054867  0.098052  0.022527      4.000000
 -0.040012  0.039819  0.022527      8.000000
 -0.016292  0.054377  0.022527      8.000000
  0.078587  0.140441  0.022527      4.000000
 -0.040012  0.067650  0.022527     16.000000
 -0.016292  0.082208  0.022527      8.000000
 -0.040012 -0.071505  0.022527      8.000000
 -0.016292 -0.056947  0.022527      8.000000
 -0.016292 -0.029116  0.022527      2.000000
 -0.032585  0.053093  0.045054      4.000000
  0.086014  0.153714  0.045054      4.000000
 -0.032585  0.080924  0.045054      8.000000
 -0.032585 -0.058232  0.045054      2.000000
  0.093442  0.166988  0.067581      1.000000
 


--------------------------------------------------------------------------------------------------------




 Dimension of arrays:
   k-points           NKPTS =     30   k-points in BZ     NKDIM =     30   number of bands    NBANDS=    114
   number of dos      NEDOS =    301   number of ions     NIONS =     18
   non local maximal  LDIM  =      6   non local SUM 2l+1 LMDIM =     18
   total plane-waves  NPLWV = 216000
   max r-space proj   IRMAX =      1   max aug-charges    IRDMAX= 242908
   dimension x,y,z NGX =    60 NGY =   60 NGZ =   60
   dimension x,y,z NGXF=   120 NGYF=  120 NGZF=  120
   support grid    NGXF=   240 NGYF=  240 NGZF=  240
   ions per type =               4  12   2
   NGX,Y,Z   is equivalent  to a cutoff of  13.48, 13.48, 13.48 a.u.
   NGXF,Y,Z  is equivalent  to a cutoff of  26.96, 26.96, 26.96 a.u.

 SYSTEM =  routine with relax: pwdword             
 POSCAR =  EA2                                     

 Startparameter for this run:
   NWRITE =      2    write-flag & timer
   PREC   = acc       normal or accurate (medium, high low for compatibility)
   ISTART =      0    job   : 0-new  1-cont  2-samecut
   ICHARG =      2    charge: 1-file 2-atom 10-const
   ISPIN  =      1    spin polarized calculation?
   LNONCOLLINEAR =      F non collinear calculations
   LSORBIT =      F    spin-orbit coupling
   INIWAV =      1    electr: 0-lowe 1-rand  2-diag
   LASPH  =      T    aspherical Exc in radial PAW
   METAGGA=      F    non-selfconsistent MetaGGA calc.

 Electronic Relaxation 1
   ENCUT  =  600.0 eV  44.10 Ry    6.64 a.u.  14.78 14.78 14.78*2*pi/ulx,y,z
   ENINI  =  600.0     initial cutoff
   ENAUG  =  535.5 eV  augmentation charge cutoff
   NELM   =    100;   NELMIN=  6; NELMDL= -5     # of ELM steps 
   EDIFF  = 0.1E-08   stopping-criterion for ELM
   LREAL  =      F    real-space projection
   NLSPLINE    = F    spline interpolate recip. space projectors
   LCOMPAT=      F    compatible to vasp.4.4
   GGA_COMPAT  = T    GGA compatible to vasp.4.4-vasp.4.6
   LMAXPAW     = -100 max onsite density
   LMAXMIX     =    2 max onsite mixed and CHGCAR
   VOSKOWN=      0    Vosko Wilk Nusair interpolation
   ROPT   =    0.00000   0.00000   0.00000
 Ionic relaxation
   EDIFFG = 0.1E-07   stopping-criterion for IOM
   NSW    =      0    number of steps for IOM
   NBLOCK =      1;   KBLOCK =      1    inner block; outer block 
   IBRION =     -1    ionic relax: 0-MD 1-quasi-New 2-CG
   NFREE  =      0    steps in history (QN), initial steepest desc. (CG)
   ISIF   =     -1    stress and relaxation
   IWAVPR =     10    prediction:  0-non 1-charg 2-wave 3-comb
   ISYM   =      2    0-nonsym 1-usesym 2-fastsym
   LCORR  =      T    Harris-Foulkes like correction to forces

   POTIM  = 0.5000    time-step for ionic-motion
   TEIN   =    0.0    initial temperature
   TEBEG  =    0.0;   TEEND  =   0.0 temperature during run
   SMASS  =  -3.00    Nose mass-parameter (am)
   estimated Nose-frequenzy (Omega)   =  0.10E-29 period in steps = 0.13E+47 mass=  -0.125E-26a.u.
   SCALEE = 1.0000    scale energy and forces
   NPACO  =    256;   APACO  = 16.0  distance and # of slots for P.C.
   PSTRESS=    0.0 pullay stress

  Mass of Ions in am
   POMASS =  10.81 95.94 28.09
  Ionic Valenz
   ZVAL   =   3.00 14.00  4.00
  Atomic Wigner-Seitz radii
   RWIGS  =  -1.00 -1.00 -1.00
  virtual crystal weights 
   VCA    =   1.00  1.00  1.00
   NELECT =     188.0000    total number of electrons
   NUPDOWN=      -1.0000    fix difference up-down

 DOS related values:
   EMIN   =  10.00;   EMAX   =-10.00  energy-range for DOS
   EFERMI =   0.00
   ISMEAR =     0;   SIGMA  =   0.02  broadening in eV -4-tet -1-fermi 0-gaus

 Electronic relaxation 2 (details)
   IALGO  =     58    algorithm
   LDIAG  =      T    sub-space diagonalisation (order eigenvalues)
   LSUBROT=      F    optimize rotation matrix (better conditioning)
   TURBO    =      0    0=normal 1=particle mesh
   IRESTART =      0    0=no restart 2=restart with 2 vectors
   NREBOOT  =      0    no. of reboots
   NMIN     =      0    reboot dimension
   EREF     =   0.00    reference energy to select bands
   IMIX   =      4    mixing-type and parameters
     AMIX     =   0.40;   BMIX     =  1.00
     AMIX_MAG =   1.60;   BMIX_MAG =  1.00
     AMIN     =   0.10
     WC   =   100.;   INIMIX=   1;  MIXPRE=   1;  MAXMIX= -45

 Intra band minimization:
   WEIMIN = 0.0000     energy-eigenvalue tresh-hold
   EBREAK =  0.22E-11  absolut break condition
   DEPER  =   0.30     relativ break condition  

   TIME   =   0.40     timestep for ELM

  volume/ion in A,a.u.               =      17.30       116.72
  Fermi-wavevector in a.u.,A,eV,Ry     =   1.383757  2.614921 26.052193  1.914782
  Thomas-Fermi vector in A             =   2.508325
 
 Write flags
   LWAVE        =      T    write WAVECAR
   LDOWNSAMPLE  =      F    k-point downsampling of WAVECAR
   LCHARG       =      T    write CHGCAR
   LVTOT        =      F    write LOCPOT, total local potential
   LVHAR        =      F    write LOCPOT, Hartree potential only
   LELF         =      F    write electronic localiz. function (ELF)
   LORBIT       =      0    0 simple, 1 ext, 2 COOP (PROOUT), +10 PAW based schemes


 Dipole corrections
   LMONO  =      F    monopole corrections only (constant potential shift)
   LDIPOL =      F    correct potential (dipole corrections)
   IDIPOL =      0    1-x, 2-y, 3-z, 4-all directions 
   EPSILON=  1.0000000 bulk dielectric constant

 Exchange correlation treatment:
   GGA     =    --    GGA type
   LEXCH   =     8    internal setting for exchange type
   VOSKOWN=      0    Vosko Wilk Nusair interpolation
   LHFCALC =     F    Hartree Fock is set to
   LHFONE  =     F    Hartree Fock one center treatment
   AEXX    =    0.0000 exact exchange contribution

 Linear response parameters
   LEPSILON=     F    determine dielectric tensor
   LRPA    =     F    only Hartree local field effects (RPA)
   LNABLA  =     F    use nabla operator in PAW spheres
   LVEL    =     F    velocity operator in full k-point grid
   LINTERFAST=   F  fast interpolation
   KINTER  =     0    interpolate to denser k-point grid
   CSHIFT  =0.1000    complex shift for real part using Kramers Kronig
   OMEGAMAX=  -1.0    maximum frequency
   DEG_THRESHOLD= 0.2000000E-02 threshold for treating states as degnerate
   RTIME   =   -0.100 relaxation time in fs
  (WPLASMAI=    0.000 imaginary part of plasma frequency in eV, 0.658/RTIME)
   DFIELD  = 0.0000000 0.0000000 0.0000000 field for delta impulse in time
 
 Orbital magnetization related:
   ORBITALMAG=     F  switch on orbital magnetization
   LCHIMAG   =     F  perturbation theory with respect to B field
   DQ        =  0.001000  dq finite difference perturbation B field
   LLRAUG    =     F  two centre corrections for induced B field



--------------------------------------------------------------------------------------------------------


 Static calculation
 charge density and potential will be updated during run
 non-spin polarized calculation
 Conjugate gradient for all bands (Freysoldt, et al. PRB 79, 241103 (2009))
 preconditioned conjugated gradient                                        
 perform sub-space diagonalisation
    before iterative eigenvector-optimisation
 modified Broyden-mixing scheme, WC =      100.0
 initial mixing is a Kerker type mixing with AMIX =  0.4000 and BMIX =      1.0000
 Hartree-type preconditioning will be used
 using additional bands           20
 reciprocal scheme for non local part
 use partial core corrections
 no Harris-corrections to forces 
 use gradient corrections 
 use of overlap-Matrix (Vanderbilt PP)
 Gauss-broadening in eV      SIGMA  =   0.02


--------------------------------------------------------------------------------------------------------


  energy-cutoff  :      600.00
  volume of cell :      311.32
      direct lattice vectors                 reciprocal lattice vectors
     7.026477343  0.000000000 -2.316712812     0.142318825  0.087348704  0.000000000
    -3.675472008  5.988513119 -2.316712812     0.000000000  0.166986359  0.000000000
     0.000000000  0.000000000  7.398550000     0.044564387  0.079640105  0.135161620

  length of vectors
     7.398550000  7.398550000  7.398550000     0.166986359  0.166986359  0.163086463


 
 k-points in units of 2pi/SCALE and weight: EA                                      
   0.00000000  0.00000000  0.00000000       0.005
   0.02371980  0.01455812  0.00000000       0.037
   0.04743961  0.02911623  0.00000000       0.037
   0.07115941  0.04367435  0.00000000       0.019
   0.02371980  0.04238918  0.00000000       0.037
   0.04743961  0.05694729  0.00000000       0.074
   0.07115941  0.07150541  0.00000000       0.074
  -0.04743961 -0.00128517  0.00000000       0.074
  -0.02371980  0.01327294  0.00000000       0.019
   0.04743961  0.08477835  0.00000000       0.037
   0.07115941  0.09933647  0.00000000       0.074
  -0.04743961  0.02654589  0.00000000       0.019
   0.07115941  0.12716753  0.00000000       0.009
   0.03114720  0.05566253  0.02252694       0.037
   0.05486701  0.07022065  0.02252694       0.037
  -0.01629241  0.02654629  0.02252694       0.019
   0.05486701  0.09805170  0.02252694       0.019
  -0.04001221  0.03981924  0.02252694       0.037
  -0.01629241  0.05437735  0.02252694       0.037
   0.07858681  0.14044088  0.02252694       0.019
  -0.04001221  0.06765030  0.02252694       0.074
  -0.01629241  0.08220841  0.02252694       0.037
  -0.04001221 -0.07150500  0.02252694       0.037
  -0.01629241 -0.05694689  0.02252694       0.037
  -0.01629241 -0.02911583  0.02252694       0.009
  -0.03258481  0.05309259  0.04505387       0.019
   0.08601421  0.15371423  0.04505387       0.019
  -0.03258481  0.08092365  0.04505387       0.037
  -0.03258481 -0.05823165  0.04505387       0.009
   0.09344161  0.16698758  0.06758081       0.005
 
 k-points in reciprocal lattice and weights: EA                                      
   0.00000000  0.00000000  0.00000000       0.005
   0.16666667 -0.00000000  0.00000000       0.037
   0.33333333 -0.00000000  0.00000000       0.037
   0.50000000 -0.00000000  0.00000000       0.019
   0.16666667  0.16666667  0.00000000       0.037
   0.33333333  0.16666667  0.00000000       0.074
   0.50000000  0.16666667  0.00000000       0.074
  -0.33333333  0.16666667  0.00000000       0.074
  -0.16666667  0.16666667  0.00000000       0.019
   0.33333333  0.33333333  0.00000000       0.037
   0.50000000  0.33333333  0.00000000       0.074
  -0.33333333  0.33333333  0.00000000       0.019
   0.50000000  0.50000000  0.00000000       0.009
   0.16666667  0.16666667  0.16666667       0.037
   0.33333333  0.16666667  0.16666667       0.037
  -0.16666667  0.16666667  0.16666667       0.019
   0.33333333  0.33333333  0.16666667       0.019
  -0.33333333  0.33333333  0.16666667       0.037
  -0.16666667  0.33333333  0.16666667       0.037
   0.50000000  0.50000000  0.16666667       0.019
  -0.33333333  0.50000000  0.16666667       0.074
  -0.16666667  0.50000000  0.16666667       0.037
  -0.33333333 -0.33333333  0.16666667       0.037
  -0.16666667 -0.33333333  0.16666667       0.037
  -0.16666667 -0.16666667  0.16666667       0.009
  -0.33333333  0.33333333  0.33333333       0.019
   0.50000000  0.50000000  0.33333333       0.019
  -0.33333333  0.50000000  0.33333333       0.037
  -0.33333333 -0.33333333  0.33333333       0.009
   0.50000000  0.50000000  0.50000000       0.005
 
 position of ions in fractional coordinates (direct lattice) 
   0.21143000  0.71143000  0.92285000
   0.28857000  0.21143000  0.50000000
   0.78857000  0.28857000  0.07715000
   0.71143000  0.78857000  0.50000000
   0.51944000  0.01944000  0.25230000
   0.66760000  0.83240000  0.50000000
   0.76714000  0.26714000  0.74770000
   0.16760000  0.66760000  0.83521000
   0.73286000  0.48056000  0.50000000
   0.83240000  0.33240000  0.16479000
   0.01944000  0.76714000  0.50000000
   0.48056000  0.98056000  0.74770000
   0.23286000  0.73286000  0.25230000
   0.98056000  0.23286000  0.50000000
   0.33240000  0.16760000  0.50000000
   0.26714000  0.51944000  0.50000000
   0.00000000  0.00000000  0.00000000
   0.50000000  0.50000000  0.00000000
 
 position of ions in cartesian coordinates  (Angst):
  -1.12923295  4.26040789  4.68975028
   1.25052552  1.26615133  2.54091859
   4.48023828  1.72810523 -1.92462591
   2.10047982  4.72236179  0.22420578
   3.57838222  0.11641670  0.61822397
   1.63141338  4.98483832  0.22420578
   4.40842624  1.59977139  3.13576611
  -1.27610751  3.99793136  4.24442441
   3.38313936  2.87783986  0.88812934
   4.62711284  1.99058176 -1.47930003
  -2.68300688  4.59402795  1.87699504
  -0.22737688  5.87209642  2.14690041
  -1.05742090  4.38874172 -0.37064173
   6.03401221  1.39448516  0.88812934
   1.71959196  1.00367480  2.54091859
  -0.03213402  3.11067325  1.87699504
   0.00000000  0.00000000  0.00000000
   1.67550267  2.99425656 -2.31671281
 


--------------------------------------------------------------------------------------------------------


 k-point   1 :   0.0000 0.0000 0.0000  plane waves:   10417
 k-point   2 :   0.1667-0.0000 0.0000  plane waves:   10385
 k-point   3 :   0.3333-0.0000 0.0000  plane waves:   10375
 k-point   4 :   0.5000-0.0000 0.0000  plane waves:   10396
 k-point   5 :   0.1667 0.1667 0.0000  plane waves:   10390
 k-point   6 :   0.3333 0.1667 0.0000  plane waves:   10379
 k-point   7 :   0.5000 0.1667 0.0000  plane waves:   10390
 k-point   8 :  -0.3333 0.1667 0.0000  plane waves:   10380
 k-point   9 :  -0.1667 0.1667 0.0000  plane waves:   10399
 k-point  10 :   0.3333 0.3333 0.0000  plane waves:   10383
 k-point  11 :   0.5000 0.3333 0.0000  plane waves:   10401
 k-point  12 :  -0.3333 0.3333 0.0000  plane waves:   10400
 k-point  13 :   0.5000 0.5000 0.0000  plane waves:   10400
 k-point  14 :   0.1667 0.1667 0.1667  plane waves:   10371
 k-point  15 :   0.3333 0.1667 0.1667  plane waves:   10366
 k-point  16 :  -0.1667 0.1667 0.1667  plane waves:   10371
 k-point  17 :   0.3333 0.3333 0.1667  plane waves:   10390
 k-point  18 :  -0.3333 0.3333 0.1667  plane waves:   10388
 k-point  19 :  -0.1667 0.3333 0.1667  plane waves:   10383
 k-point  20 :   0.5000 0.5000 0.1667  plane waves:   10388
 k-point  21 :  -0.3333 0.5000 0.1667  plane waves:   10396
 k-point  22 :  -0.1667 0.5000 0.1667  plane waves:   10399
 k-point  23 :  -0.3333-0.3333 0.1667  plane waves:   10400
 k-point  24 :  -0.1667-0.3333 0.1667  plane waves:   10400
 k-point  25 :  -0.1667-0.1667 0.1667  plane waves:   10377
 k-point  26 :  -0.3333 0.3333 0.3333  plane waves:   10399
 k-point  27 :   0.5000 0.5000 0.3333  plane waves:   10404
 k-point  28 :  -0.3333 0.5000 0.3333  plane waves:   10388
 k-point  29 :  -0.3333-0.3333 0.3333  plane waves:   10408
 k-point  30 :   0.5000 0.5000 0.5000  plane waves:   10404

 maximum and minimum number of plane-waves per node :      5236     5164

 maximum number of plane-waves:     10417
 maximum index in each direction: 
   IXMAX=   15   IYMAX=   15   IZMAX=   14
   IXMIN=  -15   IYMIN=  -15   IZMIN=  -15


 parallel 3D FFT for wavefunctions:
    minimum data exchange during FFTs selected (reduces bandwidth)
 parallel 3D FFT for charge:
    minimum data exchange during FFTs selected (reduces bandwidth)


 total amount of memory used by VASP MPI-rank0   289110. kBytes
=======================================================================

   base      :      30000. kBytes
   nonl-proj :      69393. kBytes
   fftplans  :      24349. kBytes
   grid      :      18307. kBytes
   one-center:        139. kBytes
   wavefun   :     146922. kBytes
 
     INWAV:  cpu time    0.0001: real time    0.0001
 Broyden mixing: mesh for mixing (old mesh)
   NGX = 29   NGY = 29   NGZ = 29
  (NGX  =120   NGY  =120   NGZ  =120)
  gives a total of  24389 points

 initial charge density was supplied:
 charge density of overlapping atoms calculated
 number of electron     188.0000000 magnetization 
 keeping initial charge density in first step


--------------------------------------------------------------------------------------------------------


 Maximum index for augmentation-charges        19531 (set IRDMAX)


--------------------------------------------------------------------------------------------------------


 First call to EWALD:  gamma=   0.262
 Maximum number of real-space cells 3x 3x 3
 Maximum number of reciprocal cells 3x 3x 3

    FEWALD:  cpu time    0.0020: real time    0.0020


--------------------------------------- Iteration      1(   1)  ---------------------------------------


    POTLOK:  cpu time    0.2601: real time    0.2633
    SETDIJ:  cpu time    0.7170: real time    0.7223
    TRIAL :  cpu time   27.7592: real time   28.0390
    CORREC:  cpu time    0.0012: real time    0.0012
    --------------------------------------------
      LOOP:  cpu time   28.8023: real time   29.0950

 eigenvalue-minimisations  :  7284
 total energy-change (2. order) : 0.3795259E+04  (-0.1353178E+05)
 number of electron     188.0000000 magnetization 
 augmentation part      188.0000000 magnetization 

 Free energy of the ion-electron system (eV)
  ---------------------------------------------------
  alpha Z        PSCENC =      1019.45355762
  Ewald energy   TEWEN  =    -12380.30734980
  -Hartree energ DENC   =     -7810.65846516
  -exchange      EXHF   =         0.00000000
  -V(xc)+E(xc)   XCENC  =       952.31283757
  PAW double counting   =     18167.42904368   -18107.57746203
  entropy T*S    EENTRO =        -0.00152172
  eigenvalues    EBANDS =      -883.59374277
  atomic energy  EATOM  =     22838.20177132
  ---------------------------------------------------
  free energy    TOTEN  =      3795.25866871 eV

  energy without entropy =     3795.26019044  energy(sigma->0) =     3795.25942957


--------------------------------------------------------------------------------------------------------




--------------------------------------- Iteration      1(   2)  ---------------------------------------


    TRIAL :  cpu time   27.9632: real time   28.5067
    CORREC:  cpu time    0.0011: real time    0.0011
    --------------------------------------------
      LOOP:  cpu time   27.9671: real time   28.5112

 eigenvalue-minimisations  :  7476
 total energy-change (2. order) :-0.2692941E+04  (-0.2626438E+04)
 number of electron     188.0000000 magnetization 
 augmentation part      188.0000000 magnetization 

 Free energy of the ion-electron system (eV)
  ---------------------------------------------------
  alpha Z        PSCENC =      1019.45355762
  Ewald energy   TEWEN  =    -12380.30734980
  -Hartree energ DENC   =     -7810.65846516
  -exchange      EXHF   =         0.00000000
  -V(xc)+E(xc)   XCENC  =       952.31283757
  PAW double counting   =     18167.42904368   -18107.57746203
  entropy T*S    EENTRO =        -0.00208268
  eigenvalues    EBANDS =     -3576.53437749
  atomic energy  EATOM  =     22838.20177132
  ---------------------------------------------------
  free energy    TOTEN  =      1102.31747304 eV

  energy without entropy =     1102.31955571  energy(sigma->0) =     1102.31851437


--------------------------------------------------------------------------------------------------------




--------------------------------------- Iteration      1(   3)  ---------------------------------------


    TRIAL :  cpu time   30.5133: real time   30.9798
    CORREC:  cpu time    0.0011: real time    0.0011
    --------------------------------------------
      LOOP:  cpu time   30.5149: real time   30.9837

 eigenvalue-minimisations  :  8730
 total energy-change (2. order) :-0.1238707E+03  (-0.1187844E+03)
 number of electron     188.0000000 magnetization 
 augmentation part      188.0000000 magnetization 

 Free energy of the ion-electron system (eV)
  ---------------------------------------------------
  alpha Z        PSCENC =      1019.45355762
  Ewald energy   TEWEN  =    -12380.30734980
  -Hartree energ DENC   =     -7810.65846516
  -exchange      EXHF   =         0.00000000
  -V(xc)+E(xc)   XCENC  =       952.31283757
  PAW double counting   =     18167.42904368   -18107.57746203
  entropy T*S    EENTRO =        -0.00161284
  eigenvalues    EBANDS =     -3700.40553967
  atomic energy  EATOM  =     22838.20177132
  ---------------------------------------------------
  free energy    TOTEN  =       978.44678069 eV

  energy without entropy =      978.44839353  energy(sigma->0) =      978.44758711


--------------------------------------------------------------------------------------------------------




--------------------------------------- Iteration      1(   4)  ---------------------------------------


    TRIAL :  cpu time   29.8057: real time   30.2538
    CORREC:  cpu time    0.0011: real time    0.0011
    --------------------------------------------
      LOOP:  cpu time   29.8075: real time   30.2578

 eigenvalue-minimisations  :  8232
 total energy-change (2. order) :-0.3408900E+01  (-0.3334822E+01)
 number of electron     188.0000000 magnetization 
 augmentation part      188.0000000 magnetization 

 Free energy of the ion-electron system (eV)
  ---------------------------------------------------
  alpha Z        PSCENC =      1019.45355762
  Ewald energy   TEWEN  =    -12380.30734980
  -Hartree energ DENC   =     -7810.65846516
  -exchange      EXHF   =         0.00000000
  -V(xc)+E(xc)   XCENC  =       952.31283757
  PAW double counting   =     18167.42904368   -18107.57746203
  entropy T*S    EENTRO =        -0.00195370
  eigenvalues    EBANDS =     -3703.81409900
  atomic energy  EATOM  =     22838.20177132
  ---------------------------------------------------
  free energy    TOTEN  =       975.03788050 eV

  energy without entropy =      975.03983420  energy(sigma->0) =      975.03885735


--------------------------------------------------------------------------------------------------------




--------------------------------------- Iteration      1(   5)  ---------------------------------------


    TRIAL :  cpu time   31.2029: real time   31.6346
    CORREC:  cpu time    0.0011: real time    0.0011
    CHARGE:  cpu time    2.0052: real time    2.0259
    --------------------------------------------
      LOOP:  cpu time   33.2107: real time   33.6647

 eigenvalue-minimisations  :  8712
 total energy-change (2. order) :-0.8466330E-01  (-0.8437905E-01)
 number of electron     188.0000003 magnetization 
 augmentation part       36.4464887 magnetization 

 Free energy of the ion-electron system (eV)
  ---------------------------------------------------
  alpha Z        PSCENC =      1019.45355762
  Ewald energy   TEWEN  =    -12380.30734980
  -Hartree energ DENC   =     -7810.65846516
  -exchange      EXHF   =         0.00000000
  -V(xc)+E(xc)   XCENC  =       952.31283757
  PAW double counting   =     18167.42904368   -18107.57746203
  entropy T*S    EENTRO =        -0.00200964
  eigenvalues    EBANDS =     -3703.89870636
  atomic energy  EATOM  =     22838.20177132
  ---------------------------------------------------
  free energy    TOTEN  =       974.95321720 eV

  energy without entropy =      974.95522684  energy(sigma->0) =      974.95422202


--------------------------------------------------------------------------------------------------------




--------------------------------------- Iteration      1(   6)  ---------------------------------------


    POTLOK:  cpu time    0.2427: real time    0.2444
    SETDIJ:  cpu time    0.7262: real time    0.7313
    TRIAL :  cpu time   24.1098: real time   24.3935
    CORREC:  cpu time    8.7925: real time    8.8790
    CHARGE:  cpu time    1.9911: real time    2.0103
    --------------------------------------------
      LOOP:  cpu time   35.8636: real time   36.2604

 eigenvalue-minimisations  :     0
 total energy-change (2. order) : 0.5694801E+03  (-0.2755882E+03)
 number of electron     188.0000010 magnetization 
 augmentation part       33.6946691 magnetization 

 Free energy of the ion-electron system (eV)
  ---------------------------------------------------
  alpha Z        PSCENC =      1019.45355762
  Ewald energy   TEWEN  =    -12380.30734980
  -Hartree energ DENC   =     -9592.80542138
  -exchange      EXHF   =         0.00000000
  -V(xc)+E(xc)   XCENC  =      1035.94390200
  PAW double counting   =    433721.50197348  -433576.42441641
  entropy T*S    EENTRO =        -0.00364774
  eigenvalues    EBANDS =     -1521.12865983
  atomic energy  EATOM  =     22838.20177132
  ---------------------------------------------------
  free energy    TOTEN  =      1544.43334736 eV

  energy without entropy =     1544.43699510  energy(sigma->0) =     1544.43517123


--------------------------------------------------------------------------------------------------------




--------------------------------------- Iteration      1(   7)  ---------------------------------------


    POTLOK:  cpu time    0.2119: real time    0.2134
    SETDIJ:  cpu time    0.7352: real time    0.7403
    TRIAL :  cpu time   24.7388: real time   25.1440
    CORREC:  cpu time    8.9734: real time    9.0598
    CHARGE:  cpu time    2.1002: real time    2.1196
    --------------------------------------------
      LOOP:  cpu time   36.7606: real time   37.2804

 eigenvalue-minimisations  :     0
 total energy-change (2. order) :-0.2887895E+03  (-0.4096725E+02)
 number of electron     188.0000011 magnetization 
 augmentation part       33.5516852 magnetization 

 Free energy of the ion-electron system (eV)
  ---------------------------------------------------
  alpha Z        PSCENC =      1019.45355762
  Ewald energy   TEWEN  =    -12380.30734980
  -Hartree energ DENC   =     -8602.58817523
  -exchange      EXHF   =         0.00000000
  -V(xc)+E(xc)   XCENC  =      1005.48957321
  PAW double counting   =    167972.59406932  -167876.22749078
  entropy T*S    EENTRO =        -0.00365091
  eigenvalues    EBANDS =     -2720.96842653
  atomic energy  EATOM  =     22838.20177132
  ---------------------------------------------------
  free energy    TOTEN  =      1255.64388139 eV

  energy without entropy =     1255.64753230  energy(sigma->0) =     1255.64570684


--------------------------------------------------------------------------------------------------------




--------------------------------------- Iteration      1(   8)  ---------------------------------------


    POTLOK:  cpu time    0.2287: real time    0.2303
    SETDIJ:  cpu time    0.7171: real time    0.7224
    TRIAL :  cpu time   24.9415: real time   25.3163
    CORREC:  cpu time    8.6195: real time    8.7023
    CHARGE:  cpu time    2.0705: real time    2.0901
    --------------------------------------------
      LOOP:  cpu time   36.5782: real time   37.0632

 eigenvalue-minimisations  :     0
 total energy-change (2. order) :-0.4123959E+02  (-0.1478050E+02)
 number of electron     188.0000010 magnetization 
 augmentation part       34.0692795 magnetization 

 Free energy of the ion-electron system (eV)
  ---------------------------------------------------
  alpha Z        PSCENC =      1019.45355762
  Ewald energy   TEWEN  =    -12380.30734980
  -Hartree energ DENC   =     -8326.31338267
  -exchange      EXHF   =         0.00000000
  -V(xc)+E(xc)   XCENC  =       997.53781721
  PAW double counting   =    133252.32330663  -133161.47065773
  entropy T*S    EENTRO =        -0.00402138
  eigenvalues    EBANDS =     -3025.01712055
  atomic energy  EATOM  =     22838.20177132
  ---------------------------------------------------
  free energy    TOTEN  =      1214.40429113 eV

  energy without entropy =     1214.40831251  energy(sigma->0) =     1214.40630182


--------------------------------------------------------------------------------------------------------




--------------------------------------- Iteration      1(   9)  ---------------------------------------


    POTLOK:  cpu time    0.2431: real time    0.2448
    SETDIJ:  cpu time    0.7906: real time    0.7957
    TRIAL :  cpu time   24.8266: real time   25.1327
    CORREC:  cpu time    9.3380: real time    9.4277
    CHARGE:  cpu time    2.0307: real time    2.0505
    --------------------------------------------
      LOOP:  cpu time   37.2449: real time   37.6677

 eigenvalue-minimisations  :     0
 total energy-change (2. order) :-0.1477876E+02  (-0.7518128E+01)
 number of electron     188.0000009 magnetization 
 augmentation part       34.2315074 magnetization 

 Free energy of the ion-electron system (eV)
  ---------------------------------------------------
  alpha Z        PSCENC =      1019.45355762
  Ewald energy   TEWEN  =    -12380.30734980
  -Hartree energ DENC   =     -8300.59873344
  -exchange      EXHF   =         0.00000000
  -V(xc)+E(xc)   XCENC  =       999.02110392
  PAW double counting   =    130167.27850250  -130070.36195440
  entropy T*S    EENTRO =        -0.00321641
  eigenvalues    EBANDS =     -3073.05734170
  atomic energy  EATOM  =     22838.20177132
  ---------------------------------------------------
  free energy    TOTEN  =      1199.62553464 eV

  energy without entropy =     1199.62875105  energy(sigma->0) =     1199.62714285


--------------------------------------------------------------------------------------------------------




--------------------------------------- Iteration      1(  10)  ---------------------------------------


    POTLOK:  cpu time    0.2150: real time    0.2163
    SETDIJ:  cpu time    0.7334: real time    0.7387
    TRIAL :  cpu time   24.9575: real time   25.4405
    CORREC:  cpu time    8.7859: real time    8.8687
    CHARGE:  cpu time    2.1252: real time    2.1442
    --------------------------------------------
      LOOP:  cpu time   36.8183: real time   37.4122

 eigenvalue-minimisations  :     0
 total energy-change (2. order) :-0.7486494E+01  (-0.2570477E+01)
 number of electron     188.0000008 magnetization 
 augmentation part       34.2221901 magnetization 

 Free energy of the ion-electron system (eV)
  ---------------------------------------------------
  alpha Z        PSCENC =      1019.45355762
  Ewald energy   TEWEN  =    -12380.30734980
  -Hartree energ DENC   =     -8310.02648387
  -exchange      EXHF   =         0.00000000
  -V(xc)+E(xc)   XCENC  =      1000.41101301
  PAW double counting   =    129873.79096017  -129774.60634611
  entropy T*S    EENTRO =        -0.00322154
  eigenvalues    EBANDS =     -3074.77486565
  atomic energy  EATOM  =     22838.20177132
  ---------------------------------------------------
  free energy    TOTEN  =      1192.13904029 eV

  energy without entropy =     1192.14226183  energy(sigma->0) =     1192.14065106


--------------------------------------------------------------------------------------------------------




--------------------------------------- Iteration      1(  11)  ---------------------------------------


    POTLOK:  cpu time    0.2730: real time    0.2749
    SETDIJ:  cpu time    0.6866: real time    0.6916
    TRIAL :  cpu time   24.8945: real time   25.1743
    CORREC:  cpu time    8.7687: real time    8.8524
    CHARGE:  cpu time    2.1717: real time    2.1914
    --------------------------------------------
      LOOP:  cpu time   36.7962: real time   37.1875

 eigenvalue-minimisations  :     0
 total energy-change (2. order) :-0.2568073E+01  (-0.8843299E+00)
 number of electron     188.0000008 magnetization 
 augmentation part       34.1720910 magnetization 

 Free energy of the ion-electron system (eV)
  ---------------------------------------------------
  alpha Z        PSCENC =      1019.45355762
  Ewald energy   TEWEN  =    -12380.30734980
  -Hartree energ DENC   =     -8313.56430949
  -exchange      EXHF   =         0.00000000
  -V(xc)+E(xc)   XCENC  =      1000.64036411
  PAW double counting   =    130186.09844726  -130086.44414835
  entropy T*S    EENTRO =        -0.00338821
  eigenvalues    EBANDS =     -3074.50414367
  atomic energy  EATOM  =     22838.20177132
  ---------------------------------------------------
  free energy    TOTEN  =      1189.57096746 eV

  energy without entropy =     1189.57435568  energy(sigma->0) =     1189.57266157


--------------------------------------------------------------------------------------------------------




--------------------------------------- Iteration      1(  12)  ---------------------------------------


    POTLOK:  cpu time    0.2536: real time    0.2553
    SETDIJ:  cpu time    0.7035: real time    0.7081
    TRIAL :  cpu time   25.2300: real time   25.6166
    CORREC:  cpu time    8.7791: real time    8.8630
    CHARGE:  cpu time    2.0402: real time    2.0587
    --------------------------------------------
      LOOP:  cpu time   37.0082: real time   37.5039

 eigenvalue-minimisations  :     0
 total energy-change (2. order) :-0.8840660E+00  (-0.4392305E+00)
 number of electron     188.0000007 magnetization 
 augmentation part       34.1118296 magnetization 

 Free energy of the ion-electron system (eV)
  ---------------------------------------------------
  alpha Z        PSCENC =      1019.45355762
  Ewald energy   TEWEN  =    -12380.30734980
  -Hartree energ DENC   =     -8312.02424162
  -exchange      EXHF   =         0.00000000
  -V(xc)+E(xc)   XCENC  =      1000.38633835
  PAW double counting   =    129798.29916955  -129698.56236840
  entropy T*S    EENTRO =        -0.00359213
  eigenvalues    EBANDS =     -3076.75658734
  atomic energy  EATOM  =     22838.20177132
  ---------------------------------------------------
  free energy    TOTEN  =      1188.68690147 eV

  energy without entropy =     1188.69049360  energy(sigma->0) =     1188.68869754


--------------------------------------------------------------------------------------------------------




--------------------------------------- Iteration      1(  13)  ---------------------------------------


    POTLOK:  cpu time    0.2507: real time    0.2524
    SETDIJ:  cpu time    0.7079: real time    0.7130
    TRIAL :  cpu time   25.3481: real time   25.7910
    CORREC:  cpu time    8.7828: real time    8.8685
    CHARGE:  cpu time    2.1351: real time    2.1552
    --------------------------------------------
      LOOP:  cpu time   37.2274: real time   37.7832

 eigenvalue-minimisations  :     0
 total energy-change (2. order) :-0.4391845E+00  (-0.1830383E+00)
 number of electron     188.0000007 magnetization 
 augmentation part       34.1078619 magnetization 

 Free energy of the ion-electron system (eV)
  ---------------------------------------------------
  alpha Z        PSCENC =      1019.45355762
  Ewald energy   TEWEN  =    -12380.30734980
  -Hartree energ DENC   =     -8305.19856745
  -exchange      EXHF   =         0.00000000
  -V(xc)+E(xc)   XCENC  =       999.86490918
  PAW double counting   =    128161.51986566  -128062.45301000
  entropy T*S    EENTRO =        -0.00323466
  eigenvalues    EBANDS =     -3082.82986743
  atomic energy  EATOM  =     22838.20177132
  ---------------------------------------------------
  free energy    TOTEN  =      1188.24771698 eV

  energy without entropy =     1188.25095164  energy(sigma->0) =     1188.24933431


--------------------------------------------------------------------------------------------------------




--------------------------------------- Iteration      1(  14)  ---------------------------------------


    POTLOK:  cpu time    0.2121: real time    0.2136
    SETDIJ:  cpu time    0.7380: real time    0.7427
    TRIAL :  cpu time   25.4107: real time   25.8508
    CORREC:  cpu time    8.8723: real time    8.9592
    CHARGE:  cpu time    1.9842: real time    2.0026
    --------------------------------------------
      LOOP:  cpu time   37.2196: real time   37.7718

 eigenvalue-minimisations  :     0
 total energy-change (2. order) :-0.1829262E+00  (-0.9666819E-01)
 number of electron     188.0000007 magnetization 
 augmentation part       34.1340085 magnetization 

 Free energy of the ion-electron system (eV)
  ---------------------------------------------------
  alpha Z        PSCENC =      1019.45355762
  Ewald energy   TEWEN  =    -12380.30734980
  -Hartree energ DENC   =     -8301.76272477
  -exchange      EXHF   =         0.00000000
  -V(xc)+E(xc)   XCENC  =       999.69441372
  PAW double counting   =    127734.72667749  -127636.10256783
  entropy T*S    EENTRO =        -0.00286369
  eigenvalues    EBANDS =     -3085.83575236
  atomic energy  EATOM  =     22838.20177132
  ---------------------------------------------------
  free energy    TOTEN  =      1188.06479074 eV

  energy without entropy =     1188.06765443  energy(sigma->0) =     1188.06622259


--------------------------------------------------------------------------------------------------------




--------------------------------------- Iteration      1(  15)  ---------------------------------------


    POTLOK:  cpu time    0.2230: real time    0.2245
    SETDIJ:  cpu time    0.8054: real time    0.8108
    TRIAL :  cpu time   25.2333: real time   25.5244
    CORREC:  cpu time    8.7379: real time    8.8246
    CHARGE:  cpu time    1.9906: real time    2.0107
    --------------------------------------------
      LOOP:  cpu time   36.9917: real time   37.3977

 eigenvalue-minimisations  :     0
 total energy-change (2. order) :-0.9670991E-01  (-0.5394979E-01)
 number of electron     188.0000007 magnetization 
 augmentation part       34.1454128 magnetization 

 Free energy of the ion-electron system (eV)
  ---------------------------------------------------
  alpha Z        PSCENC =      1019.45355762
  Ewald energy   TEWEN  =    -12380.30734980
  -Hartree energ DENC   =     -8302.44188572
  -exchange      EXHF   =         0.00000000
  -V(xc)+E(xc)   XCENC  =       999.81437229
  PAW double counting   =    128200.02887151  -128101.49411768
  entropy T*S    EENTRO =        -0.00271208
  eigenvalues    EBANDS =     -3085.28427502
  atomic energy  EATOM  =     22838.20177132
  ---------------------------------------------------
  free energy    TOTEN  =      1187.96808083 eV

  energy without entropy =     1187.97079291  energy(sigma->0) =     1187.96943687


--------------------------------------------------------------------------------------------------------




--------------------------------------- Iteration      1(  16)  ---------------------------------------


    POTLOK:  cpu time    0.2247: real time    0.2265
    SETDIJ:  cpu time    0.7237: real time    0.7290
    TRIAL :  cpu time   24.9520: real time   25.3308
    CORREC:  cpu time    8.7341: real time    8.8212
    CHARGE:  cpu time    2.0413: real time    2.0604
    --------------------------------------------
      LOOP:  cpu time   36.6789: real time   37.1717

 eigenvalue-minimisations  :     0
 total energy-change (2. order) :-0.5387098E-01  (-0.2807409E-01)
 number of electron     188.0000007 magnetization 
 augmentation part       34.1389941 magnetization 

 Free energy of the ion-electron system (eV)
  ---------------------------------------------------
  alpha Z        PSCENC =      1019.45355762
  Ewald energy   TEWEN  =    -12380.30734980
  -Hartree energ DENC   =     -8304.86757454
  -exchange      EXHF   =         0.00000000
  -V(xc)+E(xc)   XCENC  =       999.92616524
  PAW double counting   =    128119.26282627  -128020.95578718
  entropy T*S    EENTRO =        -0.00280717
  eigenvalues    EBANDS =     -3082.79668700
  atomic energy  EATOM  =     22838.20177132
  ---------------------------------------------------
  free energy    TOTEN  =      1187.91420985 eV

  energy without entropy =     1187.91701701  energy(sigma->0) =     1187.91561343


--------------------------------------------------------------------------------------------------------




--------------------------------------- Iteration      1(  17)  ---------------------------------------


    POTLOK:  cpu time    0.2169: real time    0.2185
    SETDIJ:  cpu time    0.8127: real time    0.8187
    TRIAL :  cpu time   24.8623: real time   25.2726
    CORREC:  cpu time    9.3039: real time    9.3925
    CHARGE:  cpu time    2.0266: real time    2.0463
    --------------------------------------------
      LOOP:  cpu time   37.2241: real time   37.7521

 eigenvalue-minimisations  :     0
 total energy-change (2. order) :-0.2802467E-01  (-0.1469070E-01)
 number of electron     188.0000007 magnetization 
 augmentation part       34.1359247 magnetization 

 Free energy of the ion-electron system (eV)
  ---------------------------------------------------
  alpha Z        PSCENC =      1019.45355762
  Ewald energy   TEWEN  =    -12380.30734980
  -Hartree energ DENC   =     -8305.37024253
  -exchange      EXHF   =         0.00000000
  -V(xc)+E(xc)   XCENC  =       999.93205495
  PAW double counting   =    127795.63199076  -127697.46983228
  entropy T*S    EENTRO =        -0.00300775
  eigenvalues    EBANDS =     -3082.18295769
  atomic energy  EATOM  =     22838.20177132
  ---------------------------------------------------
  free energy    TOTEN  =      1187.88618517 eV

  energy without entropy =     1187.88919292  energy(sigma->0) =     1187.88768905


--------------------------------------------------------------------------------------------------------




--------------------------------------- Iteration      1(  18)  ---------------------------------------


    POTLOK:  cpu time    0.2235: real time    0.2252
    SETDIJ:  cpu time    0.8285: real time    0.8340
    TRIAL :  cpu time   24.9301: real time   25.3993
    CORREC:  cpu time    8.7569: real time    8.8446
    CHARGE:  cpu time    1.9556: real time    1.9740
    --------------------------------------------
      LOOP:  cpu time   36.6963: real time   37.2798

 eigenvalue-minimisations  :     0
 total energy-change (2. order) :-0.1467360E-01  (-0.9050566E-02)
 number of electron     188.0000007 magnetization 
 augmentation part       34.1397781 magnetization 

 Free energy of the ion-electron system (eV)
  ---------------------------------------------------
  alpha Z        PSCENC =      1019.45355762
  Ewald energy   TEWEN  =    -12380.30734980
  -Hartree energ DENC   =     -8304.72616820
  -exchange      EXHF   =         0.00000000
  -V(xc)+E(xc)   XCENC  =       999.92003422
  PAW double counting   =    127718.27947630  -127619.99799424
  entropy T*S    EENTRO =        -0.00312858
  eigenvalues    EBANDS =     -3082.94880790
  atomic energy  EATOM  =     22838.20177132
  ---------------------------------------------------
  free energy    TOTEN  =      1187.87151157 eV

  energy without entropy =     1187.87464015  energy(sigma->0) =     1187.87307586


--------------------------------------------------------------------------------------------------------




--------------------------------------- Iteration      1(  19)  ---------------------------------------


    POTLOK:  cpu time    0.2206: real time    0.2219
    SETDIJ:  cpu time    0.7720: real time    0.7767
    TRIAL :  cpu time   24.6754: real time   25.1150
    CORREC:  cpu time    8.7445: real time    8.8283
    CHARGE:  cpu time    2.0547: real time    2.0751
    --------------------------------------------
      LOOP:  cpu time   36.4702: real time   37.0209

 eigenvalue-minimisations  :     0
 total energy-change (2. order) :-0.9034647E-02  (-0.4910897E-02)
 number of electron     188.0000007 magnetization 
 augmentation part       34.1416345 magnetization 

 Free energy of the ion-electron system (eV)
  ---------------------------------------------------
  alpha Z        PSCENC =      1019.45355762
  Ewald energy   TEWEN  =    -12380.30734980
  -Hartree energ DENC   =     -8305.02113145
  -exchange      EXHF   =         0.00000000
  -V(xc)+E(xc)   XCENC  =       999.92073944
  PAW double counting   =    127607.14425149  -127508.70183444
  entropy T*S    EENTRO =        -0.00318258
  eigenvalues    EBANDS =     -3082.82439868
  atomic energy  EATOM  =     22838.20177132
  ---------------------------------------------------
  free energy    TOTEN  =      1187.86247692 eV

  energy without entropy =     1187.86565950  energy(sigma->0) =     1187.86406821


--------------------------------------------------------------------------------------------------------




--------------------------------------- Iteration      1(  20)  ---------------------------------------


    POTLOK:  cpu time    0.2503: real time    0.2520
    SETDIJ:  cpu time    0.8541: real time    0.8602
    TRIAL :  cpu time   26.0122: real time   26.4633
    CORREC:  cpu time   10.1731: real time   10.2676
    CHARGE:  cpu time    2.0496: real time    2.0701
    --------------------------------------------
      LOOP:  cpu time   39.3399: real time   39.9152

 eigenvalue-minimisations  :     0
 total energy-change (2. order) :-0.4898819E-02  (-0.2619149E-02)
 number of electron     188.0000007 magnetization 
 augmentation part       34.1402199 magnetization 

 Free energy of the ion-electron system (eV)
  ---------------------------------------------------
  alpha Z        PSCENC =      1019.45355762
  Ewald energy   TEWEN  =    -12380.30734980
  -Hartree energ DENC   =     -8304.90544094
  -exchange      EXHF   =         0.00000000
  -V(xc)+E(xc)   XCENC  =       999.91975876
  PAW double counting   =    127651.83556933  -127553.33117887
  entropy T*S    EENTRO =        -0.00320486
  eigenvalues    EBANDS =     -3083.00592674
  atomic energy  EATOM  =     22838.20177132
  ---------------------------------------------------
  free energy    TOTEN  =      1187.85757810 eV

  energy without entropy =     1187.86078296  energy(sigma->0) =     1187.85918053


--------------------------------------------------------------------------------------------------------




--------------------------------------- Iteration      1(  21)  ---------------------------------------


    POTLOK:  cpu time    0.2364: real time    0.2382
    SETDIJ:  cpu time    0.7283: real time    0.7341
    TRIAL :  cpu time   25.6331: real time   25.9373
    CORREC:  cpu time    8.8157: real time    8.8995
    CHARGE:  cpu time    1.9535: real time    1.9723
    --------------------------------------------
      LOOP:  cpu time   37.3693: real time   37.7840

 eigenvalue-minimisations  :     0
 total energy-change (2. order) :-0.2615120E-02  (-0.1480452E-02)
 number of electron     188.0000007 magnetization 
 augmentation part       34.1383862 magnetization 

 Free energy of the ion-electron system (eV)
  ---------------------------------------------------
  alpha Z        PSCENC =      1019.45355762
  Ewald energy   TEWEN  =    -12380.30734980
  -Hartree energ DENC   =     -8304.67633857
  -exchange      EXHF   =         0.00000000
  -V(xc)+E(xc)   XCENC  =       999.92385140
  PAW double counting   =    127835.28999892  -127736.78688182
  entropy T*S    EENTRO =        -0.00319918
  eigenvalues    EBANDS =     -3083.24044123
  atomic energy  EATOM  =     22838.20177132
  ---------------------------------------------------
  free energy    TOTEN  =      1187.85496298 eV

  energy without entropy =     1187.85816216  energy(sigma->0) =     1187.85656257


--------------------------------------------------------------------------------------------------------




--------------------------------------- Iteration      1(  22)  ---------------------------------------


    POTLOK:  cpu time    0.2195: real time    0.2212
    SETDIJ:  cpu time    0.7371: real time    0.7429
    TRIAL :  cpu time   25.3708: real time   25.6644
    CORREC:  cpu time    8.8805: real time    8.9667
    CHARGE:  cpu time    2.0134: real time    2.0339
    --------------------------------------------
      LOOP:  cpu time   37.2230: real time   37.6330

 eigenvalue-minimisations  :     0
 total energy-change (2. order) :-0.1481014E-02  (-0.7403541E-03)
 number of electron     188.0000007 magnetization 
 augmentation part       34.1368808 magnetization 

 Free energy of the ion-electron system (eV)
  ---------------------------------------------------
  alpha Z        PSCENC =      1019.45355762
  Ewald energy   TEWEN  =    -12380.30734980
  -Hartree energ DENC   =     -8305.07080026
  -exchange      EXHF   =         0.00000000
  -V(xc)+E(xc)   XCENC  =       999.93001255
  PAW double counting   =    127909.55240003  -127811.09488860
  entropy T*S    EENTRO =        -0.00317876
  eigenvalues    EBANDS =     -3082.80802173
  atomic energy  EATOM  =     22838.20177132
  ---------------------------------------------------
  free energy    TOTEN  =      1187.85348197 eV

  energy without entropy =     1187.85666073  energy(sigma->0) =     1187.85507135


--------------------------------------------------------------------------------------------------------




--------------------------------------- Iteration      1(  23)  ---------------------------------------


    POTLOK:  cpu time    0.2582: real time    0.2600
    SETDIJ:  cpu time    0.6875: real time    0.6926
    TRIAL :  cpu time   24.9253: real time   25.1870
    CORREC:  cpu time    8.6266: real time    8.7117
    CHARGE:  cpu time    1.9875: real time    2.0064
    --------------------------------------------
      LOOP:  cpu time   36.5755: real time   36.9497

 eigenvalue-minimisations  :     0
 total energy-change (2. order) :-0.7418611E-03  (-0.3475353E-03)
 number of electron     188.0000007 magnetization 
 augmentation part       34.1375680 magnetization 

 Free energy of the ion-electron system (eV)
  ---------------------------------------------------
  alpha Z        PSCENC =      1019.45355762
  Ewald energy   TEWEN  =    -12380.30734980
  -Hartree energ DENC   =     -8304.86614427
  -exchange      EXHF   =         0.00000000
  -V(xc)+E(xc)   XCENC  =       999.92488106
  PAW double counting   =    127929.57533899  -127831.13572332
  entropy T*S    EENTRO =        -0.00315757
  eigenvalues    EBANDS =     -3082.99041273
  atomic energy  EATOM  =     22838.20177132
  ---------------------------------------------------
  free energy    TOTEN  =      1187.85274011 eV

  energy without entropy =     1187.85589768  energy(sigma->0) =     1187.85431889


--------------------------------------------------------------------------------------------------------




--------------------------------------- Iteration      1(  24)  ---------------------------------------


    POTLOK:  cpu time    0.2673: real time    0.2694
    SETDIJ:  cpu time    0.7710: real time    0.7770
[...]
     92       7.1391      2.00000
     93       7.2462      1.99943
     94       7.3742      0.00000
     95       7.3940      0.00000
     96       7.4995      0.00000
     97       7.7290      0.00000
     98       7.8314      0.00000
     99       7.9275      0.00000
    100       8.0991      0.00000
    101       8.1387      0.00000
    102       8.1547      0.00000
    103       8.3613      0.00000
    104       8.4862      0.00000
    105       8.5759      0.00000
    106       8.9434      0.00000
    107       8.9975      0.00000
    108       9.0111      0.00000
    109       9.1517      0.00000
    110       9.3274      0.00000
    111       9.5115      0.00000
    112       9.7454      0.00000
    113       9.9412      0.00000
    114      10.3997      0.00000

 k-point    27 :       0.5000    0.5000    0.3333
  band No.  band energies     occupation 
      1     -55.6422      2.00000
      2     -55.5756      2.00000
      3     -55.5748      2.00000
      4     -55.5455      2.00000
      5     -55.3689      2.00000
      6     -55.3006      2.00000
      7     -55.2987      2.00000
      8     -55.2684      2.00000
      9     -54.3691      2.00000
     10     -54.3680      2.00000
     11     -54.3673      2.00000
     12     -54.3659      2.00000
     13     -34.5696      2.00000
     14     -34.5669      2.00000
     15     -34.5620      2.00000
     16     -34.5613      2.00000
     17     -34.5530      2.00000
     18     -34.5512      2.00000
     19     -34.5457      2.00000
     20     -34.5428      2.00000
     21     -29.7841      2.00000
     22     -29.6292      2.00000
     23     -29.6277      2.00000
     24     -29.5215      2.00000
     25     -29.1495      2.00000
     26     -29.1077      2.00000
     27     -29.0287      2.00000
     28     -29.0225      2.00000
     29     -28.9990      2.00000
     30     -28.9083      2.00000
     31     -28.8769      2.00000
     32     -28.8539      2.00000
     33     -28.8518      2.00000
     34     -28.8422      2.00000
     35     -28.8066      2.00000
     36     -28.8063      2.00000
     37     -28.7174      2.00000
     38     -28.6287      2.00000
     39     -28.5961      2.00000
     40     -28.5907      2.00000
     41     -28.1604      2.00000
     42     -27.9806      2.00000
     43     -27.9773      2.00000
     44     -27.8468      2.00000
     45     -23.6838      2.00000
     46     -23.6618      2.00000
     47     -23.6607      2.00000
     48     -23.6519      2.00000
     49      -0.3221      2.00000
     50      -0.0087      2.00000
     51       0.0226      2.00000
     52       0.1329      2.00000
     53       0.2427      2.00000
     54       0.2475      2.00000
     55       0.2724      2.00000
     56       0.2894      2.00000
     57       0.3654      2.00000
     58       0.5100      2.00000
     59       1.6064      2.00000
     60       2.2440      2.00000
     61       2.3788      2.00000
     62       3.1401      2.00000
     63       3.3402      2.00000
     64       3.6068      2.00000
     65       3.7272      2.00000
     66       3.7318      2.00000
     67       3.9801      2.00000
     68       4.1651      2.00000
     69       4.3222      2.00000
     70       4.3752      2.00000
     71       4.3808      2.00000
     72       4.4959      2.00000
     73       4.5343      2.00000
     74       4.5896      2.00000
     75       4.9321      2.00000
     76       4.9789      2.00000
     77       5.1133      2.00000
     78       5.1775      2.00000
     79       5.1817      2.00000
     80       5.4787      2.00000
     81       5.6717      2.00000
     82       5.7274      2.00000
     83       5.8648      2.00000
     84       6.1491      2.00000
     85       6.1967      2.00000
     86       6.4036      2.00000
     87       6.5768      2.00000
     88       6.7009      2.00000
     89       6.8083      2.00000
     90       6.8288      2.00000
     91       6.9807      2.00000
     92       7.0028      2.00000
     93       7.4221      0.00000
     94       7.4554      0.00000
     95       7.5070      0.00000
     96       7.6714      0.00000
     97       7.8004      0.00000
     98       8.0402      0.00000
     99       8.0613      0.00000
    100       8.0647      0.00000
    101       8.1060      0.00000
    102       8.1688      0.00000
    103       8.3390      0.00000
    104       8.4997      0.00000
    105       8.5349      0.00000
    106       8.5905      0.00000
    107       8.7577      0.00000
    108       9.1751      0.00000
    109       9.3228      0.00000
    110       9.4096      0.00000
    111       9.5698      0.00000
    112      10.0143      0.00000
    113      10.3562      0.00000
    114      10.7276      0.00000

 k-point    28 :      -0.3333    0.5000    0.3333
  band No.  band energies     occupation 
      1     -55.6372      2.00000
      2     -55.5759      2.00000
      3     -55.5745      2.00000
      4     -55.5554      2.00000
      5     -55.3589      2.00000
      6     -55.3004      2.00000
      7     -55.2990      2.00000
      8     -55.2735      2.00000
      9     -54.3690      2.00000
     10     -54.3680      2.00000
     11     -54.3672      2.00000
     12     -54.3661      2.00000
     13     -34.5697      2.00000
     14     -34.5668      2.00000
     15     -34.5620      2.00000
     16     -34.5613      2.00000
     17     -34.5532      2.00000
     18     -34.5513      2.00000
     19     -34.5457      2.00000
     20     -34.5428      2.00000
     21     -29.7674      2.00000
     22     -29.6257      2.00000
     23     -29.6246      2.00000
     24     -29.5364      2.00000
     25     -29.1450      2.00000
     26     -29.0999      2.00000
     27     -29.0496      2.00000
     28     -29.0335      2.00000
     29     -29.0330      2.00000
     30     -28.9448      2.00000
     31     -28.8821      2.00000
     32     -28.8819      2.00000
     33     -28.8334      2.00000
     34     -28.8054      2.00000
     35     -28.7679      2.00000
     36     -28.7678      2.00000
     37     -28.7192      2.00000
     38     -28.6369      2.00000
     39     -28.5968      2.00000
     40     -28.5956      2.00000
     41     -28.1385      2.00000
     42     -27.9819      2.00000
     43     -27.9807      2.00000
     44     -27.8661      2.00000
     45     -23.6846      2.00000
     46     -23.6622      2.00000
     47     -23.6603      2.00000
     48     -23.6510      2.00000
     49      -0.2926      2.00000
     50      -0.0634      2.00000
     51      -0.0111      2.00000
     52       0.1320      2.00000
     53       0.2290      2.00000
     54       0.2334      2.00000
     55       0.2745      2.00000
     56       0.2792      2.00000
     57       0.3695      2.00000
     58       0.5524      2.00000
     59       1.7211      2.00000
     60       2.3124      2.00000
     61       2.3382      2.00000
     62       2.9777      2.00000
     63       3.4151      2.00000
     64       3.6669      2.00000
     65       3.6706      2.00000
     66       3.8270      2.00000
     67       4.1093      2.00000
     68       4.1494      2.00000
     69       4.3715      2.00000
     70       4.4054      2.00000
     71       4.4717      2.00000
     72       4.5186      2.00000
     73       4.5265      2.00000
     74       4.6311      2.00000
     75       4.8688      2.00000
     76       4.9128      2.00000
     77       5.0532      2.00000
     78       5.2322      2.00000
     79       5.2725      2.00000
     80       5.4792      2.00000
     81       5.5087      2.00000
     82       5.5700      2.00000
     83       5.9884      2.00000
     84       6.0442      2.00000
     85       6.1470      2.00000
     86       6.2243      2.00000
     87       6.5646      2.00000
     88       6.5766      2.00000
     89       6.7664      2.00000
     90       6.8767      2.00000
     91       6.8897      2.00000
     92       7.1032      2.00000
     93       7.2605      1.98495
     94       7.4547      0.00000
     95       7.4838      0.00000
     96       7.6315      0.00000
     97       7.7115      0.00000
     98       7.8010      0.00000
     99       7.8953      0.00000
    100       8.1217      0.00000
    101       8.2321      0.00000
    102       8.2705      0.00000
    103       8.3908      0.00000
    104       8.4920      0.00000
    105       8.6282      0.00000
    106       8.7920      0.00000
    107       9.0219      0.00000
    108       9.1448      0.00000
    109       9.1887      0.00000
    110       9.5231      0.00000
    111       9.5793      0.00000
    112       9.8167      0.00000
    113      10.1865      0.00000
    114      10.4561      0.00000

 k-point    29 :      -0.3333   -0.3333    0.3333
  band No.  band energies     occupation 
      1     -55.6232      2.00000
      2     -55.5784      2.00000
      3     -55.5755      2.00000
      4     -55.5742      2.00000
      5     -55.3354      2.00000
      6     -55.3007      2.00000
      7     -55.2994      2.00000
      8     -55.2879      2.00000
      9     -54.3690      2.00000
     10     -54.3680      2.00000
     11     -54.3673      2.00000
     12     -54.3660      2.00000
     13     -34.5697      2.00000
     14     -34.5669      2.00000
     15     -34.5619      2.00000
     16     -34.5616      2.00000
     17     -34.5532      2.00000
     18     -34.5514      2.00000
     19     -34.5459      2.00000
     20     -34.5429      2.00000
     21     -29.7210      2.00000
     22     -29.6177      2.00000
     23     -29.6165      2.00000
     24     -29.5820      2.00000
     25     -29.1370      2.00000
     26     -29.1162      2.00000
     27     -29.0773      2.00000
     28     -29.0496      2.00000
     29     -29.0488      2.00000
     30     -28.9977      2.00000
     31     -28.9060      2.00000
     32     -28.9053      2.00000
     33     -28.7776      2.00000
     34     -28.7511      2.00000
     35     -28.7247      2.00000
     36     -28.7215      2.00000
     37     -28.7212      2.00000
     38     -28.6610      2.00000
     39     -28.6064      2.00000
     40     -28.6051      2.00000
     41     -28.0773      2.00000
     42     -27.9879      2.00000
     43     -27.9867      2.00000
     44     -27.9189      2.00000
     45     -23.6843      2.00000
     46     -23.6617      2.00000
     47     -23.6613      2.00000
     48     -23.6504      2.00000
     49      -0.2164      2.00000
     50      -0.2125      2.00000
     51      -0.0628      2.00000
     52       0.1337      2.00000
     53       0.1999      2.00000
     54       0.2001      2.00000
     55       0.2737      2.00000
     56       0.2738      2.00000
     57       0.3671      2.00000
     58       0.6055      2.00000
     59       1.9435      2.00000
     60       2.4078      2.00000
     61       2.4095      2.00000
     62       2.5833      2.00000
     63       3.6739      2.00000
     64       3.7004      2.00000
     65       3.7006      2.00000
     66       3.9710      2.00000
     67       4.1055      2.00000
     68       4.4441      2.00000
     69       4.4451      2.00000
     70       4.4667      2.00000
     71       4.6020      2.00000
     72       4.6326      2.00000
     73       4.6546      2.00000
     74       4.6552      2.00000
     75       4.7678      2.00000
     76       4.9655      2.00000
     77       4.9664      2.00000
     78       5.0827      2.00000
     79       5.2885      2.00000
     80       5.2897      2.00000
     81       5.4456      2.00000
     82       5.6388      2.00000
     83       5.6645      2.00000
     84       6.0037      2.00000
     85       6.0044      2.00000
     86       6.3130      2.00000
     87       6.4045      2.00000
     88       6.5828      2.00000
     89       6.6733      2.00000
     90       6.6740      2.00000
     91       6.7833      2.00000
     92       7.0449      2.00000
     93       7.0457      2.00000
     94       7.2792      1.73259
     95       7.3147      0.16013
     96       7.3702      0.00000
     97       7.5024      0.00000
     98       7.7276      0.00000
     99       7.7279      0.00000
    100       8.2127      0.00000
    101       8.6185      0.00000
    102       8.6191      0.00000
    103       8.6768      0.00000
    104       8.6958      0.00000
    105       8.7365      0.00000
    106       9.0168      0.00000
    107       9.0223      0.00000
    108       9.2412      0.00000
    109       9.2470      0.00000
    110       9.3845      0.00000
    111       9.6586      0.00000
    112       9.8008      0.00000
    113       9.9736      0.00000
    114      10.2062      0.00000

 k-point    30 :       0.5000    0.5000    0.5000
  band No.  band energies     occupation 
      1     -55.6418      2.00000
      2     -55.5762      2.00000
      3     -55.5748      2.00000
      4     -55.5454      2.00000
      5     -55.3691      2.00000
      6     -55.3001      2.00000
      7     -55.2987      2.00000
      8     -55.2686      2.00000
      9     -54.3690      2.00000
     10     -54.3679      2.00000
     11     -54.3673      2.00000
     12     -54.3661      2.00000
     13     -34.5701      2.00000
     14     -34.5668      2.00000
     15     -34.5618      2.00000
     16     -34.5614      2.00000
     17     -34.5535      2.00000
     18     -34.5512      2.00000
     19     -34.5456      2.00000
     20     -34.5423      2.00000
     21     -29.7847      2.00000
     22     -29.6301      2.00000
     23     -29.6290      2.00000
     24     -29.5191      2.00000
     25     -29.1408      2.00000
     26     -29.1072      2.00000
     27     -29.0289      2.00000
     28     -29.0286      2.00000
     29     -29.0028      2.00000
     30     -28.9078      2.00000
     31     -28.8782      2.00000
     32     -28.8525      2.00000
     33     -28.8517      2.00000
     34     -28.8433      2.00000
     35     -28.8070      2.00000
     36     -28.8062      2.00000
     37     -28.7188      2.00000
     38     -28.6285      2.00000
     39     -28.5920      2.00000
     40     -28.5908      2.00000
     41     -28.1623      2.00000
     42     -27.9785      2.00000
     43     -27.9773      2.00000
     44     -27.8479      2.00000
     45     -23.6868      2.00000
     46     -23.6611      2.00000
     47     -23.6608      2.00000
     48     -23.6501      2.00000
     49      -0.3077      2.00000
     50      -0.0172      2.00000
     51      -0.0070      2.00000
     52       0.1243      2.00000
     53       0.2514      2.00000
     54       0.2520      2.00000
     55       0.2713      2.00000
     56       0.2720      2.00000
     57       0.3855      2.00000
     58       0.6009      2.00000
     59       1.6589      2.00000
     60       2.2633      2.00000
     61       2.2647      2.00000
     62       3.1581      2.00000
     63       3.4002      2.00000
     64       3.6481      2.00000
     65       3.6489      2.00000
     66       3.7400      2.00000
     67       3.8654      2.00000
     68       4.3441      2.00000
     69       4.3696      2.00000
     70       4.3701      2.00000
     71       4.4560      2.00000
     72       4.4576      2.00000
     73       4.4990      2.00000
     74       4.5742      2.00000
     75       4.8720      2.00000
     76       4.8731      2.00000
     77       4.9363      2.00000
     78       5.0065      2.00000
     79       5.2245      2.00000
     80       5.4591      2.00000
     81       5.4981      2.00000
     82       5.4993      2.00000
     83       6.3298      2.00000
     84       6.3302      2.00000
     85       6.3932      2.00000
     86       6.4192      2.00000
     87       6.5561      2.00000
     88       6.5603      2.00000
     89       6.5610      2.00000
     90       6.6531      2.00000
     91       6.9744      2.00000
     92       7.3686      0.00000
     93       7.3690      0.00000
     94       7.4704      0.00000
     95       7.5792      0.00000
     96       7.7202      0.00000
     97       7.7391      0.00000
     98       7.8326      0.00000
     99       8.0608      0.00000
    100       8.0620      0.00000
    101       8.1755      0.00000
    102       8.3120      0.00000
    103       8.3132      0.00000
    104       8.3697      0.00000
    105       8.6319      0.00000
    106       8.6835      0.00000
    107       8.6841      0.00000
    108       8.7552      0.00000
    109       9.3382      0.00000
    110       9.4528      0.00000
    111       9.8483      0.00000
    112       9.8499      0.00000
    113      10.2268      0.00000
    114      10.5377      0.00000


--------------------------------------------------------------------------------------------------------


 soft charge-density along one line, spin component           1
         0         1         2         3         4         5         6         7         8         9
 total charge-density along one line
 
 pseudopotential strength for first ion, spin component:           1
  9.422  14.508  -0.164  -0.278  -0.092  -0.243  -0.413  -0.136
 14.508  22.345  -0.247  -0.418  -0.138  -0.365  -0.619  -0.204
 -0.164  -0.247  -3.309   0.003   0.001  -5.926   0.009   0.003
 -0.278  -0.418   0.003  -3.305   0.002   0.009  -5.916   0.005
 -0.092  -0.138   0.001   0.002  -3.310   0.003   0.005  -5.930
 -0.243  -0.365  -5.926   0.009   0.003 -10.390   0.022   0.007
 -0.413  -0.619   0.009  -5.916   0.005   0.022 -10.367   0.012
 -0.136  -0.204   0.003   0.005  -5.930   0.007   0.012 -10.398
 total augmentation occupancy for first ion, spin component:           1
147.984 ******* -18.276 -31.018 -10.227  11.945  20.273   6.684
*******  82.192  12.968  22.010   7.257  -8.716 -14.792  -4.877
-18.276  12.968   8.265   3.690   1.178  -5.359  -1.328  -0.408
-31.018  22.010   3.690  12.332   2.065  -1.328  -6.813  -0.743
-10.227   7.257   1.178   2.065   6.818  -0.408  -0.743  -4.859
 11.945  -8.716  -5.359  -1.328  -0.408   4.704   0.059  -0.000
 20.273 -14.792  -1.328  -6.813  -0.743   0.059   4.759   0.033
  6.684  -4.877  -0.408  -0.743  -4.859  -0.000   0.033   4.705


------------------------ aborting loop because EDIFF is reached ----------------------------------------




--------------------------------------------------------------------------------------------------------



  FREE ENERGIE OF THE ION-ELECTRON SYSTEM (eV)
  ---------------------------------------------------
  free  energy   TOTEN  =      1187.85203340 eV

  energy  without entropy=     1187.85515004  energy(sigma->0) =     1187.85359172
 


--------------------------------------------------------------------------------------------------------


    POTLOK:  cpu time    0.9927: real time    0.9999


--------------------------------------------------------------------------------------------------------


 writing wavefunctions
     LOOP+:  cpu time 1967.5610: real time 1993.0759
    4ORBIT:  cpu time    0.0000: real time    0.0000

 total amount of memory used by VASP MPI-rank0   289110. kBytes
=======================================================================

   base      :      30000. kBytes
   nonl-proj :      69393. kBytes
   fftplans  :      24349. kBytes
   grid      :      18307. kBytes
   one-center:        139. kBytes
   wavefun   :     146922. kBytes
 
  
  
 General timing and accounting informations for this job:
 ========================================================
  
                  Total CPU time used (sec):     1976.981
                            User time (sec):     1926.654
                          System time (sec):       50.327
                         Elapsed time (sec):     2011.456
  
                   Maximum memory used (kb):      462516.
                   Average memory used (kb):          N/A
  
                          Minor page faults:      9658012
                          Major page faults:           24
                 Voluntary context switches:         9291
