 vasp.6.2.0 18Jan21 (build Jan 05 2022 15:41:44) complex                        
  
 executed on             LinuxIFC date 2025.05.07  15:00:46
 running on   24 total cores
 distrk:  each k-point on   12 cores,    2 groups
 distr:  one band on NCORE=   2 cores,    6 groups


--------------------------------------------------------------------------------------------------------


 INCAR:
   SYSTEM = routine with relax: pwdword
   ICHARG = 2
   NPAR = 6
   KPAR = 2
   NCORE = 2
   ADDGRID = T
   PREC = Acc
   ENCUT = 600
   METAGGA = R2SCAN
   LASPH = .TRUE.
   LMIXTAU = .FALSE.
   ALGO = A
   EDIFF = 1E-9
   NELM = 100
   NELMIN = 6
   IALGO = 38
   LREAL = F
   NSW = 0
   ISIF = -1
   ISMEAR = 0
   SIGMA = 0.02
   SYMPREC = 1E-4

 POTCAR:    PAW_PBE B 06Sep2000                   
 POTCAR:    PAW_PBE Mo_sv 02Feb2006               
 POTCAR:    PAW_PBE Si 05Jan2001                  
 -----------------------------------------------------------------------------
|                                                                             |
|           W    W    AA    RRRRR   N    N  II  N    N   GGGG   !!!           |
|           W    W   A  A   R    R  NN   N  II  NN   N  G    G  !!!           |
|           W    W  A    A  R    R  N N  N  II  N N  N  G       !!!           |
|           W WW W  AAAAAA  RRRRR   N  N N  II  N  N N  G  GGG   !            |
|           WW  WW  A    A  R   R   N   NN  II  N   NN  G    G                |
|           W    W  A    A  R    R  N    N  II  N    N   GGGG   !!!           |
|                                                                             |
|     For optimal performance we recommend to set                             |
|       NCORE = 2 up to number-of-cores-per-socket                            |
|     NCORE specifies how many cores store one orbital (NPAR=cpu/NCORE).      |
|     This setting can greatly improve the performance of VASP for DFT.       |
|     The default, NCORE=1 might be grossly inefficient on modern             |
|     multi-core architectures or massively parallel machines. Do your        |
|     own testing! More info at https://www.vasp.at/wiki/index.php/NCORE      |
|     Unfortunately you need to use the default for GW and RPA                |
|     calculations (for HF NCORE is supported but not extensively tested      |
|     yet).                                                                   |
|                                                                             |
 -----------------------------------------------------------------------------

 POTCAR:    PAW_PBE B 06Sep2000                   
   VRHFIN =B: s2p1                                                                                  
   LEXCH  = PE                                                                                      
   EATOM  =    71.1703 eV,    5.2309 Ry                                                             
                                                                                                    
   TITEL  = PAW_PBE B 06Sep2000                                                                     
   LULTRA =        F    use ultrasoft PP ?                                                          
   IUNSCR =        1    unscreen: 0-lin 1-nonlin 2-no                                               
   RPACOR =    1.200    partial core radius                                                         
   POMASS =   10.811; ZVAL   =    3.000    mass and valenz                                          
   RCORE  =    1.700    outmost cutoff radius                                                       
   RWIGS  =    1.710; RWIGS  =    0.905    wigner-seitz radius (au A)                               
   ENMAX  =  318.614; ENMIN  =  238.960 eV                                                          
   ICORE  =        2    local potential                                                             
   LCOR   =        T    correct aug charges                                                         
   LPAW   =        T    paw PP                                                                      
   EAUG   =  535.514                                                                                
   DEXC   =    0.000                                                                                
   RMAX   =    1.732    core radius for proj-oper                                                   
   RAUG   =    1.300    factor for augmentation sphere                                              
   RDEP   =    1.757    radius for radial grids                                                     
   RDEPT  =    1.436    core radius for aug-charge                                                  
                                                                                                    
   Atomic configuration                                                                             
    4 entries                                                                                       
     n  l   j            E        occ.                                                              
     1  0  0.50      -180.5896   2.0000                                                             
     2  0  0.50        -9.4431   2.0000                                                             
     2  1  0.50        -3.6068   1.0000                                                             
     3  2  1.50        -4.0817   0.0000                                                             
   Description                                                                                      
     l       E           TYP  RCUT    TYP  RCUT                                                     
     0     -9.4430752     23  1.500                                                                 
     0      0.8675899     23  1.500                                                                 
     1     -3.6067955     23  1.700                                                                 
     1      6.1086146     23  1.700                                                                 
     2     -4.0817478      7  1.700                                                                 
  local pseudopotential read in
  partial core-charges read in
  partial kinetic energy density read in
  atomic valenz-charges read in
  non local Contribution for L=           0  read in
    real space projection operators read in
  non local Contribution for L=           0  read in
    real space projection operators read in
  non local Contribution for L=           1  read in
    real space projection operators read in
  non local Contribution for L=           1  read in
    real space projection operators read in
    PAW grid and wavefunctions read in
 
   number of l-projection  operators is LMAX  =           4
   number of lm-projection operators is LMMAX =           8
 
 POTCAR:    PAW_PBE Mo_sv 02Feb2006               
   VRHFIN =Mo: 4p5s4d                                                                               
   LEXCH  = PE                                                                                      
   EATOM  =  1862.2866 eV,  136.8742 Ry                                                             
                                                                                                    
   TITEL  = PAW_PBE Mo_sv 02Feb2006                                                                 
   LULTRA =        F    use ultrasoft PP ?                                                          
   IUNSCR =        1    unscreen: 0-lin 1-nonlin 2-no                                               
   RPACOR =    2.200    partial core radius                                                         
   POMASS =   95.940; ZVAL   =   14.000    mass and valenz                                          
   RCORE  =    2.500    outmost cutoff radius                                                       
   RWIGS  =    2.750; RWIGS  =    1.455    wigner-seitz radius (au A)                               
   ENMAX  =  242.676; ENMIN  =  182.007 eV                                                          
   ICORE  =        3    local potential                                                             
   LCOR   =        T    correct aug charges                                                         
   LPAW   =        T    paw PP                                                                      
   EAUG   =  446.014                                                                                
   DEXC   =    0.000                                                                                
   RMAX   =    2.563    core radius for proj-oper                                                   
   RAUG   =    1.300    factor for augmentation sphere                                              
   RDEP   =    2.641    radius for radial grids                                                     
   RDEPT  =    2.031    core radius for aug-charge                                                  
                                                                                                    
   Atomic configuration                                                                             
   11 entries                                                                                       
     n  l   j            E        occ.                                                              
     1  0  0.50    -19819.0341   2.0000                                                             
     2  0  0.50     -2799.0127   2.0000                                                             
     2  1  1.50     -2502.0276   6.0000                                                             
     3  0  0.50      -476.4449   2.0000                                                             
     3  1  1.50      -379.1496   6.0000                                                             
     3  2  2.50      -220.9367  10.0000                                                             
     4  0  0.50       -64.3378   2.0000                                                             
     5  0  0.50        -4.0862   1.0000                                                             
     4  1  1.50       -38.4773   6.0000                                                             
     4  2  2.50        -3.7535   5.0000                                                             
     4  3  2.50        -1.3606   0.0000                                                             
   Description                                                                                      
     l       E           TYP  RCUT    TYP  RCUT                                                     
     0    -64.3377829     23  2.100                                                                 
     0     -4.0861640     23  2.400                                                                 
     1    -38.4772993     23  2.100                                                                 
     1     13.6058260     23  2.100                                                                 
     2     -3.7534941     23  2.400                                                                 
     2     -5.1140767     23  2.400                                                                 
     3     -4.0817478     23  2.500                                                                 
  local pseudopotential read in
  partial core-charges read in
  partial kinetic energy density read in
  atomic valenz-charges read in
  non local Contribution for L=           0  read in
    real space projection operators read in
  non local Contribution for L=           0  read in
    real space projection operators read in
  non local Contribution for L=           1  read in
    real space projection operators read in
  non local Contribution for L=           1  read in
    real space projection operators read in
  non local Contribution for L=           2  read in
    real space projection operators read in
  non local Contribution for L=           2  read in
    real space projection operators read in
    PAW grid and wavefunctions read in
 
   number of l-projection  operators is LMAX  =           6
   number of lm-projection operators is LMMAX =          18
 
 POTCAR:    PAW_PBE Si 05Jan2001                  
   VRHFIN =Si: s2p2                                                                                 
   LEXCH  = PE                                                                                      
   EATOM  =   103.0669 eV,    7.5752 Ry                                                             
                                                                                                    
   TITEL  = PAW_PBE Si 05Jan2001                                                                    
   LULTRA =        F    use ultrasoft PP ?                                                          
   IUNSCR =        1    unscreen: 0-lin 1-nonlin 2-no                                               
   RPACOR =    1.500    partial core radius                                                         
   POMASS =   28.085; ZVAL   =    4.000    mass and valenz                                          
   RCORE  =    1.900    outmost cutoff radius                                                       
   RWIGS  =    2.480; RWIGS  =    1.312    wigner-seitz radius (au A)                               
   ENMAX  =  245.345; ENMIN  =  184.009 eV                                                          
   ICORE  =        2    local potential                                                             
   LCOR   =        T    correct aug charges                                                         
   LPAW   =        T    paw PP                                                                      
   EAUG   =  322.069                                                                                
   DEXC   =    0.000                                                                                
   RMAX   =    1.950    core radius for proj-oper                                                   
   RAUG   =    1.300    factor for augmentation sphere                                              
   RDEP   =    1.993    radius for radial grids                                                     
   RDEPT  =    1.837    core radius for aug-charge                                                  
                                                                                                    
   Atomic configuration                                                                             
    6 entries                                                                                       
     n  l   j            E        occ.                                                              
     1  0  0.50     -1785.8828   2.0000                                                             
     2  0  0.50      -139.4969   2.0000                                                             
     2  1  1.50       -95.5546   6.0000                                                             
     3  0  0.50       -10.8127   2.0000                                                             
     3  1  0.50        -4.0811   2.0000                                                             
     3  2  1.50        -4.0817   0.0000                                                             
   Description                                                                                      
     l       E           TYP  RCUT    TYP  RCUT                                                     
     0    -10.8127223     23  1.900                                                                 
     0     -7.6451159     23  1.900                                                                 
     1     -4.0811372     23  1.900                                                                 
     1      2.4879257     23  1.900                                                                 
     2     -4.0817478      7  1.900                                                                 
  local pseudopotential read in
  partial core-charges read in
  partial kinetic energy density read in
  atomic valenz-charges read in
  non local Contribution for L=           0  read in
    real space projection operators read in
  non local Contribution for L=           0  read in
    real space projection operators read in
  non local Contribution for L=           1  read in
    real space projection operators read in
  non local Contribution for L=           1  read in
    real space projection operators read in
    PAW grid and wavefunctions read in
 
   number of l-projection  operators is LMAX  =           4
   number of lm-projection operators is LMMAX =           8
 
  PAW_PBE B 06Sep2000                   :
 energy of atom  1       EATOM=  -71.1703
 kinetic energy error for atom=    0.0007 (will be added to EATOM!!)
  PAW_PBE Mo_sv 02Feb2006               :
 energy of atom  2       EATOM=-1862.2866
 kinetic energy error for atom=    0.0041 (will be added to EATOM!!)
  PAW_PBE Si 05Jan2001                  :
 energy of atom  3       EATOM= -103.0669
 kinetic energy error for atom=    0.0003 (will be added to EATOM!!)
 
 
 POSCAR: EA13
  positions in direct lattice
  No initial velocities read in

 METAGGA = R2SCA    LMAXTAU =  6    LMIXTAU =  F

 exchange correlation table for  LEXCH =        8
   RHO(1)=    0.500       N(1)  =     2000
   RHO(2)=  100.500       N(2)  =     4000
 


--------------------------------------------------------------------------------------------------------


 ion  position               nearest neighbor table
   1  0.500  0.500  0.000-   4 2.38   6 2.38
   2  0.000  0.000  0.000-   4 2.38   6 2.38
   3  0.686  0.186  0.176-  14 1.75   5 2.80  10 2.91   4 3.29   6 3.29  12 3.30   8 3.30
   4  0.250  0.250  0.000-   1 2.38   2 2.38   9 3.29  10 3.29   3 3.29   5 3.29  12 3.29   7 3.29
                            11 3.29   8 3.29
   5  0.314  0.814  0.824-  13 1.75   3 2.80   9 2.91   4 3.29   6 3.29  11 3.30   7 3.30
   6  0.750  0.750  0.000-   1 2.38   2 2.38  10 3.29   9 3.29   3 3.29   5 3.29  11 3.29   8 3.29
                             7 3.29  12 3.29
   7  0.186  0.009  0.500-  16 1.75   8 2.80  12 2.91   4 3.29   6 3.29   5 3.30  10 3.30
   8  0.814  0.991  0.500-  15 1.75   7 2.80  11 2.91   6 3.29   4 3.29   3 3.30   9 3.30
   9  0.009  0.509  0.824-  13 1.75  10 2.80   5 2.91   4 3.29   6 3.29   8 3.30  12 3.30
  10  0.991  0.491  0.176-  14 1.75   9 2.80   3 2.91   6 3.29   4 3.29   7 3.30  11 3.30
  11  0.509  0.686  0.500-  15 1.75  12 2.80   8 2.91   6 3.29   4 3.29   5 3.30  10 3.30
  12  0.491  0.314  0.500-  16 1.75  11 2.80   7 2.91   4 3.29   6 3.29   3 3.30   9 3.30
  13  0.243  0.743  0.986-   5 1.75   9 1.75
  14  0.757  0.257  0.014-   3 1.75  10 1.75
  15  0.743  0.757  0.500-   8 1.75  11 1.75
  16  0.257  0.243  0.500-   7 1.75  12 1.75
 
  LATTYP: Found a body centered tetragonal cell.
 ALAT       =     8.4232913992
 C/A-ratio  =     1.1308113112
  
  Lattice vectors:
  
 A1 = (   7.0222370239,   0.0000000000,  -2.9742559541)
 A2 = (  -3.0816302612,   6.3099419770,  -2.9742559541)
 A3 = (   0.0000000000,   0.0000000000,   7.6261400000)


Analysis of symmetry for initial positions (statically):
=====================================================================
 Subroutine PRICEL returns:
 Original cell was already a primitive cell.
 

 Routine SETGRP: Setting up the symmetry group for a 
 body centered tetragonal supercell.


 Subroutine GETGRP returns: Found 16 space group operations
 (whereof  8 operations were pure point group operations)
 out of a pool of 16 trial point group operations.


The static configuration has the point symmetry C_4h.
 The point group associated with its full space group is D_4h.


Analysis of symmetry for dynamics (positions and initial velocities):
=====================================================================
 Subroutine PRICEL returns:
 Original cell was already a primitive cell.
 

 Routine SETGRP: Setting up the symmetry group for a 
 body centered tetragonal supercell.


 Subroutine GETGRP returns: Found 16 space group operations
 (whereof  8 operations were pure point group operations)
 out of a pool of 16 trial point group operations.


The dynamic configuration has the point symmetry C_4h.
 The point group associated with its full space group is D_4h.


 Subroutine INISYM returns: Found 16 space group operations
 (whereof  8 operations are pure point group operations),
 and found     1 'primitive' translations


----------------------------------------------------------------------------------------

                                     Primitive cell                                     

  volume of cell :     337.9136

  direct lattice vectors                    reciprocal lattice vectors
     7.022237024  0.000000000 -2.974255954     0.142404763  0.069547205  0.000000000
    -3.081630261  6.309941977 -2.974255954     0.000000000  0.158480063  0.000000000
     0.000000000  0.000000000  7.626140000     0.055539003  0.088932469  0.131127936

  length of vectors
     7.626140000  7.626140000  7.626140000     0.158480063  0.158480063  0.167893122

  position of ions in fractional coordinates (direct lattice)
     0.500000000  0.500000000  0.000000000
     0.000000000  0.000000000  0.000000000
     0.685660000  0.185660000  0.176460000
     0.250000000  0.250000000  0.000000000
     0.314340000  0.814340000  0.823540000
     0.750000000  0.750000000  0.000000000
     0.185660000  0.009200000  0.500000000
     0.814340000  0.990800000  0.500000000
     0.009200000  0.509200000  0.823540000
     0.990800000  0.490800000  0.176460000
     0.509200000  0.685660000  0.500000000
     0.490800000  0.314340000  0.500000000
     0.242890000  0.742890000  0.985780000
     0.757110000  0.257110000  0.014220000
     0.742890000  0.757110000  0.500000000
     0.257110000  0.242890000  0.500000000

  ion indices of the primitive-cell ions
   primitive index   ion index
                 1           1
                 2           2
                 3           3
                 4           4
                 5           5
                 6           6
                 7           7
                 8           8
                 9           9
                10          10
                11          11
                12          12
                13          13
                14          14
                15          15
                16          16

----------------------------------------------------------------------------------------

 
 
 KPOINTS: EA                                      

Automatic generation of k-mesh.
 Grid dimensions read from file:
 generate k-points for:    6    6    6

 Generating k-lattice:

  Cartesian coordinates                     Fractional coordinates (reciprocal lattice)
     0.023734127  0.011591201  0.000000000     0.166666667 -0.000000000  0.000000000
     0.000000000  0.026413344  0.000000000     0.000000000  0.166666667  0.000000000
     0.009256501  0.014822078  0.021854656     0.000000000 -0.000000000  0.166666667

  Length of vectors
     0.026413344  0.026413344  0.027982187

  Shift w.r.t. Gamma in fractional coordinates (k-lattice)
     0.000000000  0.000000000  0.000000000

 
 Subroutine IBZKPT returns following result:
 ===========================================
 
 Found     30 irreducible k-points:
 
 Following reciprocal coordinates:
            Coordinates               Weight
  0.000000  0.000000  0.000000      1.000000
  0.166667  0.000000  0.000000      8.000000
  0.333333  0.000000  0.000000      8.000000
  0.500000  0.000000  0.000000      4.000000
  0.166667  0.166667  0.000000      8.000000
  0.333333  0.166667  0.000000     16.000000
  0.500000  0.166667  0.000000     16.000000
 -0.333333  0.166667  0.000000     16.000000
 -0.166667  0.166667  0.000000      4.000000
  0.333333  0.333333  0.000000      8.000000
  0.500000  0.333333  0.000000     16.000000
 -0.333333  0.333333  0.000000      4.000000
  0.500000  0.500000  0.000000      2.000000
  0.166667  0.166667  0.166667      8.000000
  0.333333  0.166667  0.166667      8.000000
 -0.166667  0.166667  0.166667      4.000000
  0.333333  0.333333  0.166667      4.000000
 -0.333333  0.333333  0.166667      8.000000
 -0.166667  0.333333  0.166667      8.000000
  0.500000  0.500000  0.166667      4.000000
 -0.333333  0.500000  0.166667     16.000000
 -0.166667  0.500000  0.166667      8.000000
 -0.333333 -0.333333  0.166667      8.000000
 -0.166667 -0.333333  0.166667      8.000000
 -0.166667 -0.166667  0.166667      2.000000
 -0.333333  0.333333  0.333333      4.000000
  0.500000  0.500000  0.333333      4.000000
 -0.333333  0.500000  0.333333      8.000000
 -0.333333 -0.333333  0.333333      2.000000
  0.500000  0.500000  0.500000      1.000000
 
 Following cartesian coordinates:
            Coordinates               Weight
  0.000000  0.000000  0.000000      1.000000
  0.023734  0.011591  0.000000      8.000000
  0.047468  0.023182  0.000000      8.000000
  0.071202  0.034774  0.000000      4.000000
  0.023734  0.038005  0.000000      8.000000
  0.047468  0.049596  0.000000     16.000000
  0.071202  0.061187  0.000000     16.000000
 -0.047468  0.003231  0.000000     16.000000
 -0.023734  0.014822  0.000000      4.000000
  0.047468  0.076009  0.000000      8.000000
  0.071202  0.087600  0.000000     16.000000
 -0.047468  0.029644  0.000000      4.000000
  0.071202  0.114014  0.000000      2.000000
  0.032991  0.052827  0.021855      8.000000
  0.056725  0.064418  0.021855      8.000000
 -0.014478  0.029644  0.021855      4.000000
  0.056725  0.090831  0.021855      4.000000
 -0.038212  0.044466  0.021855      8.000000
 -0.014478  0.056058  0.021855      8.000000
  0.080459  0.128836  0.021855      4.000000
 -0.038212  0.070880  0.021855     16.000000
 -0.014478  0.082471  0.021855      8.000000
 -0.038212 -0.061187  0.021855      8.000000
 -0.014478 -0.049596  0.021855      8.000000
 -0.014478 -0.023182  0.021855      2.000000
 -0.028955  0.059288  0.043709      4.000000
  0.089715  0.143658  0.043709      4.000000
 -0.028955  0.085702  0.043709      8.000000
 -0.028955 -0.046365  0.043709      2.000000
  0.098972  0.158480  0.065564      1.000000
 


--------------------------------------------------------------------------------------------------------




 Dimension of arrays:
   k-points           NKPTS =     30   k-points in BZ     NKDIM =     30   number of bands    NBANDS=    102
   number of dos      NEDOS =    301   number of ions     NIONS =     16
   non local maximal  LDIM  =      6   non local SUM 2l+1 LMDIM =     18
   total plane-waves  NPLWV = 262144
   max r-space proj   IRMAX =      1   max aug-charges    IRDMAX= 271574
   dimension x,y,z NGX =    64 NGY =   64 NGZ =   64
   dimension x,y,z NGXF=   128 NGYF=  128 NGZF=  128
   support grid    NGXF=   256 NGYF=  256 NGZF=  256
   ions per type =               2  10   4
   NGX,Y,Z   is equivalent  to a cutoff of  13.95, 13.95, 13.95 a.u.
   NGXF,Y,Z  is equivalent  to a cutoff of  27.90, 27.90, 27.90 a.u.

 SYSTEM =  routine with relax: pwdword             
 POSCAR =  EA13                                    

 Startparameter for this run:
   NWRITE =      2    write-flag & timer
   PREC   = acc       normal or accurate (medium, high low for compatibility)
   ISTART =      0    job   : 0-new  1-cont  2-samecut
   ICHARG =      2    charge: 1-file 2-atom 10-const
   ISPIN  =      1    spin polarized calculation?
   LNONCOLLINEAR =      F non collinear calculations
   LSORBIT =      F    spin-orbit coupling
   INIWAV =      1    electr: 0-lowe 1-rand  2-diag
   LASPH  =      T    aspherical Exc in radial PAW
   METAGGA=      F    non-selfconsistent MetaGGA calc.

 Electronic Relaxation 1
   ENCUT  =  600.0 eV  44.10 Ry    6.64 a.u.  15.23 15.23 15.23*2*pi/ulx,y,z
   ENINI  =  600.0     initial cutoff
   ENAUG  =  535.5 eV  augmentation charge cutoff
   NELM   =    100;   NELMIN=  6; NELMDL= -5     # of ELM steps 
   EDIFF  = 0.1E-08   stopping-criterion for ELM
   LREAL  =      F    real-space projection
   NLSPLINE    = F    spline interpolate recip. space projectors
   LCOMPAT=      F    compatible to vasp.4.4
   GGA_COMPAT  = T    GGA compatible to vasp.4.4-vasp.4.6
   LMAXPAW     = -100 max onsite density
   LMAXMIX     =    2 max onsite mixed and CHGCAR
   VOSKOWN=      0    Vosko Wilk Nusair interpolation
   ROPT   =    0.00000   0.00000   0.00000
 Ionic relaxation
   EDIFFG = 0.1E-07   stopping-criterion for IOM
   NSW    =      0    number of steps for IOM
   NBLOCK =      1;   KBLOCK =      1    inner block; outer block 
   IBRION =     -1    ionic relax: 0-MD 1-quasi-New 2-CG
   NFREE  =      0    steps in history (QN), initial steepest desc. (CG)
   ISIF   =     -1    stress and relaxation
   IWAVPR =     10    prediction:  0-non 1-charg 2-wave 3-comb
   ISYM   =      2    0-nonsym 1-usesym 2-fastsym
   LCORR  =      T    Harris-Foulkes like correction to forces

   POTIM  = 0.5000    time-step for ionic-motion
   TEIN   =    0.0    initial temperature
   TEBEG  =    0.0;   TEEND  =   0.0 temperature during run
   SMASS  =  -3.00    Nose mass-parameter (am)
   estimated Nose-frequenzy (Omega)   =  0.10E-29 period in steps = 0.13E+47 mass=  -0.133E-26a.u.
   SCALEE = 1.0000    scale energy and forces
   NPACO  =    256;   APACO  = 16.0  distance and # of slots for P.C.
   PSTRESS=    0.0 pullay stress

  Mass of Ions in am
   POMASS =  10.81 95.94 28.09
  Ionic Valenz
   ZVAL   =   3.00 14.00  4.00
  Atomic Wigner-Seitz radii
   RWIGS  =  -1.00 -1.00 -1.00
  virtual crystal weights 
   VCA    =   1.00  1.00  1.00
   NELECT =     162.0000    total number of electrons
   NUPDOWN=      -1.0000    fix difference up-down

 DOS related values:
   EMIN   =  10.00;   EMAX   =-10.00  energy-range for DOS
   EFERMI =   0.00
   ISMEAR =     0;   SIGMA  =   0.02  broadening in eV -4-tet -1-fermi 0-gaus

 Electronic relaxation 2 (details)
   IALGO  =     58    algorithm
   LDIAG  =      T    sub-space diagonalisation (order eigenvalues)
   LSUBROT=      F    optimize rotation matrix (better conditioning)
   TURBO    =      0    0=normal 1=particle mesh
   IRESTART =      0    0=no restart 2=restart with 2 vectors
   NREBOOT  =      0    no. of reboots
   NMIN     =      0    reboot dimension
   EREF     =   0.00    reference energy to select bands
   IMIX   =      4    mixing-type and parameters
     AMIX     =   0.40;   BMIX     =  1.00
     AMIX_MAG =   1.60;   BMIX_MAG =  1.00
     AMIN     =   0.10
     WC   =   100.;   INIMIX=   1;  MIXPRE=   1;  MAXMIX= -45

 Intra band minimization:
   WEIMIN = 0.0000     energy-eigenvalue tresh-hold
   EBREAK =  0.25E-11  absolut break condition
   DEPER  =   0.30     relativ break condition  

   TIME   =   0.40     timestep for ELM

  volume/ion in A,a.u.               =      21.12       142.52
  Fermi-wavevector in a.u.,A,eV,Ry     =   1.281282  2.421271 22.336451  1.641683
  Thomas-Fermi vector in A             =   2.413661
 
 Write flags
   LWAVE        =      T    write WAVECAR
   LDOWNSAMPLE  =      F    k-point downsampling of WAVECAR
   LCHARG       =      T    write CHGCAR
   LVTOT        =      F    write LOCPOT, total local potential
   LVHAR        =      F    write LOCPOT, Hartree potential only
   LELF         =      F    write electronic localiz. function (ELF)
   LORBIT       =      0    0 simple, 1 ext, 2 COOP (PROOUT), +10 PAW based schemes


 Dipole corrections
   LMONO  =      F    monopole corrections only (constant potential shift)
   LDIPOL =      F    correct potential (dipole corrections)
   IDIPOL =      0    1-x, 2-y, 3-z, 4-all directions 
   EPSILON=  1.0000000 bulk dielectric constant

 Exchange correlation treatment:
   GGA     =    --    GGA type
   LEXCH   =     8    internal setting for exchange type
   VOSKOWN=      0    Vosko Wilk Nusair interpolation
   LHFCALC =     F    Hartree Fock is set to
   LHFONE  =     F    Hartree Fock one center treatment
   AEXX    =    0.0000 exact exchange contribution

 Linear response parameters
   LEPSILON=     F    determine dielectric tensor
   LRPA    =     F    only Hartree local field effects (RPA)
   LNABLA  =     F    use nabla operator in PAW spheres
   LVEL    =     F    velocity operator in full k-point grid
   LINTERFAST=   F  fast interpolation
   KINTER  =     0    interpolate to denser k-point grid
   CSHIFT  =0.1000    complex shift for real part using Kramers Kronig
   OMEGAMAX=  -1.0    maximum frequency
   DEG_THRESHOLD= 0.2000000E-02 threshold for treating states as degnerate
   RTIME   =   -0.100 relaxation time in fs
  (WPLASMAI=    0.000 imaginary part of plasma frequency in eV, 0.658/RTIME)
   DFIELD  = 0.0000000 0.0000000 0.0000000 field for delta impulse in time
 
 Orbital magnetization related:
   ORBITALMAG=     F  switch on orbital magnetization
   LCHIMAG   =     F  perturbation theory with respect to B field
   DQ        =  0.001000  dq finite difference perturbation B field
   LLRAUG    =     F  two centre corrections for induced B field



--------------------------------------------------------------------------------------------------------


 Static calculation
 charge density and potential will be updated during run
 non-spin polarized calculation
 Conjugate gradient for all bands (Freysoldt, et al. PRB 79, 241103 (2009))
 preconditioned conjugated gradient                                        
 perform sub-space diagonalisation
    before iterative eigenvector-optimisation
 modified Broyden-mixing scheme, WC =      100.0
 initial mixing is a Kerker type mixing with AMIX =  0.4000 and BMIX =      1.0000
 Hartree-type preconditioning will be used
 using additional bands           21
 reciprocal scheme for non local part
 use partial core corrections
 no Harris-corrections to forces 
 use gradient corrections 
 use of overlap-Matrix (Vanderbilt PP)
 Gauss-broadening in eV      SIGMA  =   0.02


--------------------------------------------------------------------------------------------------------


  energy-cutoff  :      600.00
  volume of cell :      337.91
      direct lattice vectors                 reciprocal lattice vectors
     7.022237024  0.000000000 -2.974255954     0.142404763  0.069547205  0.000000000
    -3.081630261  6.309941977 -2.974255954     0.000000000  0.158480063  0.000000000
     0.000000000  0.000000000  7.626140000     0.055539003  0.088932469  0.131127936

  length of vectors
     7.626140000  7.626140000  7.626140000     0.158480063  0.158480063  0.167893122


 
 k-points in units of 2pi/SCALE and weight: EA                                      
   0.00000000  0.00000000  0.00000000       0.005
   0.02373413  0.01159120  0.00000000       0.037
   0.04746825  0.02318240  0.00000000       0.037
   0.07120238  0.03477360  0.00000000       0.019
   0.02373413  0.03800454  0.00000000       0.037
   0.04746825  0.04959575  0.00000000       0.074
   0.07120238  0.06118695  0.00000000       0.074
  -0.04746825  0.00323094  0.00000000       0.074
  -0.02373413  0.01482214  0.00000000       0.019
   0.04746825  0.07600909  0.00000000       0.037
   0.07120238  0.08760029  0.00000000       0.074
  -0.04746825  0.02964429  0.00000000       0.019
   0.07120238  0.11401363  0.00000000       0.009
   0.03299063  0.05282662  0.02185466       0.037
   0.05672475  0.06441782  0.02185466       0.037
  -0.01447763  0.02964422  0.02185466       0.019
   0.05672475  0.09083117  0.02185466       0.019
  -0.03821175  0.04446636  0.02185466       0.037
  -0.01447763  0.05605756  0.02185466       0.037
   0.08045888  0.12883571  0.02185466       0.019
  -0.03821175  0.07087971  0.02185466       0.074
  -0.01447763  0.08247091  0.02185466       0.037
  -0.03821175 -0.06118701  0.02185466       0.037
  -0.01447763 -0.04959581  0.02185466       0.037
  -0.01447763 -0.02318247  0.02185466       0.009
  -0.02895525  0.05928844  0.04370931       0.019
   0.08971538  0.14365779  0.04370931       0.019
  -0.02895525  0.08570179  0.04370931       0.037
  -0.02895525 -0.04636493  0.04370931       0.009
   0.09897188  0.15847987  0.06556397       0.005
 
 k-points in reciprocal lattice and weights: EA                                      
   0.00000000  0.00000000  0.00000000       0.005
   0.16666667  0.00000000  0.00000000       0.037
   0.33333333  0.00000000  0.00000000       0.037
   0.50000000  0.00000000  0.00000000       0.019
   0.16666667  0.16666667  0.00000000       0.037
   0.33333333  0.16666667  0.00000000       0.074
   0.50000000  0.16666667  0.00000000       0.074
  -0.33333333  0.16666667  0.00000000       0.074
  -0.16666667  0.16666667  0.00000000       0.019
   0.33333333  0.33333333  0.00000000       0.037
   0.50000000  0.33333333  0.00000000       0.074
  -0.33333333  0.33333333  0.00000000       0.019
   0.50000000  0.50000000  0.00000000       0.009
   0.16666667  0.16666667  0.16666667       0.037
   0.33333333  0.16666667  0.16666667       0.037
  -0.16666667  0.16666667  0.16666667       0.019
   0.33333333  0.33333333  0.16666667       0.019
  -0.33333333  0.33333333  0.16666667       0.037
  -0.16666667  0.33333333  0.16666667       0.037
   0.50000000  0.50000000  0.16666667       0.019
  -0.33333333  0.50000000  0.16666667       0.074
  -0.16666667  0.50000000  0.16666667       0.037
  -0.33333333 -0.33333333  0.16666667       0.037
  -0.16666667 -0.33333333  0.16666667       0.037
  -0.16666667 -0.16666667  0.16666667       0.009
  -0.33333333  0.33333333  0.33333333       0.019
   0.50000000  0.50000000  0.33333333       0.019
  -0.33333333  0.50000000  0.33333333       0.037
  -0.33333333 -0.33333333  0.33333333       0.009
   0.50000000  0.50000000  0.50000000       0.005
 
 position of ions in fractional coordinates (direct lattice) 
   0.50000000  0.50000000  0.00000000
   0.00000000  0.00000000  0.00000000
   0.68566000  0.18566000  0.17646000
   0.25000000  0.25000000  0.00000000
   0.31434000  0.81434000  0.82354000
   0.75000000  0.75000000  0.00000000
   0.18566000  0.00920000  0.50000000
   0.81434000  0.99080000  0.50000000
   0.00920000  0.50920000  0.82354000
   0.99080000  0.49080000  0.17646000
   0.50920000  0.68566000  0.50000000
   0.49080000  0.31434000  0.50000000
   0.24289000  0.74289000  0.98578000
   0.75711000  0.25711000  0.01422000
   0.74289000  0.75711000  0.50000000
   0.25711000  0.24289000  0.50000000
 
 position of ions in cartesian coordinates  (Angst):
   1.97030338  3.15497099 -2.97425595
   0.00000000  0.00000000  0.00000000
   4.24273156  1.17150383 -1.24582003
   0.98515169  1.57748549 -1.48712798
  -0.30212480  5.13843815  2.92344813
   2.95545507  4.73245648 -4.46138393
   1.27539753  0.05805147  3.23350648
   2.66520924  6.25189051 -1.55587839
  -1.50456155  3.21302245  4.73857705
   5.44516831  3.09691952 -3.06094896
   1.46277249  4.32647482  0.25925053
   2.47783428  1.98346716  1.41837756
  -0.58368115  4.68759280  4.58573425
   4.52428792  1.62234918 -2.90810616
   2.88361658  4.77732017 -0.64831393
   1.05699019  1.53262181  2.32594202
 


--------------------------------------------------------------------------------------------------------


 k-point   1 :   0.0000 0.0000 0.0000  plane waves:   11239
 k-point   2 :   0.1667 0.0000 0.0000  plane waves:   11277
 k-point   3 :   0.3333 0.0000 0.0000  plane waves:   11272
 k-point   4 :   0.5000 0.0000 0.0000  plane waves:   11306
 k-point   5 :   0.1667 0.1667 0.0000  plane waves:   11295
 k-point   6 :   0.3333 0.1667 0.0000  plane waves:   11284
 k-point   7 :   0.5000 0.1667 0.0000  plane waves:   11290
 k-point   8 :  -0.3333 0.1667 0.0000  plane waves:   11276
 k-point   9 :  -0.1667 0.1667 0.0000  plane waves:   11268
 k-point  10 :   0.3333 0.3333 0.0000  plane waves:   11301
 k-point  11 :   0.5000 0.3333 0.0000  plane waves:   11280
 k-point  12 :  -0.3333 0.3333 0.0000  plane waves:   11252
 k-point  13 :   0.5000 0.5000 0.0000  plane waves:   11260
 k-point  14 :   0.1667 0.1667 0.1667  plane waves:   11286
 k-point  15 :   0.3333 0.1667 0.1667  plane waves:   11288
 k-point  16 :  -0.1667 0.1667 0.1667  plane waves:   11277
 k-point  17 :   0.3333 0.3333 0.1667  plane waves:   11282
 k-point  18 :  -0.3333 0.3333 0.1667  plane waves:   11262
 k-point  19 :  -0.1667 0.3333 0.1667  plane waves:   11275
 k-point  20 :   0.5000 0.5000 0.1667  plane waves:   11250
 k-point  21 :  -0.3333 0.5000 0.1667  plane waves:   11274
 k-point  22 :  -0.1667 0.5000 0.1667  plane waves:   11283
 k-point  23 :  -0.3333-0.3333 0.1667  plane waves:   11259
 k-point  24 :  -0.1667-0.3333 0.1667  plane waves:   11273
 k-point  25 :  -0.1667-0.1667 0.1667  plane waves:   11295
 k-point  26 :  -0.3333 0.3333 0.3333  plane waves:   11279
 k-point  27 :   0.5000 0.5000 0.3333  plane waves:   11276
 k-point  28 :  -0.3333 0.5000 0.3333  plane waves:   11273
 k-point  29 :  -0.3333-0.3333 0.3333  plane waves:   11267
 k-point  30 :   0.5000 0.5000 0.5000  plane waves:   11308

 maximum and minimum number of plane-waves per node :      5677     5588

 maximum number of plane-waves:     11308
 maximum index in each direction: 
   IXMAX=   15   IYMAX=   15   IZMAX=   15
   IXMIN=  -15   IYMIN=  -15   IZMIN=  -15


 parallel 3D FFT for wavefunctions:
    minimum data exchange during FFTs selected (reduces bandwidth)
 parallel 3D FFT for charge:
    minimum data exchange during FFTs selected (reduces bandwidth)


 total amount of memory used by VASP MPI-rank0   298933. kBytes
=======================================================================

   base      :      30000. kBytes
   nonl-proj :      74776. kBytes
   fftplans  :      30133. kBytes
   grid      :      22603. kBytes
   one-center:        124. kBytes
   wavefun   :     141297. kBytes
 
     INWAV:  cpu time    0.0001: real time    0.0001
 Broyden mixing: mesh for mixing (old mesh)
   NGX = 31   NGY = 31   NGZ = 31
  (NGX  =128   NGY  =128   NGZ  =128)
  gives a total of  29791 points

 initial charge density was supplied:
 charge density of overlapping atoms calculated
 number of electron     162.0000000 magnetization 
 keeping initial charge density in first step


--------------------------------------------------------------------------------------------------------


 Maximum index for augmentation-charges        25160 (set IRDMAX)


--------------------------------------------------------------------------------------------------------


 First call to EWALD:  gamma=   0.254
 Maximum number of real-space cells 3x 3x 3
 Maximum number of reciprocal cells 3x 3x 3

    FEWALD:  cpu time    0.0161: real time    0.0163


--------------------------------------- Iteration      1(   1)  ---------------------------------------


    POTLOK:  cpu time    0.3176: real time    0.3210
    SETDIJ:  cpu time    0.7424: real time    0.7490
    TRIAL :  cpu time   33.8680: real time   34.2087
    CORREC:  cpu time    0.0009: real time    0.0009
    --------------------------------------------
      LOOP:  cpu time   35.0161: real time   35.4037

 eigenvalue-minimisations  :  6528
 total energy-change (2. order) : 0.1803020E+04  (-0.1085840E+05)
 number of electron     162.0000000 magnetization 
 augmentation part      162.0000000 magnetization 

 Free energy of the ion-electron system (eV)
  ---------------------------------------------------
  alpha Z        PSCENC =       669.19222833
  Ewald energy   TEWEN  =    -13156.10995313
  -Hartree energ DENC   =     -5184.36861412
  -exchange      EXHF   =         0.00000000
  -V(xc)+E(xc)   XCENC  =       752.00410153
  PAW double counting   =     15278.13859621   -15202.21075033
  entropy T*S    EENTRO =        -0.00136529
  eigenvalues    EBANDS =      -531.05453777
  atomic energy  EATOM  =     19177.43064738
  ---------------------------------------------------
  free energy    TOTEN  =      1803.02035282 eV

  energy without entropy =     1803.02171810  energy(sigma->0) =     1803.02103546


--------------------------------------------------------------------------------------------------------




--------------------------------------- Iteration      1(   2)  ---------------------------------------


    TRIAL :  cpu time   34.2454: real time   34.5972
    CORREC:  cpu time    0.0010: real time    0.0010
    --------------------------------------------
      LOOP:  cpu time   34.2492: real time   34.6015

 eigenvalue-minimisations  :  6696
 total energy-change (2. order) :-0.2027033E+04  (-0.1966389E+04)
 number of electron     162.0000000 magnetization 
 augmentation part      162.0000000 magnetization 

 Free energy of the ion-electron system (eV)
  ---------------------------------------------------
  alpha Z        PSCENC =       669.19222833
  Ewald energy   TEWEN  =    -13156.10995313
  -Hartree energ DENC   =     -5184.36861412
  -exchange      EXHF   =         0.00000000
  -V(xc)+E(xc)   XCENC  =       752.00410153
  PAW double counting   =     15278.13859621   -15202.21075033
  entropy T*S    EENTRO =        -0.00288265
  eigenvalues    EBANDS =     -2558.08578039
  atomic energy  EATOM  =     19177.43064738
  ---------------------------------------------------
  free energy    TOTEN  =      -224.01240717 eV

  energy without entropy =     -224.00952452  energy(sigma->0) =     -224.01096584


--------------------------------------------------------------------------------------------------------




--------------------------------------- Iteration      1(   3)  ---------------------------------------


    TRIAL :  cpu time   39.2046: real time   39.6001
    CORREC:  cpu time    0.0009: real time    0.0009
    --------------------------------------------
      LOOP:  cpu time   39.2082: real time   39.6040

 eigenvalue-minimisations  :  8388
 total energy-change (2. order) :-0.9023245E+02  (-0.8495825E+02)
 number of electron     162.0000000 magnetization 
 augmentation part      162.0000000 magnetization 

 Free energy of the ion-electron system (eV)
  ---------------------------------------------------
  alpha Z        PSCENC =       669.19222833
  Ewald energy   TEWEN  =    -13156.10995313
  -Hartree energ DENC   =     -5184.36861412
  -exchange      EXHF   =         0.00000000
  -V(xc)+E(xc)   XCENC  =       752.00410153
  PAW double counting   =     15278.13859621   -15202.21075033
  entropy T*S    EENTRO =        -0.00382351
  eigenvalues    EBANDS =     -2648.31728880
  atomic energy  EATOM  =     19177.43064738
  ---------------------------------------------------
  free energy    TOTEN  =      -314.24485644 eV

  energy without entropy =     -314.24103293  energy(sigma->0) =     -314.24294469


--------------------------------------------------------------------------------------------------------




--------------------------------------- Iteration      1(   4)  ---------------------------------------


    TRIAL :  cpu time   37.2855: real time   37.6720
    CORREC:  cpu time    0.0009: real time    0.0009
    --------------------------------------------
      LOOP:  cpu time   37.2890: real time   37.6760

 eigenvalue-minimisations  :  7692
 total energy-change (2. order) :-0.3075649E+01  (-0.2998862E+01)
 number of electron     162.0000000 magnetization 
 augmentation part      162.0000000 magnetization 

 Free energy of the ion-electron system (eV)
  ---------------------------------------------------
  alpha Z        PSCENC =       669.19222833
  Ewald energy   TEWEN  =    -13156.10995313
  -Hartree energ DENC   =     -5184.36861412
  -exchange      EXHF   =         0.00000000
  -V(xc)+E(xc)   XCENC  =       752.00410153
  PAW double counting   =     15278.13859621   -15202.21075033
  entropy T*S    EENTRO =        -0.00378479
  eigenvalues    EBANDS =     -2651.39297627
  atomic energy  EATOM  =     19177.43064738
  ---------------------------------------------------
  free energy    TOTEN  =      -317.32050518 eV

  energy without entropy =     -317.31672039  energy(sigma->0) =     -317.31861278


--------------------------------------------------------------------------------------------------------




--------------------------------------- Iteration      1(   5)  ---------------------------------------


    TRIAL :  cpu time   37.2034: real time   37.5922
    CORREC:  cpu time    0.0009: real time    0.0009
    CHARGE:  cpu time    2.7225: real time    2.7523
    --------------------------------------------
      LOOP:  cpu time   39.9292: real time   40.3482

 eigenvalue-minimisations  :  7800
 total energy-change (2. order) :-0.7297879E-01  (-0.7263224E-01)
 number of electron     162.0000001 magnetization 
 augmentation part       21.5228686 magnetization 

 Free energy of the ion-electron system (eV)
  ---------------------------------------------------
  alpha Z        PSCENC =       669.19222833
  Ewald energy   TEWEN  =    -13156.10995313
  -Hartree energ DENC   =     -5184.36861412
  -exchange      EXHF   =         0.00000000
  -V(xc)+E(xc)   XCENC  =       752.00410153
  PAW double counting   =     15278.13859621   -15202.21075033
  entropy T*S    EENTRO =        -0.00375126
  eigenvalues    EBANDS =     -2651.46598858
  atomic energy  EATOM  =     19177.43064738
  ---------------------------------------------------
  free energy    TOTEN  =      -317.39348397 eV

  energy without entropy =     -317.38973270  energy(sigma->0) =     -317.39160833


--------------------------------------------------------------------------------------------------------




--------------------------------------- Iteration      1(   6)  ---------------------------------------


    POTLOK:  cpu time    0.3399: real time    0.3424
    SETDIJ:  cpu time    0.7293: real time    0.7356
    TRIAL :  cpu time   29.4790: real time   29.8052
    CORREC:  cpu time   10.8224: real time   10.9292
    CHARGE:  cpu time    2.8005: real time    2.8289
    --------------------------------------------
      LOOP:  cpu time   44.1791: real time   44.6505

 eigenvalue-minimisations  :     0
 total energy-change (2. order) : 0.1410338E+03  (-0.3694196E+02)
 number of electron     162.0000002 magnetization 
 augmentation part       22.5326895 magnetization 

 Free energy of the ion-electron system (eV)
  ---------------------------------------------------
  alpha Z        PSCENC =       669.19222833
  Ewald energy   TEWEN  =    -13156.10995313
  -Hartree energ DENC   =     -4973.65048431
  -exchange      EXHF   =         0.00000000
  -V(xc)+E(xc)   XCENC  =       764.68583710
  PAW double counting   =     24688.04876928   -24652.53090026
  entropy T*S    EENTRO =        -0.00301700
  eigenvalues    EBANDS =     -2693.42208101
  atomic energy  EATOM  =     19177.43064738
  ---------------------------------------------------
  free energy    TOTEN  =      -176.35968788 eV

  energy without entropy =     -176.35667088  energy(sigma->0) =     -176.35817938


--------------------------------------------------------------------------------------------------------




--------------------------------------- Iteration      1(   7)  ---------------------------------------


    POTLOK:  cpu time    0.3375: real time    0.3400
    SETDIJ:  cpu time    0.9028: real time    0.9098
    TRIAL :  cpu time   29.6519: real time   29.9404
    CORREC:  cpu time   11.0875: real time   11.1922
    CHARGE:  cpu time    2.9340: real time    2.9630
    --------------------------------------------
      LOOP:  cpu time   44.9145: real time   45.3474

 eigenvalue-minimisations  :     0
 total energy-change (2. order) :-0.4966736E+02  (-0.6692796E+01)
 number of electron     162.0000001 magnetization 
 augmentation part       23.2295144 magnetization 

 Free energy of the ion-electron system (eV)
  ---------------------------------------------------
  alpha Z        PSCENC =       669.19222833
  Ewald energy   TEWEN  =    -13156.10995313
  -Hartree energ DENC   =     -4971.09113547
  -exchange      EXHF   =         0.00000000
  -V(xc)+E(xc)   XCENC  =       765.42012350
  PAW double counting   =     24173.73974291   -24134.76782712
  entropy T*S    EENTRO =        -0.00373222
  eigenvalues    EBANDS =     -2749.83785827
  atomic energy  EATOM  =     19177.43064738
  ---------------------------------------------------
  free energy    TOTEN  =      -226.02704888 eV

  energy without entropy =     -226.02331666  energy(sigma->0) =     -226.02518277


--------------------------------------------------------------------------------------------------------




--------------------------------------- Iteration      1(   8)  ---------------------------------------


    POTLOK:  cpu time    0.3181: real time    0.3208
    SETDIJ:  cpu time    0.7402: real time    0.7466
    TRIAL :  cpu time   29.7935: real time   30.0974
    CORREC:  cpu time   10.8381: real time   10.9449
    CHARGE:  cpu time    2.8693: real time    2.8984
    --------------------------------------------
      LOOP:  cpu time   44.5608: real time   45.0106

 eigenvalue-minimisations  :     0
 total energy-change (2. order) :-0.7541128E+01  (-0.3870108E+01)
 number of electron     162.0000001 magnetization 
 augmentation part       23.8907089 magnetization 

 Free energy of the ion-electron system (eV)
  ---------------------------------------------------
  alpha Z        PSCENC =       669.19222833
  Ewald energy   TEWEN  =    -13156.10995313
  -Hartree energ DENC   =     -5046.55187559
  -exchange      EXHF   =         0.00000000
  -V(xc)+E(xc)   XCENC  =       768.45578152
  PAW double counting   =     23941.27375468   -23895.17774674
  entropy T*S    EENTRO =        -0.00290589
  eigenvalues    EBANDS =     -2692.07728074
  atomic energy  EATOM  =     19177.43064738
  ---------------------------------------------------
  free energy    TOTEN  =      -233.56817650 eV

  energy without entropy =     -233.56527061  energy(sigma->0) =     -233.56672355


--------------------------------------------------------------------------------------------------------




--------------------------------------- Iteration      1(   9)  ---------------------------------------


    POTLOK:  cpu time    0.3031: real time    0.3052
    SETDIJ:  cpu time    0.8074: real time    0.8139
    TRIAL :  cpu time   30.3800: real time   30.6795
    CORREC:  cpu time   10.9144: real time   11.0229
    CHARGE:  cpu time    2.9711: real time    2.9994
    --------------------------------------------
      LOOP:  cpu time   45.3895: real time   45.8355

 eigenvalue-minimisations  :     0
 total energy-change (2. order) :-0.3854550E+01  (-0.1056765E+01)
 number of electron     162.0000001 magnetization 
 augmentation part       23.9354179 magnetization 

 Free energy of the ion-electron system (eV)
  ---------------------------------------------------
  alpha Z        PSCENC =       669.19222833
  Ewald energy   TEWEN  =    -13156.10995313
  -Hartree energ DENC   =     -5133.57858714
  -exchange      EXHF   =         0.00000000
  -V(xc)+E(xc)   XCENC  =       771.95416480
  PAW double counting   =     23898.41401116   -23843.60963238
  entropy T*S    EENTRO =        -0.00411347
  eigenvalues    EBANDS =     -2621.11269955
  atomic energy  EATOM  =     19177.43064738
  ---------------------------------------------------
  free energy    TOTEN  =      -237.42272641 eV

  energy without entropy =     -237.41861294  energy(sigma->0) =     -237.42066968


--------------------------------------------------------------------------------------------------------




--------------------------------------- Iteration      1(  10)  ---------------------------------------


    POTLOK:  cpu time    0.2973: real time    0.2994
    SETDIJ:  cpu time    0.8050: real time    0.8117
    TRIAL :  cpu time   29.7959: real time   30.0955
    CORREC:  cpu time   10.8795: real time   10.9878
    CHARGE:  cpu time    2.8557: real time    2.8845
    --------------------------------------------
      LOOP:  cpu time   44.6342: real time   45.0808

 eigenvalue-minimisations  :     0
 total energy-change (2. order) :-0.1069132E+01  (-0.9272287E+00)
 number of electron     162.0000001 magnetization 
 augmentation part       23.7701818 magnetization 

 Free energy of the ion-electron system (eV)
  ---------------------------------------------------
  alpha Z        PSCENC =       669.19222833
  Ewald energy   TEWEN  =    -13156.10995313
  -Hartree energ DENC   =     -5140.23489279
  -exchange      EXHF   =         0.00000000
  -V(xc)+E(xc)   XCENC  =       772.20752344
  PAW double counting   =     24068.13023386   -24011.05957314
  entropy T*S    EENTRO =        -0.00528280
  eigenvalues    EBANDS =     -2618.04395898
  atomic energy  EATOM  =     19177.43064738
  ---------------------------------------------------
  free energy    TOTEN  =      -238.49185850 eV

  energy without entropy =     -238.48657570  energy(sigma->0) =     -238.48921710


--------------------------------------------------------------------------------------------------------




--------------------------------------- Iteration      1(  11)  ---------------------------------------


    POTLOK:  cpu time    0.2973: real time    0.2994
    SETDIJ:  cpu time    0.7891: real time    0.7959
    TRIAL :  cpu time   29.8394: real time   30.1376
    CORREC:  cpu time   10.8286: real time   10.9348
    CHARGE:  cpu time    2.8244: real time    2.8542
    --------------------------------------------
      LOOP:  cpu time   44.5802: real time   45.0236

 eigenvalue-minimisations  :     0
 total energy-change (2. order) :-0.9271578E+00  (-0.3547894E+00)
 number of electron     162.0000001 magnetization 
 augmentation part       23.7048175 magnetization 

 Free energy of the ion-electron system (eV)
  ---------------------------------------------------
  alpha Z        PSCENC =       669.19222833
  Ewald energy   TEWEN  =    -13156.10995313
  -Hartree energ DENC   =     -5111.55342397
  -exchange      EXHF   =         0.00000000
  -V(xc)+E(xc)   XCENC  =       771.14882841
  PAW double counting   =     24516.02670556   -24458.31661169
  entropy T*S    EENTRO =        -0.00523372
  eigenvalues    EBANDS =     -2647.23215443
  atomic energy  EATOM  =     19177.43064738
  ---------------------------------------------------
  free energy    TOTEN  =      -239.41901633 eV

  energy without entropy =     -239.41378261  energy(sigma->0) =     -239.41639947


--------------------------------------------------------------------------------------------------------




--------------------------------------- Iteration      1(  12)  ---------------------------------------


    POTLOK:  cpu time    0.3205: real time    0.3230
    SETDIJ:  cpu time    0.7530: real time    0.7597
    TRIAL :  cpu time   30.1451: real time   30.4459
    CORREC:  cpu time   11.2553: real time   11.3650
    CHARGE:  cpu time    2.7493: real time    2.7778
    --------------------------------------------
      LOOP:  cpu time   45.2245: real time   45.6736

 eigenvalue-minimisations  :     0
 total energy-change (2. order) :-0.3603144E+00  (-0.2194520E+00)
 number of electron     162.0000001 magnetization 
 augmentation part       23.7295026 magnetization 

 Free energy of the ion-electron system (eV)
  ---------------------------------------------------
  alpha Z        PSCENC =       669.19222833
  Ewald energy   TEWEN  =    -13156.10995313
  -Hartree energ DENC   =     -5097.78313700
  -exchange      EXHF   =         0.00000000
  -V(xc)+E(xc)   XCENC  =       770.72954309
  PAW double counting   =     24776.95644453   -24719.17767465
  entropy T*S    EENTRO =        -0.00491233
  eigenvalues    EBANDS =     -2661.01219552
  atomic energy  EATOM  =     19177.43064738
  ---------------------------------------------------
  free energy    TOTEN  =      -239.77933068 eV

  energy without entropy =     -239.77441835  energy(sigma->0) =     -239.77687452


--------------------------------------------------------------------------------------------------------




--------------------------------------- Iteration      1(  13)  ---------------------------------------


    POTLOK:  cpu time    0.2982: real time    0.3002
    SETDIJ:  cpu time    0.8086: real time    0.8152
    TRIAL :  cpu time   30.3104: real time   30.6089
    CORREC:  cpu time   11.0412: real time   11.1498
    CHARGE:  cpu time    2.7568: real time    2.7841
    --------------------------------------------
      LOOP:  cpu time   45.2160: real time   45.6599

 eigenvalue-minimisations  :     0
 total energy-change (2. order) :-0.2194356E+00  (-0.1118456E+00)
 number of electron     162.0000001 magnetization 
 augmentation part       23.7604461 magnetization 

 Free energy of the ion-electron system (eV)
  ---------------------------------------------------
  alpha Z        PSCENC =       669.19222833
  Ewald energy   TEWEN  =    -13156.10995313
  -Hartree energ DENC   =     -5101.61767400
  -exchange      EXHF   =         0.00000000
  -V(xc)+E(xc)   XCENC  =       771.03286122
  PAW double counting   =     24959.82955421   -24901.57198703
  entropy T*S    EENTRO =        -0.00440802
  eigenvalues    EBANDS =     -2658.17953095
  atomic energy  EATOM  =     19177.43064738
  ---------------------------------------------------
  free energy    TOTEN  =      -239.99876629 eV

  energy without entropy =     -239.99435827  energy(sigma->0) =     -239.99656228


--------------------------------------------------------------------------------------------------------




--------------------------------------- Iteration      1(  14)  ---------------------------------------


    POTLOK:  cpu time    0.2885: real time    0.2905
    SETDIJ:  cpu time    0.8307: real time    0.8372
    TRIAL :  cpu time   30.2054: real time   30.5066
    CORREC:  cpu time   10.9389: real time   11.0490
    CHARGE:  cpu time    2.7750: real time    2.8029
    --------------------------------------------
      LOOP:  cpu time   45.0396: real time   45.4880

 eigenvalue-minimisations  :     0
 total energy-change (2. order) :-0.1101090E+00  (-0.6707697E-01)
 number of electron     162.0000001 magnetization 
 augmentation part       23.7612574 magnetization 

 Free energy of the ion-electron system (eV)
  ---------------------------------------------------
  alpha Z        PSCENC =       669.19222833
  Ewald energy   TEWEN  =    -13156.10995313
  -Hartree energ DENC   =     -5109.20941123
  -exchange      EXHF   =         0.00000000
  -V(xc)+E(xc)   XCENC  =       771.39238030
  PAW double counting   =     25035.17648109   -24976.56373484
  entropy T*S    EENTRO =        -0.00429758
  eigenvalues    EBANDS =     -2651.41310518
  atomic energy  EATOM  =     19177.43064738
  ---------------------------------------------------
  free energy    TOTEN  =      -240.10887529 eV

  energy without entropy =     -240.10457771  energy(sigma->0) =     -240.10672650


--------------------------------------------------------------------------------------------------------




--------------------------------------- Iteration      1(  15)  ---------------------------------------


    POTLOK:  cpu time    0.3869: real time    0.3900
    SETDIJ:  cpu time    0.6390: real time    0.6445
    TRIAL :  cpu time   29.5847: real time   29.8910
    CORREC:  cpu time   10.8298: real time   10.9376
    CHARGE:  cpu time    2.9506: real time    2.9812
    --------------------------------------------
      LOOP:  cpu time   44.3918: real time   44.8459

 eigenvalue-minimisations  :     0
 total energy-change (2. order) :-0.6703125E-01  (-0.5239732E-01)
 number of electron     162.0000001 magnetization 
 augmentation part       23.7367616 magnetization 

 Free energy of the ion-electron system (eV)
  ---------------------------------------------------
  alpha Z        PSCENC =       669.19222833
  Ewald energy   TEWEN  =    -13156.10995313
  -Hartree energ DENC   =     -5113.72414409
  -exchange      EXHF   =         0.00000000
  -V(xc)+E(xc)   XCENC  =       771.54323487
  PAW double counting   =     25045.33136687   -24986.77006161
  entropy T*S    EENTRO =        -0.00437119
  eigenvalues    EBANDS =     -2647.06492758
  atomic energy  EATOM  =     19177.43064738
  ---------------------------------------------------
  free energy    TOTEN  =      -240.17590654 eV

  energy without entropy =     -240.17153535  energy(sigma->0) =     -240.17372095


--------------------------------------------------------------------------------------------------------




--------------------------------------- Iteration      1(  16)  ---------------------------------------


    POTLOK:  cpu time    0.2873: real time    0.2893
    SETDIJ:  cpu time    0.9265: real time    0.9337
    TRIAL :  cpu time   30.1647: real time   30.4696
    CORREC:  cpu time   10.6904: real time   10.7937
    CHARGE:  cpu time    2.7555: real time    2.7833
    --------------------------------------------
      LOOP:  cpu time   44.8323: real time   45.2785

 eigenvalue-minimisations  :     0
 total energy-change (2. order) :-0.5252159E-01  (-0.2164612E-01)
 number of electron     162.0000001 magnetization 
 augmentation part       23.7075734 magnetization 

 Free energy of the ion-electron system (eV)
  ---------------------------------------------------
  alpha Z        PSCENC =       669.19222833
  Ewald energy   TEWEN  =    -13156.10995313
  -Hartree energ DENC   =     -5112.55049989
  -exchange      EXHF   =         0.00000000
  -V(xc)+E(xc)   XCENC  =       771.44932421
  PAW double counting   =     25036.60003558   -24978.41767770
  entropy T*S    EENTRO =        -0.00434367
  eigenvalues    EBANDS =     -2647.81816173
  atomic energy  EATOM  =     19177.43064738
  ---------------------------------------------------
  free energy    TOTEN  =      -240.22842813 eV

  energy without entropy =     -240.22408446  energy(sigma->0) =     -240.22625630


--------------------------------------------------------------------------------------------------------




--------------------------------------- Iteration      1(  17)  ---------------------------------------


    POTLOK:  cpu time    0.3056: real time    0.3078
    SETDIJ:  cpu time    0.8550: real time    0.8621
    TRIAL :  cpu time   30.0478: real time   30.3495
    CORREC:  cpu time   11.1383: real time   11.2443
    CHARGE:  cpu time    2.7805: real time    2.8079
    --------------------------------------------
      LOOP:  cpu time   45.1291: real time   45.5740

 eigenvalue-minimisations  :     0
 total energy-change (2. order) :-0.2166055E-01  (-0.2279501E-01)
 number of electron     162.0000001 magnetization 
 augmentation part       23.6796502 magnetization 

 Free energy of the ion-electron system (eV)
  ---------------------------------------------------
  alpha Z        PSCENC =       669.19222833
  Ewald energy   TEWEN  =    -13156.10995313
  -Hartree energ DENC   =     -5107.42372696
  -exchange      EXHF   =         0.00000000
  -V(xc)+E(xc)   XCENC  =       771.21584000
  PAW double counting   =     25011.67240844   -24953.87403171
  entropy T*S    EENTRO =        -0.00429444
  eigenvalues    EBANDS =     -2652.34915737
  atomic energy  EATOM  =     19177.43064738
  ---------------------------------------------------
  free energy    TOTEN  =      -240.25008868 eV

  energy without entropy =     -240.24579424  energy(sigma->0) =     -240.24794146


--------------------------------------------------------------------------------------------------------




--------------------------------------- Iteration      1(  18)  ---------------------------------------


    POTLOK:  cpu time    0.2992: real time    0.3013
    SETDIJ:  cpu time    0.7958: real time    0.8024
    TRIAL :  cpu time   30.2150: real time   30.5171
    CORREC:  cpu time   11.0799: real time   11.1856
    CHARGE:  cpu time    2.9781: real time    3.0068
    --------------------------------------------
      LOOP:  cpu time   45.3774: real time   45.8243

 eigenvalue-minimisations  :     0
 total energy-change (2. order) :-0.2275883E-01  (-0.7986975E-02)
 number of electron     162.0000001 magnetization 
 augmentation part       23.6907825 magnetization 

 Free energy of the ion-electron system (eV)
  ---------------------------------------------------
  alpha Z        PSCENC =       669.19222833
  Ewald energy   TEWEN  =    -13156.10995313
  -Hartree energ DENC   =     -5101.81534134
  -exchange      EXHF   =         0.00000000
  -V(xc)+E(xc)   XCENC  =       770.96358198
  PAW double counting   =     24962.42305968   -24904.97585587
  entropy T*S    EENTRO =        -0.00425011
  eigenvalues    EBANDS =     -2657.37692009
  atomic energy  EATOM  =     19177.43064738
  ---------------------------------------------------
  free energy    TOTEN  =      -240.27284751 eV

  energy without entropy =     -240.26859740  energy(sigma->0) =     -240.27072246


--------------------------------------------------------------------------------------------------------




--------------------------------------- Iteration      1(  19)  ---------------------------------------


    POTLOK:  cpu time    0.3091: real time    0.3112
    SETDIJ:  cpu time    0.8016: real time    0.8087
    TRIAL :  cpu time   30.1397: real time   30.4406
    CORREC:  cpu time   10.8380: real time   10.9477
    CHARGE:  cpu time    2.7216: real time    2.7481
    --------------------------------------------
      LOOP:  cpu time   44.8113: real time   45.2580

 eigenvalue-minimisations  :     0
 total energy-change (2. order) :-0.7983596E-02  (-0.1099777E-01)
 number of electron     162.0000001 magnetization 
 augmentation part       23.7287944 magnetization 

 Free energy of the ion-electron system (eV)
  ---------------------------------------------------
  alpha Z        PSCENC =       669.19222833
  Ewald energy   TEWEN  =    -13156.10995313
  -Hartree energ DENC   =     -5103.15367545
  -exchange      EXHF   =         0.00000000
  -V(xc)+E(xc)   XCENC  =       771.02875930
  PAW double counting   =     24931.82102602   -24874.25155290
  entropy T*S    EENTRO =        -0.00418941
  eigenvalues    EBANDS =     -2656.23406056
  atomic energy  EATOM  =     19177.43064738
  ---------------------------------------------------
  free energy    TOTEN  =      -240.28083111 eV

  energy without entropy =     -240.27664169  energy(sigma->0) =     -240.27873640


--------------------------------------------------------------------------------------------------------




--------------------------------------- Iteration      1(  20)  ---------------------------------------


    POTLOK:  cpu time    0.2927: real time    0.2947
    SETDIJ:  cpu time    0.7933: real time    0.7997
    TRIAL :  cpu time   29.6021: real time   29.8978
    CORREC:  cpu time   10.7342: real time   10.8401
    CHARGE:  cpu time    2.8990: real time    2.9272
    --------------------------------------------
      LOOP:  cpu time   44.3220: real time   44.7612

 eigenvalue-minimisations  :     0
 total energy-change (2. order) :-0.1098416E-01  (-0.3427821E-02)
 number of electron     162.0000001 magnetization 
 augmentation part       23.7360794 magnetization 

 Free energy of the ion-electron system (eV)
  ---------------------------------------------------
  alpha Z        PSCENC =       669.19222833
  Ewald energy   TEWEN  =    -13156.10995313
  -Hartree energ DENC   =     -5108.25199644
  -exchange      EXHF   =         0.00000000
  -V(xc)+E(xc)   XCENC  =       771.28007114
  PAW double counting   =     24879.75122520   -24821.75841174
  entropy T*S    EENTRO =        -0.00418929
  eigenvalues    EBANDS =     -2651.82143662
  atomic energy  EATOM  =     19177.43064738
  ---------------------------------------------------
  free energy    TOTEN  =      -240.29181527 eV

  energy without entropy =     -240.28762598  energy(sigma->0) =     -240.28972062


--------------------------------------------------------------------------------------------------------




--------------------------------------- Iteration      1(  21)  ---------------------------------------


    POTLOK:  cpu time    0.3037: real time    0.3059
    SETDIJ:  cpu time    0.8079: real time    0.8144
    TRIAL :  cpu time   29.6989: real time   29.9939
    CORREC:  cpu time   11.4190: real time   11.5284
    CHARGE:  cpu time    2.7293: real time    2.7577
    --------------------------------------------
      LOOP:  cpu time   44.9602: real time   45.4020

 eigenvalue-minimisations  :     0
 total energy-change (2. order) :-0.3448972E-02  (-0.4587505E-02)
 number of electron     162.0000001 magnetization 
 augmentation part       23.7317866 magnetization 

 Free energy of the ion-electron system (eV)
  ---------------------------------------------------
  alpha Z        PSCENC =       669.19222833
  Ewald energy   TEWEN  =    -13156.10995313
  -Hartree energ DENC   =     -5108.99919109
  -exchange      EXHF   =         0.00000000
  -V(xc)+E(xc)   XCENC  =       771.31874379
  PAW double counting   =     24863.46558672   -24805.38368898
  entropy T*S    EENTRO =        -0.00414349
  eigenvalues    EBANDS =     -2651.20544798
  atomic energy  EATOM  =     19177.43064738
  ---------------------------------------------------
  free energy    TOTEN  =      -240.29526424 eV

  energy without entropy =     -240.29112075  energy(sigma->0) =     -240.29319250


--------------------------------------------------------------------------------------------------------




--------------------------------------- Iteration      1(  22)  ---------------------------------------


    POTLOK:  cpu time    0.3077: real time    0.3099
    SETDIJ:  cpu time    0.8631: real time    0.8700
    TRIAL :  cpu time   30.0968: real time   30.3987
    CORREC:  cpu time   10.9772: real time   11.0832
    CHARGE:  cpu time    2.9842: real time    3.0127
    --------------------------------------------
      LOOP:  cpu time   45.2410: real time   45.6877

 eigenvalue-minimisations  :     0
 total energy-change (2. order) :-0.4597440E-02  (-0.1418478E-02)
 number of electron     162.0000001 magnetization 
 augmentation part       23.7272595 magnetization 

 Free energy of the ion-electron system (eV)
  ---------------------------------------------------
  alpha Z        PSCENC =       669.19222833
  Ewald energy   TEWEN  =    -13156.10995313
  -Hartree energ DENC   =     -5108.02064433
  -exchange      EXHF   =         0.00000000
  -V(xc)+E(xc)   XCENC  =       771.26587716
  PAW double counting   =     24843.43093859   -24785.36062077
  entropy T*S    EENTRO =        -0.00409380
  eigenvalues    EBANDS =     -2652.12419142
  atomic energy  EATOM  =     19177.43064738
  ---------------------------------------------------
  free energy    TOTEN  =      -240.29986168 eV

  energy without entropy =     -240.29576788  energy(sigma->0) =     -240.29781478


--------------------------------------------------------------------------------------------------------




--------------------------------------- Iteration      1(  23)  ---------------------------------------


    POTLOK:  cpu time    0.3629: real time    0.3652
    SETDIJ:  cpu time    0.7419: real time    0.7476
    TRIAL :  cpu time   30.0921: real time   30.3920
    CORREC:  cpu time   11.0216: real time   11.1272
    CHARGE:  cpu time    2.9367: real time    2.9656
    --------------------------------------------
      LOOP:  cpu time   45.1559: real time   45.5992

 eigenvalue-minimisations  :     0
 total energy-change (2. order) :-0.1406412E-02  (-0.1765762E-02)
 number of electron     162.0000001 magnetization 
 augmentation part       23.7183836 magnetization 

 Free energy of the ion-electron system (eV)
  ---------------------------------------------------
  alpha Z        PSCENC =       669.19222833
  Ewald energy   TEWEN  =    -13156.10995313
  -Hartree energ DENC   =     -5107.40738755
  -exchange      EXHF   =         0.00000000
  -V(xc)+E(xc)   XCENC  =       771.23212842
  PAW double counting   =     24841.27973463   -24783.24813970
  entropy T*S    EENTRO =        -0.00402477
  eigenvalues    EBANDS =     -2652.66643267
  atomic energy  EATOM  =     19177.43064738
  ---------------------------------------------------
  free energy    TOTEN  =      -240.30126809 eV

  energy without entropy =     -240.29724333  energy(sigma->0) =     -240.29925571


--------------------------------------------------------------------------------------------------------




--------------------------------------- Iteration      1(  24)  ---------------------------------------


    POTLOK:  cpu time    0.3078: real time    0.3099
    SETDIJ:  cpu time    0.8510: real time    0.8576
    TRIAL :  cpu time   29.7390: real time   30.0332
    CORREC:  cpu time   10.9591: real time   11.0661
    CHARGE:  cpu time    2.7037: real time    2.7313
    --------------------------------------------
      LOOP:  cpu time   44.5642: real time   45.0022

 eigenvalue-minimisations  :     0
 total energy-change (2. order) :-0.1764534E-02  (-0.6064328E-03)
 number of electron     162.0000001 magnetization 
 augmentation part       23.7175035 magnetization 

 Free energy of the ion-electron system (eV)
  ---------------------------------------------------
  alpha Z        PSCENC =       669.19222833
  Ewald energy   TEWEN  =    -13156.10995313
  -Hartree energ DENC   =     -5106.36603792
  -exchange      EXHF   =         0.00000000
  -V(xc)+E(xc)   XCENC  =       771.18044360
  PAW double counting   =     24852.65241476   -24794.72336404
  entropy T*S    EENTRO =        -0.00402085
  eigenvalues    EBANDS =     -2653.55538685
  atomic energy  EATOM  =     19177.43064738
  ---------------------------------------------------
  free energy    TOTEN  =      -240.30303263 eV

  energy without entropy =     -240.29901177  energy(sigma->0) =     -240.30102220


--------------------------------------------------------------------------------------------------------




--------------------------------------- Iteration      1(  25)  ---------------------------------------


    POTLOK:  cpu time    0.3042: real time    0.3063
    SETDIJ:  cpu time    0.7661: real time    0.7727
    TRIAL :  cpu time   29.6664: real time   29.9651
    CORREC:  cpu time   10.8084: real time   10.9136
    CHARGE:  cpu time    2.7984: real time    2.8261
    --------------------------------------------
      LOOP:  cpu time   44.3730: real time   44.8142

 eigenvalue-minimisations  :     0
 total energy-change (2. order) :-0.6115314E-03  (-0.6011395E-03)
 number of electron     162.0000001 magnetization 
 augmentation part       23.7229916 magnetization 

 Free energy of the ion-electron system (eV)
  ---------------------------------------------------
  alpha Z        PSCENC =       669.19222833
  Ewald energy   TEWEN  =    -13156.10995313
  -Hartree energ DENC   =     -5106.39951457
  -exchange      EXHF   =         0.00000000
  -V(xc)+E(xc)   XCENC  =       771.18262796
  PAW double counting   =     24860.54581990   -24802.63213584
  entropy T*S    EENTRO =        -0.00401115
  eigenvalues    EBANDS =     -2653.50934334
  atomic energy  EATOM  =     19177.43064738
  ---------------------------------------------------
  free energy    TOTEN  =      -240.30364416 eV

  energy without entropy =     -240.29963301  energy(sigma->0) =     -240.30163858


--------------------------------------------------------------------------------------------------------




--------------------------------------- Iteration      1(  26)  ---------------------------------------


    POTLOK:  cpu time    0.2876: real time    0.2904
    SETDIJ:  cpu time    0.8037: real time    0.8102
    TRIAL :  cpu time   30.0457: real time   30.3480
[...]
  ---------------------------------------------------
  free energy    TOTEN  =      -240.30504890 eV

  energy without entropy =     -240.30105092  energy(sigma->0) =     -240.30304991


--------------------------------------------------------------------------------------------------------




--------------------------------------- Iteration      1(  41)  ---------------------------------------


    POTLOK:  cpu time    0.3015: real time    0.3036
    SETDIJ:  cpu time    0.8141: real time    0.8210
    TRIAL :  cpu time   30.0434: real time   30.3342
    CORREC:  cpu time   10.7713: real time   10.8734
    CHARGE:  cpu time    2.6921: real time    2.7187
    --------------------------------------------
      LOOP:  cpu time   44.6284: real time   45.0584

 eigenvalue-minimisations  :     0
 total energy-change (2. order) :-0.2094675E-06  (-0.1431409E-06)
 number of electron     162.0000001 magnetization 
 augmentation part       23.7217622 magnetization 

 Free energy of the ion-electron system (eV)
  ---------------------------------------------------
  alpha Z        PSCENC =       669.19222833
  Ewald energy   TEWEN  =    -13156.10995313
  -Hartree energ DENC   =     -5107.36946239
  -exchange      EXHF   =         0.00000000
  -V(xc)+E(xc)   XCENC  =       771.22758521
  PAW double counting   =     24883.37608194   -24825.40935126
  entropy T*S    EENTRO =        -0.00399756
  eigenvalues    EBANDS =     -2652.63882720
  atomic energy  EATOM  =     19177.43064738
  ---------------------------------------------------
  free energy    TOTEN  =      -240.30504911 eV

  energy without entropy =     -240.30105155  energy(sigma->0) =     -240.30305033


--------------------------------------------------------------------------------------------------------




--------------------------------------- Iteration      1(  42)  ---------------------------------------


    POTLOK:  cpu time    0.3517: real time    0.3541
    SETDIJ:  cpu time    0.8089: real time    0.8155
    TRIAL :  cpu time   30.0578: real time   30.3485
    CORREC:  cpu time   10.9616: real time   11.0669
    CHARGE:  cpu time    2.7297: real time    2.7558
    --------------------------------------------
      LOOP:  cpu time   44.9110: real time   45.3425

 eigenvalue-minimisations  :     0
 total energy-change (2. order) :-0.1517801E-06  (-0.1980807E-06)
 number of electron     162.0000001 magnetization 
 augmentation part       23.7217383 magnetization 

 Free energy of the ion-electron system (eV)
  ---------------------------------------------------
  alpha Z        PSCENC =       669.19222833
  Ewald energy   TEWEN  =    -13156.10995313
  -Hartree energ DENC   =     -5107.36067493
  -exchange      EXHF   =         0.00000000
  -V(xc)+E(xc)   XCENC  =       771.22727456
  PAW double counting   =     24883.43803340   -24825.47169965
  entropy T*S    EENTRO =        -0.00399766
  eigenvalues    EBANDS =     -2652.64690767
  atomic energy  EATOM  =     19177.43064738
  ---------------------------------------------------
  free energy    TOTEN  =      -240.30504926 eV

  energy without entropy =     -240.30105161  energy(sigma->0) =     -240.30305044


--------------------------------------------------------------------------------------------------------




--------------------------------------- Iteration      1(  43)  ---------------------------------------


    POTLOK:  cpu time    0.2953: real time    0.2973
    SETDIJ:  cpu time    0.8739: real time    0.8807
    TRIAL :  cpu time   30.2696: real time   30.5647
    CORREC:  cpu time   10.9884: real time   11.0909
    CHARGE:  cpu time    2.8224: real time    2.8497
    --------------------------------------------
      LOOP:  cpu time   45.2629: real time   45.6974

 eigenvalue-minimisations  :     0
 total energy-change (2. order) :-0.1992776E-06  (-0.2363974E-06)
 number of electron     162.0000001 magnetization 
 augmentation part       23.7218399 magnetization 

 Free energy of the ion-electron system (eV)
  ---------------------------------------------------
  alpha Z        PSCENC =       669.19222833
  Ewald energy   TEWEN  =    -13156.10995313
  -Hartree energ DENC   =     -5107.35325538
  -exchange      EXHF   =         0.00000000
  -V(xc)+E(xc)   XCENC  =       771.22706275
  PAW double counting   =     24883.55365535   -24825.58762021
  entropy T*S    EENTRO =        -0.00399787
  eigenvalues    EBANDS =     -2652.65381689
  atomic energy  EATOM  =     19177.43064738
  ---------------------------------------------------
  free energy    TOTEN  =      -240.30504946 eV

  energy without entropy =     -240.30105160  energy(sigma->0) =     -240.30305053


--------------------------------------------------------------------------------------------------------




--------------------------------------- Iteration      1(  44)  ---------------------------------------


    POTLOK:  cpu time    0.3035: real time    0.3056
    SETDIJ:  cpu time    0.7782: real time    0.7846
    TRIAL :  cpu time   29.9403: real time   30.2380
    CORREC:  cpu time   10.8168: real time   10.9191
    CHARGE:  cpu time    2.7654: real time    2.7926
    --------------------------------------------
      LOOP:  cpu time   44.6051: real time   45.0422

 eigenvalue-minimisations  :     0
 total energy-change (2. order) :-0.1879234E-06  (-0.2697116E-07)
 number of electron     162.0000001 magnetization 
 augmentation part       23.7218379 magnetization 

 Free energy of the ion-electron system (eV)
  ---------------------------------------------------
  alpha Z        PSCENC =       669.19222833
  Ewald energy   TEWEN  =    -13156.10995313
  -Hartree energ DENC   =     -5107.37872400
  -exchange      EXHF   =         0.00000000
  -V(xc)+E(xc)   XCENC  =       771.22803198
  PAW double counting   =     24883.67243885   -24825.70513302
  entropy T*S    EENTRO =        -0.00399801
  eigenvalues    EBANDS =     -2652.63058818
  atomic energy  EATOM  =     19177.43064738
  ---------------------------------------------------
  free energy    TOTEN  =      -240.30504965 eV

  energy without entropy =     -240.30105164  energy(sigma->0) =     -240.30305065


--------------------------------------------------------------------------------------------------------




--------------------------------------- Iteration      1(  45)  ---------------------------------------


    POTLOK:  cpu time    0.2827: real time    0.2846
    SETDIJ:  cpu time    0.9156: real time    0.9227
    TRIAL :  cpu time   29.9825: real time   30.2711
    CORREC:  cpu time   10.7106: real time   10.8140
    CHARGE:  cpu time    2.9122: real time    2.9392
    --------------------------------------------
      LOOP:  cpu time   44.8096: real time   45.2380

 eigenvalue-minimisations  :     0
 total energy-change (2. order) :-0.1445733E-07  (-0.1609090E-07)
 number of electron     162.0000001 magnetization 
 augmentation part       23.7218195 magnetization 

 Free energy of the ion-electron system (eV)
  ---------------------------------------------------
  alpha Z        PSCENC =       669.19222833
  Ewald energy   TEWEN  =    -13156.10995313
  -Hartree energ DENC   =     -5107.37830552
  -exchange      EXHF   =         0.00000000
  -V(xc)+E(xc)   XCENC  =       771.22800673
  PAW double counting   =     24883.69827046   -24825.73099519
  entropy T*S    EENTRO =        -0.00399805
  eigenvalues    EBANDS =     -2652.63095073
  atomic energy  EATOM  =     19177.43064738
  ---------------------------------------------------
  free energy    TOTEN  =      -240.30504967 eV

  energy without entropy =     -240.30105162  energy(sigma->0) =     -240.30305064


--------------------------------------------------------------------------------------------------------




--------------------------------------- Iteration      1(  46)  ---------------------------------------


    POTLOK:  cpu time    0.3070: real time    0.3092
    SETDIJ:  cpu time    0.8578: real time    0.8647
    TRIAL :  cpu time   29.5586: real time   29.8352
    CORREC:  cpu time   11.7615: real time   11.8676
    CHARGE:  cpu time    2.8413: real time    2.8689
    --------------------------------------------
      LOOP:  cpu time   45.3271: real time   45.7476

 eigenvalue-minimisations  :     0
 total energy-change (2. order) : 0.2546585E-10  (-0.1113742E-07)
 number of electron     162.0000001 magnetization 
 augmentation part       23.7217972 magnetization 

 Free energy of the ion-electron system (eV)
  ---------------------------------------------------
  alpha Z        PSCENC =       669.19222833
  Ewald energy   TEWEN  =    -13156.10995313
  -Hartree energ DENC   =     -5107.37391395
  -exchange      EXHF   =         0.00000000
  -V(xc)+E(xc)   XCENC  =       771.22782863
  PAW double counting   =     24883.70528014   -24825.73823132
  entropy T*S    EENTRO =        -0.00399802
  eigenvalues    EBANDS =     -2652.63493770
  atomic energy  EATOM  =     19177.43064738
  ---------------------------------------------------
  free energy    TOTEN  =      -240.30504967 eV

  energy without entropy =     -240.30105165  energy(sigma->0) =     -240.30305066


--------------------------------------------------------------------------------------------------------




--------------------------------------- Iteration      1(  47)  ---------------------------------------


    POTLOK:  cpu time    0.2967: real time    0.2989
    SETDIJ:  cpu time    0.7854: real time    0.7923
    TRIAL :  cpu time   30.1311: real time   30.4180
    CORREC:  cpu time   10.9715: real time   11.0757
    CHARGE:  cpu time    2.8075: real time    2.8332
    --------------------------------------------
      LOOP:  cpu time   45.0019: real time   45.4286

 eigenvalue-minimisations  :     0
 total energy-change (2. order) : 0.3998139E-08  (-0.1073676E-07)
 number of electron     162.0000001 magnetization 
 augmentation part       23.7217871 magnetization 

 Free energy of the ion-electron system (eV)
  ---------------------------------------------------
  alpha Z        PSCENC =       669.19222833
  Ewald energy   TEWEN  =    -13156.10995313
  -Hartree energ DENC   =     -5107.36869175
  -exchange      EXHF   =         0.00000000
  -V(xc)+E(xc)   XCENC  =       771.22761736
  PAW double counting   =     24883.70608460   -24825.73930085
  entropy T*S    EENTRO =        -0.00399792
  eigenvalues    EBANDS =     -2652.63968359
  atomic energy  EATOM  =     19177.43064738
  ---------------------------------------------------
  free energy    TOTEN  =      -240.30504966 eV

  energy without entropy =     -240.30105174  energy(sigma->0) =     -240.30305070


--------------------------------------------------------------------------------------------------------




--------------------------------------- Iteration      1(  48)  ---------------------------------------


    POTLOK:  cpu time    0.2930: real time    0.2949
    SETDIJ:  cpu time    0.8859: real time    0.8929
    TRIAL :  cpu time   30.3632: real time   30.6550
    CORREC:  cpu time   10.7702: real time   10.8706
    CHARGE:  cpu time    2.8231: real time    2.8491
    --------------------------------------------
      LOOP:  cpu time   45.1361: real time   45.5643

 eigenvalue-minimisations  :     0
 total energy-change (2. order) :-0.9658834E-08  (-0.8166563E-08)
 number of electron     162.0000001 magnetization 
 augmentation part       23.7217750 magnetization 

 Free energy of the ion-electron system (eV)
  ---------------------------------------------------
  alpha Z        PSCENC =       669.19222833
  Ewald energy   TEWEN  =    -13156.10995313
  -Hartree energ DENC   =     -5107.36644840
  -exchange      EXHF   =         0.00000000
  -V(xc)+E(xc)   XCENC  =       771.22752655
  PAW double counting   =     24883.69801143   -24825.73133381
  entropy T*S    EENTRO =        -0.00399792
  eigenvalues    EBANDS =     -2652.64173011
  atomic energy  EATOM  =     19177.43064738
  ---------------------------------------------------
  free energy    TOTEN  =      -240.30504967 eV

  energy without entropy =     -240.30105175  energy(sigma->0) =     -240.30305071


--------------------------------------------------------------------------------------------------------




--------------------------------------- Iteration      1(  49)  ---------------------------------------


    POTLOK:  cpu time    0.3003: real time    0.3023
    SETDIJ:  cpu time    0.8085: real time    0.8148
    TRIAL :  cpu time   29.9974: real time   30.2806
    CORREC:  cpu time   10.5580: real time   10.6580
    CHARGE:  cpu time    2.8680: real time    2.8950
    --------------------------------------------
      LOOP:  cpu time   44.5476: real time   44.9673

 eigenvalue-minimisations  :     0
 total energy-change (2. order) :-0.7461495E-08  ( 0.3702874E-08)
 number of electron     162.0000001 magnetization 
 augmentation part       23.7217779 magnetization 

 Free energy of the ion-electron system (eV)
  ---------------------------------------------------
  alpha Z        PSCENC =       669.19222833
  Ewald energy   TEWEN  =    -13156.10995313
  -Hartree energ DENC   =     -5107.36333471
  -exchange      EXHF   =         0.00000000
  -V(xc)+E(xc)   XCENC  =       771.22740915
  PAW double counting   =     24883.68521158   -24825.71867795
  entropy T*S    EENTRO =        -0.00399799
  eigenvalues    EBANDS =     -2652.64458241
  atomic energy  EATOM  =     19177.43064738
  ---------------------------------------------------
  free energy    TOTEN  =      -240.30504968 eV

  energy without entropy =     -240.30105169  energy(sigma->0) =     -240.30305069


--------------------------------------------------------------------------------------------------------




--------------------------------------- Iteration      1(  50)  ---------------------------------------


    POTLOK:  cpu time    0.3088: real time    0.3109
    SETDIJ:  cpu time    0.8089: real time    0.8155
    TRIAL :  cpu time   30.6706: real time   30.9612
    CORREC:  cpu time   10.4697: real time   10.5669
    CHARGE:  cpu time    2.8221: real time    2.8476
    --------------------------------------------
      LOOP:  cpu time   45.0959: real time   45.5191

 eigenvalue-minimisations  :     0
 total energy-change (2. order) :-0.1101944E-07  ( 0.1608136E-08)
 number of electron     162.0000001 magnetization 
 augmentation part       23.7217863 magnetization 

 Free energy of the ion-electron system (eV)
  ---------------------------------------------------
  alpha Z        PSCENC =       669.19222833
  Ewald energy   TEWEN  =    -13156.10995313
  -Hartree energ DENC   =     -5107.36378449
  -exchange      EXHF   =         0.00000000
  -V(xc)+E(xc)   XCENC  =       771.22743129
  PAW double counting   =     24883.67086654   -24825.70430310
  entropy T*S    EENTRO =        -0.00399803
  eigenvalues    EBANDS =     -2652.64418454
  atomic energy  EATOM  =     19177.43064738
  ---------------------------------------------------
  free energy    TOTEN  =      -240.30504969 eV

  energy without entropy =     -240.30105166  energy(sigma->0) =     -240.30305067


--------------------------------------------------------------------------------------------------------




--------------------------------------- Iteration      1(  51)  ---------------------------------------


    POTLOK:  cpu time    0.3555: real time    0.3582
    SETDIJ:  cpu time    0.7926: real time    0.7992
    TRIAL :  cpu time   30.3654: real time   30.6562
    CORREC:  cpu time   10.4952: real time   10.5946
    CHARGE:  cpu time    2.9573: real time    2.9857
    --------------------------------------------
      LOOP:  cpu time   44.9667: real time   45.3956

 eigenvalue-minimisations  :     0
 total energy-change (2. order) :-0.1895751E-07  ( 0.1672170E-08)
 number of electron     162.0000001 magnetization 
 augmentation part       23.7217845 magnetization 

 Free energy of the ion-electron system (eV)
  ---------------------------------------------------
  alpha Z        PSCENC =       669.19222833
  Ewald energy   TEWEN  =    -13156.10995313
  -Hartree energ DENC   =     -5107.36566970
  -exchange      EXHF   =         0.00000000
  -V(xc)+E(xc)   XCENC  =       771.22750488
  PAW double counting   =     24883.64380798   -24825.67714682
  entropy T*S    EENTRO =        -0.00399804
  eigenvalues    EBANDS =     -2652.64247059
  atomic energy  EATOM  =     19177.43064738
  ---------------------------------------------------
  free energy    TOTEN  =      -240.30504971 eV

  energy without entropy =     -240.30105167  energy(sigma->0) =     -240.30305069


--------------------------------------------------------------------------------------------------------




--------------------------------------- Iteration      1(  52)  ---------------------------------------


    POTLOK:  cpu time    0.3495: real time    0.3518
    SETDIJ:  cpu time    0.7726: real time    0.7790
    TRIAL :  cpu time   30.4345: real time   30.7239
    CORREC:  cpu time   10.7897: real time   10.8906
    CHARGE:  cpu time    2.6687: real time    2.6939
    --------------------------------------------
      LOOP:  cpu time   45.0175: real time   45.4423

 eigenvalue-minimisations  :     0
 total energy-change (2. order) :-0.2408342E-08  (-0.6591173E-09)
 number of electron     162.0000001 magnetization 
 augmentation part       23.7217824 magnetization 

 Free energy of the ion-electron system (eV)
  ---------------------------------------------------
  alpha Z        PSCENC =       669.19222833
  Ewald energy   TEWEN  =    -13156.10995313
  -Hartree energ DENC   =     -5107.36529224
  -exchange      EXHF   =         0.00000000
  -V(xc)+E(xc)   XCENC  =       771.22748422
  PAW double counting   =     24883.63345291   -24825.66682381
  entropy T*S    EENTRO =        -0.00399805
  eigenvalues    EBANDS =     -2652.64279533
  atomic energy  EATOM  =     19177.43064738
  ---------------------------------------------------
  free energy    TOTEN  =      -240.30504971 eV

  energy without entropy =     -240.30105166  energy(sigma->0) =     -240.30305069


--------------------------------------------------------------------------------------------------------




--------------------------------------- Iteration      1(  53)  ---------------------------------------


    POTLOK:  cpu time    0.3084: real time    0.3105
    SETDIJ:  cpu time    0.8910: real time    0.8979
    TRIAL :  cpu time   30.1173: real time   30.4090
    CORREC:  cpu time   10.4764: real time   10.5763
    CHARGE:  cpu time    2.7363: real time    2.7624
    --------------------------------------------
      LOOP:  cpu time   44.5375: real time   44.9652

 eigenvalue-minimisations  :     0
 total energy-change (2. order) :-0.1160515E-08  ( 0.1596450E-08)
 number of electron     162.0000001 magnetization 
 augmentation part       23.7217802 magnetization 

 Free energy of the ion-electron system (eV)
  ---------------------------------------------------
  alpha Z        PSCENC =       669.19222833
  Ewald energy   TEWEN  =    -13156.10995313
  -Hartree energ DENC   =     -5107.36473102
  -exchange      EXHF   =         0.00000000
  -V(xc)+E(xc)   XCENC  =       771.22746196
  PAW double counting   =     24883.63358574   -24825.66699033
  entropy T*S    EENTRO =        -0.00399804
  eigenvalues    EBANDS =     -2652.64330059
  atomic energy  EATOM  =     19177.43064738
  ---------------------------------------------------
  free energy    TOTEN  =      -240.30504971 eV

  energy without entropy =     -240.30105167  energy(sigma->0) =     -240.30305069


--------------------------------------------------------------------------------------------------------




--------------------------------------- Iteration      1(  54)  ---------------------------------------


    POTLOK:  cpu time    0.3009: real time    0.3029
    SETDIJ:  cpu time    0.8143: real time    0.8207
