<?xml version="1.0" encoding="ISO-8859-1"?>
<modeling>
 <generator>
  <i name="program" type="string">vasp </i>
  <i name="version" type="string">6.2.0  </i>
  <i name="subversion" type="string">18Jan21 (build Jan 05 2022 15:41:44) complex                          parallel </i>
  <i name="platform" type="string">LinuxIFC </i>
  <i name="date" type="string">2025 05 07 </i>
  <i name="time" type="string">18:23:06 </i>
 </generator>
 <incar>
  <i type="string" name="SYSTEM">routine with relax: pwdword</i>
  <i type="string" name="PREC">Acc</i>
  <i type="int" name="IALGO">    38</i>
  <i type="string" name="ALGO">A</i>
  <i type="logical" name="ADDGRID"> T  </i>
  <i type="int" name="ICHARG">     2</i>
  <i type="int" name="NELM">   100</i>
  <i type="int" name="NELMIN">     6</i>
  <i name="EDIFF">      0.00000000</i>
  <i type="int" name="NSW">     0</i>
  <i type="int" name="ISIF">    -1</i>
  <i name="ENCUT">    600.00000000</i>
  <i type="logical" name="LREAL"> F  </i>
  <i type="int" name="ISMEAR">     0</i>
  <i name="SIGMA">      0.02000000</i>
  <i type="logical" name="LASPH"> T  </i>
  <i type="string" name="METAGGA">R2SCAN</i>
  <i type="logical" name="LMIXTAU"> F  </i>
 </incar>
 <primitive_cell>
  <structure name="primitive_cell" >
   <crystal>
    <varray name="basis" >
     <v>       4.93289285       0.00000000      -2.91974558 </v>
     <v>      -1.60363794       4.66495201      -2.91974558 </v>
     <v>       0.00000000       0.00000000       5.73222000 </v>
    </varray>
    <i name="volume">    131.90817514 </i>
    <varray name="rec_basis" >
     <v>       0.20272080       0.06968791       0.00000000 </v>
     <v>       0.00000000       0.21436448       0.00000000 </v>
     <v>       0.10325723       0.14468403       0.17445248 </v>
    </varray>
   </crystal>
   <varray name="positions" >
    <v>       0.00000000       0.50000000       1.00000000 </v>
    <v>       0.50000000       0.50000000       0.50000000 </v>
    <v>       0.50000000       0.00000000       1.00000000 </v>
    <v>       0.00000000       0.00000000       0.50000000 </v>
    <v>       0.73503000       0.23503000       0.97007000 </v>
    <v>       0.25000000       0.25000000       1.00000000 </v>
    <v>       0.26497000       0.76497000       0.02993000 </v>
    <v>       0.75000000       0.75000000       1.00000000 </v>
    <v>       0.23503000       0.26497000       0.50000000 </v>
    <v>       0.76497000       0.73503000       0.50000000 </v>
    <v>       0.25000000       0.75000000       0.50000000 </v>
    <v>       0.75000000       0.25000000       0.50000000 </v>
   </varray>
  </structure>
  <varray name="primitive_index" >
   <v type="int" >        1 </v>
   <v type="int" >        2 </v>
   <v type="int" >        3 </v>
   <v type="int" >        4 </v>
   <v type="int" >        5 </v>
   <v type="int" >        6 </v>
   <v type="int" >        7 </v>
   <v type="int" >        8 </v>
   <v type="int" >        9 </v>
   <v type="int" >       10 </v>
   <v type="int" >       11 </v>
   <v type="int" >       12 </v>
  </varray>
 </primitive_cell>
 <kpoints>
  <generation param="Gamma">
   <v type="int" name="divisions">       8        8        9 </v>
   <v name="usershift">      0.00000000       0.00000000       0.00000000 </v>
   <v name="genvec1">      0.12500000       0.00000000       0.00000000 </v>
   <v name="genvec2">      0.00000000       0.12500000       0.00000000 </v>
   <v name="genvec3">      0.00000000      -0.00000000       0.11111111 </v>
   <v name="shift">      0.00000000       0.00000000       0.00000000 </v>
  </generation>
  <varray name="kpointlist" >
   <v>       0.00000000       0.00000000       0.00000000 </v>
   <v>       0.12500000       0.00000000       0.00000000 </v>
   <v>       0.25000000       0.00000000       0.00000000 </v>
   <v>       0.37500000       0.00000000       0.00000000 </v>
   <v>       0.50000000       0.00000000       0.00000000 </v>
   <v>       0.12500000       0.12500000       0.00000000 </v>
   <v>       0.25000000       0.12500000       0.00000000 </v>
   <v>       0.37500000       0.12500000       0.00000000 </v>
   <v>       0.50000000       0.12500000       0.00000000 </v>
   <v>      -0.37500000       0.12500000       0.00000000 </v>
   <v>      -0.25000000       0.12500000       0.00000000 </v>
   <v>      -0.12500000       0.12500000       0.00000000 </v>
   <v>       0.25000000       0.25000000       0.00000000 </v>
   <v>       0.37500000       0.25000000       0.00000000 </v>
   <v>       0.50000000       0.25000000       0.00000000 </v>
   <v>      -0.37500000       0.25000000       0.00000000 </v>
   <v>      -0.25000000       0.25000000       0.00000000 </v>
   <v>       0.37500000       0.37500000       0.00000000 </v>
   <v>       0.50000000       0.37500000       0.00000000 </v>
   <v>      -0.37500000       0.37500000       0.00000000 </v>
   <v>       0.50000000       0.50000000       0.00000000 </v>
   <v>       0.00000000       0.00000000       0.11111111 </v>
   <v>       0.12500000      -0.00000000       0.11111111 </v>
   <v>       0.25000000       0.00000000       0.11111111 </v>
   <v>       0.37500000       0.00000000       0.11111111 </v>
   <v>       0.50000000       0.00000000       0.11111111 </v>
   <v>      -0.37500000      -0.00000000       0.11111111 </v>
   <v>      -0.25000000      -0.00000000       0.11111111 </v>
   <v>      -0.12500000       0.00000000       0.11111111 </v>
   <v>       0.12500000       0.12500000       0.11111111 </v>
   <v>       0.25000000       0.12500000       0.11111111 </v>
   <v>       0.37500000       0.12500000       0.11111111 </v>
   <v>       0.50000000       0.12500000       0.11111111 </v>
   <v>      -0.37500000       0.12500000       0.11111111 </v>
   <v>      -0.25000000       0.12500000       0.11111111 </v>
   <v>      -0.12500000       0.12500000       0.11111111 </v>
   <v>       0.25000000       0.25000000       0.11111111 </v>
   <v>       0.37500000       0.25000000       0.11111111 </v>
   <v>       0.50000000       0.25000000       0.11111111 </v>
   <v>      -0.37500000       0.25000000       0.11111111 </v>
   <v>      -0.25000000       0.25000000       0.11111111 </v>
   <v>      -0.12500000       0.25000000       0.11111111 </v>
   <v>       0.37500000       0.37500000       0.11111111 </v>
   <v>       0.50000000       0.37500000       0.11111111 </v>
   <v>      -0.37500000       0.37500000       0.11111111 </v>
   <v>      -0.25000000       0.37500000       0.11111111 </v>
   <v>      -0.12500000       0.37500000       0.11111111 </v>
   <v>       0.50000000       0.50000000       0.11111111 </v>
   <v>      -0.37500000       0.50000000       0.11111111 </v>
   <v>      -0.25000000       0.50000000       0.11111111 </v>
   <v>      -0.12500000       0.50000000       0.11111111 </v>
   <v>      -0.37500000      -0.37500000       0.11111111 </v>
   <v>      -0.25000000      -0.37500000       0.11111111 </v>
   <v>      -0.12500000      -0.37500000       0.11111111 </v>
   <v>      -0.25000000      -0.25000000       0.11111111 </v>
   <v>      -0.12500000      -0.25000000       0.11111111 </v>
   <v>      -0.12500000      -0.12500000       0.11111111 </v>
   <v>       0.00000000       0.00000000       0.22222222 </v>
   <v>       0.12500000       0.00000000       0.22222222 </v>
   <v>       0.25000000       0.00000000       0.22222222 </v>
   <v>       0.37500000       0.00000000       0.22222222 </v>
   <v>       0.50000000       0.00000000       0.22222222 </v>
   <v>      -0.37500000       0.00000000       0.22222222 </v>
   <v>      -0.25000000       0.00000000       0.22222222 </v>
   <v>      -0.12500000       0.00000000       0.22222222 </v>
   <v>       0.12500000       0.12500000       0.22222222 </v>
   <v>       0.25000000       0.12500000       0.22222222 </v>
   <v>       0.37500000       0.12500000       0.22222222 </v>
   <v>       0.50000000       0.12500000       0.22222222 </v>
   <v>      -0.37500000       0.12500000       0.22222222 </v>
   <v>      -0.25000000       0.12500000       0.22222222 </v>
   <v>      -0.12500000       0.12500000       0.22222222 </v>
   <v>       0.25000000       0.25000000       0.22222222 </v>
   <v>       0.37500000       0.25000000       0.22222222 </v>
   <v>       0.50000000       0.25000000       0.22222222 </v>
   <v>      -0.37500000       0.25000000       0.22222222 </v>
   <v>      -0.25000000       0.25000000       0.22222222 </v>
   <v>      -0.12500000       0.25000000       0.22222222 </v>
   <v>       0.37500000       0.37500000       0.22222222 </v>
   <v>       0.50000000       0.37500000       0.22222222 </v>
   <v>      -0.37500000       0.37500000       0.22222222 </v>
   <v>      -0.25000000       0.37500000       0.22222222 </v>
   <v>      -0.12500000       0.37500000       0.22222222 </v>
   <v>       0.50000000       0.50000000       0.22222222 </v>
   <v>      -0.37500000       0.50000000       0.22222222 </v>
   <v>      -0.25000000       0.50000000       0.22222222 </v>
   <v>      -0.12500000       0.50000000       0.22222222 </v>
   <v>      -0.37500000      -0.37500000       0.22222222 </v>
   <v>      -0.25000000      -0.37500000       0.22222222 </v>
   <v>      -0.12500000      -0.37500000       0.22222222 </v>
   <v>      -0.25000000      -0.25000000       0.22222222 </v>
   <v>      -0.12500000      -0.25000000       0.22222222 </v>
   <v>      -0.12500000      -0.12500000       0.22222222 </v>
   <v>       0.00000000       0.00000000       0.33333333 </v>
   <v>       0.12500000       0.00000000       0.33333333 </v>
   <v>       0.25000000       0.00000000       0.33333333 </v>
   <v>       0.37500000       0.00000000       0.33333333 </v>
   <v>       0.50000000      -0.00000000       0.33333333 </v>
   <v>      -0.37500000      -0.00000000       0.33333333 </v>
   <v>      -0.25000000      -0.00000000       0.33333333 </v>
   <v>      -0.12500000       0.00000000       0.33333333 </v>
   <v>       0.12500000       0.12500000       0.33333333 </v>
   <v>       0.25000000       0.12500000       0.33333333 </v>
   <v>       0.37500000       0.12500000       0.33333333 </v>
   <v>       0.50000000       0.12500000       0.33333333 </v>
   <v>      -0.37500000       0.12500000       0.33333333 </v>
   <v>      -0.25000000       0.12500000       0.33333333 </v>
   <v>      -0.12500000       0.12500000       0.33333333 </v>
   <v>       0.25000000       0.25000000       0.33333333 </v>
   <v>       0.37500000       0.25000000       0.33333333 </v>
   <v>       0.50000000       0.25000000       0.33333333 </v>
   <v>      -0.37500000       0.25000000       0.33333333 </v>
   <v>      -0.25000000       0.25000000       0.33333333 </v>
   <v>      -0.12500000       0.25000000       0.33333333 </v>
   <v>       0.37500000       0.37500000       0.33333333 </v>
   <v>       0.50000000       0.37500000       0.33333333 </v>
   <v>      -0.37500000       0.37500000       0.33333333 </v>
   <v>      -0.25000000       0.37500000       0.33333333 </v>
   <v>      -0.12500000       0.37500000       0.33333333 </v>
   <v>       0.50000000       0.50000000       0.33333333 </v>
   <v>      -0.37500000       0.50000000       0.33333333 </v>
   <v>      -0.25000000       0.50000000       0.33333333 </v>
   <v>      -0.12500000       0.50000000       0.33333333 </v>
   <v>      -0.37500000      -0.37500000       0.33333333 </v>
   <v>      -0.25000000      -0.37500000       0.33333333 </v>
   <v>      -0.12500000      -0.37500000       0.33333333 </v>
   <v>      -0.25000000      -0.25000000       0.33333333 </v>
   <v>      -0.12500000      -0.25000000       0.33333333 </v>
   <v>      -0.12500000      -0.12500000       0.33333333 </v>
   <v>       0.00000000       0.00000000       0.44444444 </v>
   <v>       0.12500000       0.00000000       0.44444444 </v>
   <v>       0.25000000       0.00000000       0.44444444 </v>
   <v>       0.37500000       0.00000000       0.44444444 </v>
   <v>       0.50000000       0.00000000       0.44444444 </v>
   <v>      -0.37500000       0.00000000       0.44444444 </v>
   <v>      -0.25000000       0.00000000       0.44444444 </v>
   <v>      -0.12500000       0.00000000       0.44444444 </v>
   <v>       0.12500000       0.12500000       0.44444444 </v>
   <v>       0.25000000       0.12500000       0.44444444 </v>
   <v>       0.37500000       0.12500000       0.44444444 </v>
   <v>       0.50000000       0.12500000       0.44444444 </v>
   <v>      -0.37500000       0.12500000       0.44444444 </v>
   <v>      -0.25000000       0.12500000       0.44444444 </v>
   <v>      -0.12500000       0.12500000       0.44444444 </v>
   <v>       0.25000000       0.25000000       0.44444444 </v>
   <v>       0.37500000       0.25000000       0.44444444 </v>
   <v>       0.50000000       0.25000000       0.44444444 </v>
   <v>      -0.37500000       0.25000000       0.44444444 </v>
   <v>      -0.25000000       0.25000000       0.44444444 </v>
   <v>      -0.12500000       0.25000000       0.44444444 </v>
   <v>       0.37500000       0.37500000       0.44444444 </v>
   <v>       0.50000000       0.37500000       0.44444444 </v>
   <v>      -0.37500000       0.37500000       0.44444444 </v>
   <v>      -0.25000000       0.37500000       0.44444444 </v>
   <v>      -0.12500000       0.37500000       0.44444444 </v>
   <v>       0.50000000       0.50000000       0.44444444 </v>
   <v>      -0.37500000       0.50000000       0.44444444 </v>
   <v>      -0.25000000       0.50000000       0.44444444 </v>
   <v>      -0.12500000       0.50000000       0.44444444 </v>
   <v>      -0.37500000      -0.37500000       0.44444444 </v>
   <v>      -0.25000000      -0.37500000       0.44444444 </v>
   <v>      -0.12500000      -0.37500000       0.44444444 </v>
   <v>      -0.25000000      -0.25000000       0.44444444 </v>
   <v>      -0.12500000      -0.25000000       0.44444444 </v>
   <v>      -0.12500000      -0.12500000       0.44444444 </v>
  </varray>
  <varray name="weights" >
   <v>       0.00173611 </v>
   <v>       0.00694444 </v>
   <v>       0.00694444 </v>
   <v>       0.00694444 </v>
   <v>       0.00347222 </v>
   <v>       0.00347222 </v>
   <v>       0.00694444 </v>
   <v>       0.00694444 </v>
   <v>       0.00694444 </v>
   <v>       0.00694444 </v>
   <v>       0.00694444 </v>
   <v>       0.00347222 </v>
   <v>       0.00347222 </v>
   <v>       0.00694444 </v>
   <v>       0.00694444 </v>
   <v>       0.00694444 </v>
   <v>       0.00347222 </v>
   <v>       0.00347222 </v>
   <v>       0.00694444 </v>
   <v>       0.00347222 </v>
   <v>       0.00173611 </v>
   <v>       0.00347222 </v>
   <v>       0.00694444 </v>
   <v>       0.00694444 </v>
   <v>       0.00694444 </v>
   <v>       0.00694444 </v>
   <v>       0.00694444 </v>
   <v>       0.00694444 </v>
   <v>       0.00694444 </v>
   <v>       0.00347222 </v>
   <v>       0.00694444 </v>
   <v>       0.00694444 </v>
   <v>       0.00694444 </v>
   <v>       0.00694444 </v>
   <v>       0.00694444 </v>
   <v>       0.00694444 </v>
   <v>       0.00347222 </v>
   <v>       0.00694444 </v>
   <v>       0.00694444 </v>
   <v>       0.00694444 </v>
   <v>       0.00694444 </v>
   <v>       0.00694444 </v>
   <v>       0.00347222 </v>
   <v>       0.00694444 </v>
   <v>       0.00694444 </v>
   <v>       0.00694444 </v>
   <v>       0.00694444 </v>
   <v>       0.00347222 </v>
   <v>       0.00694444 </v>
   <v>       0.00694444 </v>
   <v>       0.00694444 </v>
   <v>       0.00347222 </v>
   <v>       0.00694444 </v>
   <v>       0.00694444 </v>
   <v>       0.00347222 </v>
   <v>       0.00694444 </v>
   <v>       0.00347222 </v>
   <v>       0.00347222 </v>
   <v>       0.00694444 </v>
   <v>       0.00694444 </v>
   <v>       0.00694444 </v>
   <v>       0.00694444 </v>
   <v>       0.00694444 </v>
   <v>       0.00694444 </v>
   <v>       0.00694444 </v>
   <v>       0.00347222 </v>
   <v>       0.00694444 </v>
   <v>       0.00694444 </v>
   <v>       0.00694444 </v>
   <v>       0.00694444 </v>
   <v>       0.00694444 </v>
   <v>       0.00694444 </v>
   <v>       0.00347222 </v>
   <v>       0.00694444 </v>
   <v>       0.00694444 </v>
   <v>       0.00694444 </v>
   <v>       0.00694444 </v>
   <v>       0.00694444 </v>
   <v>       0.00347222 </v>
   <v>       0.00694444 </v>
   <v>       0.00694444 </v>
   <v>       0.00694444 </v>
   <v>       0.00694444 </v>
   <v>       0.00347222 </v>
   <v>       0.00694444 </v>
   <v>       0.00694444 </v>
   <v>       0.00694444 </v>
   <v>       0.00347222 </v>
   <v>       0.00694444 </v>
   <v>       0.00694444 </v>
   <v>       0.00347222 </v>
   <v>       0.00694444 </v>
   <v>       0.00347222 </v>
   <v>       0.00347222 </v>
   <v>       0.00694444 </v>
   <v>       0.00694444 </v>
   <v>       0.00694444 </v>
   <v>       0.00694444 </v>
   <v>       0.00694444 </v>
   <v>       0.00694444 </v>
   <v>       0.00694444 </v>
   <v>       0.00347222 </v>
   <v>       0.00694444 </v>
   <v>       0.00694444 </v>
   <v>       0.00694444 </v>
   <v>       0.00694444 </v>
   <v>       0.00694444 </v>
   <v>       0.00694444 </v>
   <v>       0.00347222 </v>
   <v>       0.00694444 </v>
   <v>       0.00694444 </v>
   <v>       0.00694444 </v>
   <v>       0.00694444 </v>
   <v>       0.00694444 </v>
   <v>       0.00347222 </v>
   <v>       0.00694444 </v>
   <v>       0.00694444 </v>
   <v>       0.00694444 </v>
   <v>       0.00694444 </v>
   <v>       0.00347222 </v>
   <v>       0.00694444 </v>
   <v>       0.00694444 </v>
   <v>       0.00694444 </v>
   <v>       0.00347222 </v>
   <v>       0.00694444 </v>
   <v>       0.00694444 </v>
   <v>       0.00347222 </v>
   <v>       0.00694444 </v>
   <v>       0.00347222 </v>
   <v>       0.00347222 </v>
   <v>       0.00694444 </v>
   <v>       0.00694444 </v>
   <v>       0.00694444 </v>
   <v>       0.00694444 </v>
   <v>       0.00694444 </v>
   <v>       0.00694444 </v>
   <v>       0.00694444 </v>
   <v>       0.00347222 </v>
   <v>       0.00694444 </v>
   <v>       0.00694444 </v>
   <v>       0.00694444 </v>
   <v>       0.00694444 </v>
   <v>       0.00694444 </v>
   <v>       0.00694444 </v>
   <v>       0.00347222 </v>
   <v>       0.00694444 </v>
   <v>       0.00694444 </v>
   <v>       0.00694444 </v>
   <v>       0.00694444 </v>
   <v>       0.00694444 </v>
   <v>       0.00347222 </v>
   <v>       0.00694444 </v>
   <v>       0.00694444 </v>
   <v>       0.00694444 </v>
   <v>       0.00694444 </v>
   <v>       0.00347222 </v>
   <v>       0.00694444 </v>
   <v>       0.00694444 </v>
   <v>       0.00694444 </v>
   <v>       0.00347222 </v>
   <v>       0.00694444 </v>
   <v>       0.00694444 </v>
   <v>       0.00347222 </v>
   <v>       0.00694444 </v>
   <v>       0.00347222 </v>
  </varray>
 </kpoints>
 <parameters>
  <separator name="general" >
   <i type="string" name="SYSTEM">routine with relax: pwdword</i>
   <i type="logical" name="LCOMPAT"> F  </i>
  </separator>
  <separator name="electronic" >
   <i type="string" name="PREC">acc</i>
   <i name="ENMAX">    600.00000000</i>
   <i name="ENAUG">    535.51400000</i>
   <i name="EDIFF">      0.00000000</i>
   <i type="int" name="IALGO">    58</i>
   <i type="int" name="IWAVPR">    10</i>
   <i type="int" name="NBANDS">    66</i>
   <i type="int" name="NBANDSLOW">    -1</i>
   <i type="int" name="NBANDSHIGH">    -1</i>
   <i name="NELECT">    104.00000000</i>
   <i type="int" name="TURBO">     0</i>
   <i type="int" name="IRESTART">     0</i>
   <i type="int" name="NREBOOT">     0</i>
   <i type="int" name="NMIN">     0</i>
   <i name="EREF">      0.00000000</i>
   <separator name="electronic smearing" >
    <i type="int" name="ISMEAR">     0</i>
    <i name="SIGMA">      0.02000000</i>
    <i name="KSPACING">      0.50000000</i>
    <i type="logical" name="KGAMMA"> T  </i>
    <i type="logical" name="KBLOWUP"> T  </i>
   </separator>
   <separator name="electronic projectors" >
    <i type="logical" name="LREAL"> F  </i>
    <v name="ROPT">      0.00000000      0.00000000      0.00000000</v>
    <i type="int" name="LMAXPAW">  -100</i>
    <i type="int" name="LMAXMIX">     2</i>
    <i type="logical" name="NLSPLINE"> F  </i>
   </separator>
   <separator name="electronic startup" >
    <i type="int" name="ISTART">     0</i>
    <i type="int" name="ICHARG">     2</i>
    <i type="int" name="INIWAV">     1</i>
   </separator>
   <separator name="electronic spin" >
    <i type="int" name="ISPIN">     1</i>
    <i type="logical" name="LNONCOLLINEAR"> F  </i>
    <v name="MAGMOM">      1.00000000      1.00000000      1.00000000      1.00000000      1.00000000      1.00000000      1.00000000      1.00000000      1.00000000      1.00000000      1.00000000      1.00000000</v>
    <i name="NUPDOWN">     -1.00000000</i>
    <i type="logical" name="LSORBIT"> F  </i>
    <v name="SAXIS">      0.00000000      0.00000000      1.00000000</v>
    <i type="logical" name="LSPIRAL"> F  </i>
    <v name="QSPIRAL">      0.00000000      0.00000000      0.00000000</v>
    <i type="logical" name="LZEROZ"> F  </i>
   </separator>
   <separator name="electronic exchange-correlation" >
    <i type="logical" name="LASPH"> T  </i>
    <i type="logical" name="LMETAGGA"> F  </i>
   </separator>
   <separator name="electronic convergence" >
    <i type="int" name="NELM">   100</i>
    <i type="int" name="NELMDL">    -5</i>
    <i type="int" name="NELMIN">     6</i>
    <i name="ENINI">    600.00000000</i>
    <separator name="electronic convergence detail" >
     <i type="logical" name="LDIAG"> T  </i>
     <i type="logical" name="LSUBROT"> F  </i>
     <i name="WEIMIN">      0.00000000</i>
     <i name="EBREAK">      0.00000000</i>
     <i name="DEPER">      0.30000000</i>
     <i type="int" name="NRMM">     4</i>
     <i name="TIME">      0.40000000</i>
    </separator>
   </separator>
   <separator name="electronic mixer" >
    <i name="AMIX">      0.40000000</i>
    <i name="BMIX">      1.00000000</i>
    <i name="AMIN">      0.10000000</i>
    <i name="AMIX_MAG">      1.60000000</i>
    <i name="BMIX_MAG">      1.00000000</i>
    <separator name="electronic mixer details" >
     <i type="int" name="IMIX">     4</i>
     <i type="logical" name="MIXFIRST"> F  </i>
     <i type="int" name="MAXMIX">   -45</i>
     <i name="WC">    100.00000000</i>
     <i type="int" name="INIMIX">     1</i>
     <i type="int" name="MIXPRE">     1</i>
     <i type="int" name="MREMOVE">     5</i>
    </separator>
   </separator>
   <separator name="electronic dipolcorrection" >
    <i type="logical" name="LDIPOL"> F  </i>
    <i type="logical" name="LMONO"> F  </i>
    <i type="int" name="IDIPOL">     0</i>
    <i name="EPSILON">      1.00000000</i>
    <v name="DIPOL">   -100.00000000   -100.00000000   -100.00000000</v>
    <i name="EFIELD">      0.00000000</i>
   </separator>
  </separator>
  <separator name="grids" >
   <i type="int" name="NGX">    48</i>
   <i type="int" name="NGY">    48</i>
   <i type="int" name="NGZ">    48</i>
   <i type="int" name="NGXF">    96</i>
   <i type="int" name="NGYF">    96</i>
   <i type="int" name="NGZF">    96</i>
   <i type="logical" name="ADDGRID"> T  </i>
  </separator>
  <separator name="ionic" >
   <i type="int" name="NSW">     0</i>
   <i type="int" name="IBRION">    -1</i>
   <i type="int" name="MDALGO">     0</i>
   <i type="int" name="ISIF">    -1</i>
   <i name="PSTRESS">      0.00000000</i>
   <i name="EDIFFG">      0.00000001</i>
   <i type="int" name="NFREE">     0</i>
   <i name="POTIM">      0.50000000</i>
   <i name="SMASS">     -3.00000000</i>
   <i name="SCALEE">      1.00000000</i>
  </separator>
  <separator name="ionic md" >
   <i name="TEBEG">      0.00010000</i>
   <i name="TEEND">      0.00010000</i>
   <i type="int" name="NBLOCK">     1</i>
   <i type="int" name="KBLOCK">     1</i>
   <i type="int" name="NPACO">   256</i>
   <i name="APACO">     16.00000000</i>
  </separator>
  <separator name="symmetry" >
   <i type="int" name="ISYM">     2</i>
   <i name="SYMPREC">      0.00001000</i>
  </separator>
  <separator name="dos" >
   <i type="int" name="LORBIT">     0</i>
   <v name="RWIGS">     -1.00000000     -1.00000000     -1.00000000</v>
   <i type="int" name="NEDOS">   301</i>
   <i name="EMIN">     10.00000000</i>
   <i name="EMAX">    -10.00000000</i>
   <i name="EFERMI">      0.00000000</i>
  </separator>
  <separator name="writing" >
   <i type="int" name="NWRITE">     2</i>
   <i type="logical" name="LWAVE"> T  </i>
   <i type="logical" name="LDOWNSAMPLE"> F  </i>
   <i type="logical" name="LCHARG"> T  </i>
   <i type="logical" name="LPARD"> F  </i>
   <i type="logical" name="LVTOT"> F  </i>
   <i type="logical" name="LVHAR"> F  </i>
   <i type="logical" name="LELF"> F  </i>
   <i type="logical" name="LOPTICS"> F  </i>
   <v name="STM">      0.00000000      0.00000000      0.00000000      0.00000000      0.00000000      0.00000000      0.00000000</v>
  </separator>
  <separator name="performance" >
   <i type="int" name="NPAR">     6</i>
   <i type="int" name="NSIM">     4</i>
   <i type="int" name="NBLK">    -1</i>
   <i type="logical" name="LPLANE"> T  </i>
   <i type="logical" name="LSCALAPACK"> T  </i>
   <i type="logical" name="LSCAAWARE"> F  </i>
   <i type="logical" name="LSCALU"> F  </i>
   <i type="logical" name="LASYNC"> F  </i>
   <i type="logical" name="LORBITALREAL"> F  </i>
  </separator>
  <separator name="miscellaneous" >
   <i type="int" name="IDIOT">     3</i>
   <i type="int" name="PHON_NSTRUCT">    -1</i>
   <i type="logical" name="LMUSIC"> F  </i>
   <v name="POMASS">     10.81100000     95.94000000     28.08500000</v>
   <v name="DARWINR">      0.00000000      0.00000000      0.00000000</v>
   <v name="DARWINV">      1.00000000      1.00000000      1.00000000</v>
   <i type="logical" name="LCORR"> T  </i>
  </separator>
  <i type="logical" name="GGA_COMPAT"> T  </i>
  <i type="logical" name="LBERRY"> F  </i>
  <i type="int" name="ICORELEVEL">     0</i>
  <i type="logical" name="LDAU"> F  </i>
  <i type="int" name="I_CONSTRAINED_M">     0</i>
  <separator name="electronic exchange-correlation" >
   <i type="string" name="GGA">--</i>
   <i type="int" name="VOSKOWN">     0</i>
   <i type="logical" name="LHFCALC"> F  </i>
   <i type="string" name="PRECFOCK"></i>
   <i type="logical" name="LSYMGRAD"> F  </i>
   <i type="logical" name="LHFONE"> F  </i>
   <i type="logical" name="LRHFCALC"> F  </i>
   <i type="logical" name="LTHOMAS"> F  </i>
   <i type="logical" name="LMODELHF"> F  </i>
   <i type="logical" name="LFOCKACE"> F  </i>
   <i name="ENCUT4O">     -1.00000000</i>
   <i type="int" name="EXXOEP">     0</i>
   <i type="int" name="FOURORBIT">     0</i>
   <i name="AEXX">      0.00000000</i>
   <i name="HFALPHA">      0.00000000</i>
   <i name="MCALPHA">      0.00000000</i>
   <i name="ALDAX">      1.00000000</i>
   <i name="AGGAX">      1.00000000</i>
   <i name="ALDAC">      1.00000000</i>
   <i name="AGGAC">      1.00000000</i>
   <i type="int" name="NKREDX">     1</i>
   <i type="int" name="NKREDY">     1</i>
   <i type="int" name="NKREDZ">     1</i>
   <i type="logical" name="SHIFTRED"> F  </i>
   <i type="logical" name="ODDONLY"> F  </i>
   <i type="logical" name="EVENONLY"> F  </i>
   <i type="int" name="LMAXFOCK">     0</i>
   <i type="int" name="NMAXFOCKAE">     0</i>
   <i type="logical" name="LFOCKAEDFT"> F  </i>
   <i name="HFSCREEN">      0.00000000</i>
   <i name="HFSCREENC">      0.00000000</i>
   <i type="int" name="NBANDSGWLOW">     0</i>
  </separator>
  <separator name="vdW DFT" >
   <i type="logical" name="LUSE_VDW"> F  </i>
   <i name="Zab_VDW">     -0.84910000</i>
   <i name="PARAM1">      0.12340000</i>
   <i name="PARAM2">      1.00000000</i>
   <i name="PARAM3">      0.00000000</i>
  </separator>
  <separator name="model GW" >
   <i type="int" name="MODEL_GW">     0</i>
   <i name="MODEL_EPS0">      6.59540876</i>
   <i name="MODEL_ALPHA">      1.00000000</i>
  </separator>
  <separator name="linear response parameters" >
   <i type="logical" name="LEPSILON"> F  </i>
   <i type="logical" name="LRPA"> F  </i>
   <i type="logical" name="LNABLA"> F  </i>
   <i type="logical" name="LVEL"> F  </i>
   <i type="int" name="KINTER">     0</i>
   <i name="CSHIFT">      0.10000000</i>
   <i name="OMEGAMAX">     -1.00000000</i>
   <i name="DEG_THRESHOLD">      0.00200000</i>
   <i name="RTIME">     -0.10000000</i>
   <i name="WPLASMAI">      0.00000000</i>
   <v name="DFIELD">      0.00000000      0.00000000      0.00000000</v>
   <v name="WPLASMA">      0.00000000      0.00000000      0.00000000      0.00000000      0.00000000      0.00000000      0.00000000      0.00000000      0.00000000</v>
  </separator>
  <separator name="orbital magnetization" >
   <i type="logical" name="NUCIND"> F  </i>
   <v name="MAGPOS">      0.00000000      0.00000000      0.00000000</v>
   <i type="logical" name="LNICSALL"> T  </i>
   <i type="logical" name="ORBITALMAG"> F  </i>
   <i type="logical" name="LMAGBLOCH"> F  </i>
   <i type="logical" name="LCHIMAG"> F  </i>
   <i type="logical" name="LGAUGE"> T  </i>
   <i type="int" name="MAGATOM">     0</i>
   <v name="MAGDIPOL">      0.00000000      0.00000000      0.00000000</v>
   <v name="AVECCONST">      0.00000000      0.00000000      0.00000000</v>
  </separator>
  <separator name="response functions" >
   <i type="logical" name="LFINITE_TEMPERATURE"> F  </i>
   <i type="logical" name="LADDER"> F  </i>
   <i type="logical" name="LRPAFORCE"> F  </i>
   <i type="logical" name="LFXC"> F  </i>
   <i type="logical" name="LHARTREE"> T  </i>
   <i type="int" name="IBSE">     0</i>
   <v type="int" name="KPOINT">    -1     0     0     0</v>
   <i type="logical" name="LTCTC"> F  </i>
   <i type="logical" name="LTCTE"> F  </i>
   <i type="logical" name="LTETE"> F  </i>
   <i type="logical" name="LTRIPLET"> F  </i>
   <i type="logical" name="LFXCEPS"> F  </i>
   <i type="logical" name="LFXHEG"> F  </i>
   <i type="int" name="NATURALO">     2</i>
   <i type="logical" name="LHOLEGF"> F  </i>
   <i type="logical" name="L2ORDER"> F  </i>
   <i type="logical" name="LDMP1"> F  </i>
   <i type="logical" name="LMP2LT"> F  </i>
   <i type="logical" name="LSMP2LT"> F  </i>
   <i type="logical" name="LGWLF"> F  </i>
   <i name="ENCUTGW">     -2.00000000</i>
   <i name="ENCUTGWSOFT">     -2.00000000</i>
   <i name="ENCUTLF">     -1.00000000</i>
   <i type="logical" name="LESF_SPLINES"> F  </i>
   <i type="int" name="LMAXMP2">    -1</i>
   <i name="SCISSOR">      0.00000000</i>
   <i type="int" name="NOMEGA">     0</i>
   <i type="int" name="NOMEGAR">     0</i>
   <i type="int" name="NBANDSGW">    -1</i>
   <i type="int" name="NBANDSO">    -1</i>
   <i type="int" name="NBANDSV">    -1</i>
   <i type="int" name="NELM">   100</i>
   <i type="int" name="NELMHF">     1</i>
   <i type="int" name="DIM">     3</i>
   <i type="int" name="IESPILON">     4</i>
   <i type="int" name="ANTIRES">     0</i>
   <i name="OMEGAMAX">    -30.00000000</i>
   <i name="OMEGAMIN">    -30.00000000</i>
   <i name="OMEGATL">   -200.00000000</i>
   <i type="int" name="OMEGAGRID">     0</i>
   <i name="CSHIFT">     -0.10000000</i>
   <i type="logical" name="LSELFENERGY"> F  </i>
   <i type="logical" name="LSPECTRAL"> F  </i>
   <i type="logical" name="LSPECTRALGW"> F  </i>
   <i type="logical" name="LSINGLES"> F  </i>
   <i type="logical" name="LFERMIGW"> F  </i>
   <i type="logical" name="ODDONLYGW"> F  </i>
   <i type="logical" name="EVENONLYGW"> F  </i>
   <i type="int" name="NKREDLFX">     1</i>
   <i type="int" name="NKREDLFY">     1</i>
   <i type="int" name="NKREDLFZ">     1</i>
   <i type="int" name="MAXMEM">  2800</i>
   <i type="int" name="TELESCOPE">     0</i>
   <i type="int" name="NTAUPAR">    -1</i>
   <i type="int" name="NOMEGAPAR">    -1</i>
   <i name="DAMP_NEWTON">      0.80000001</i>
   <i name="LAMBDA">      1.00000000</i>
  </separator>
  <separator name="External order field" >
   <i name="OFIELD_KAPPA">      0.00000000</i>
   <v name="OFIELD_K">      0.00000000      0.00000000      0.00000000</v>
   <i name="OFIELD_Q6_NEAR">      0.00000000</i>
   <i name="OFIELD_Q6_FAR">      0.00000000</i>
   <i name="OFIELD_A">      0.00000000</i>
  </separator>
 </parameters>
 <atominfo>
  <atoms>      12 </atoms>
  <types>       3 </types>
  <array name="atoms" >
   <dimension dim="1">ion</dimension>
   <field type="string">element</field>
   <field type="int">atomtype</field>
   <set>
    <rc><c>B </c><c>   1</c></rc>
    <rc><c>B </c><c>   1</c></rc>
    <rc><c>B </c><c>   1</c></rc>
    <rc><c>B </c><c>   1</c></rc>
    <rc><c>Mo</c><c>   2</c></rc>
    <rc><c>Mo</c><c>   2</c></rc>
    <rc><c>Mo</c><c>   2</c></rc>
    <rc><c>Mo</c><c>   2</c></rc>
    <rc><c>Mo</c><c>   2</c></rc>
    <rc><c>Mo</c><c>   2</c></rc>
    <rc><c>Si</c><c>   3</c></rc>
    <rc><c>Si</c><c>   3</c></rc>
   </set>
  </array>
  <array name="atomtypes" >
   <dimension dim="1">type</dimension>
   <field type="int">atomspertype</field>
   <field type="string">element</field>
   <field>mass</field>
   <field>valence</field>
   <field type="string">pseudopotential</field>
   <set>
    <rc><c>   4</c><c>B </c><c>     10.81100000</c><c>      3.00000000</c><c>  PAW_PBE B 06Sep2000                   </c></rc>
    <rc><c>   6</c><c>Mo</c><c>     95.94000000</c><c>     14.00000000</c><c>  PAW_PBE Mo_sv 02Feb2006               </c></rc>
    <rc><c>   2</c><c>Si</c><c>     28.08500000</c><c>      4.00000000</c><c>  PAW_PBE Si 05Jan2001                  </c></rc>
   </set>
  </array>
 </atominfo>
 <structure name="initialpos" >
  <crystal>
   <varray name="basis" >
    <v>       4.93289285       0.00000000      -2.91974558 </v>
    <v>      -1.60363794       4.66495201      -2.91974558 </v>
    <v>       0.00000000       0.00000000       5.73222000 </v>
   </varray>
   <i name="volume">    131.90817514 </i>
   <varray name="rec_basis" >
    <v>       0.20272080       0.06968791       0.00000000 </v>
    <v>       0.00000000       0.21436448       0.00000000 </v>
    <v>       0.10325723       0.14468403       0.17445248 </v>
   </varray>
  </crystal>
  <varray name="positions" >
   <v>       0.00000000       0.50000000       0.00000000 </v>
   <v>       0.50000000       0.50000000       0.50000000 </v>
   <v>       0.50000000       0.00000000       0.00000000 </v>
   <v>       0.00000000       0.00000000       0.50000000 </v>
   <v>       0.73503000       0.23503000       0.97007000 </v>
   <v>       0.25000000       0.25000000       0.00000000 </v>
   <v>       0.26497000       0.76497000       0.02993000 </v>
   <v>       0.75000000       0.75000000       0.00000000 </v>
   <v>       0.23503000       0.26497000       0.50000000 </v>
   <v>       0.76497000       0.73503000       0.50000000 </v>
   <v>       0.25000000       0.75000000       0.50000000 </v>
   <v>       0.75000000       0.25000000       0.50000000 </v>
  </varray>
 </structure>
 <calculation>
  <scstep>
   <time name="total">   25.13   25.38</time>
   <energy>
    <i name="alphaZ">    708.28972511 </i>
    <i name="ewald"> -10090.52295325 </i>
    <i name="hartreedc">  -2154.50810692 </i>
    <i name="XCdc">    492.91562551 </i>
    <i name="pawpsdc">   9250.47132855 </i>
    <i name="pawaedc">  -9210.50234729 </i>
    <i name="eentropy">     -0.00069470 </i>
    <i name="bandstr">    467.00967569 </i>
    <i name="atom">  11664.50664672 </i>
    <i name="e_fr_energy">   1127.65889941 </i>
    <i name="e_wo_entrp">   1127.65959411 </i>
    <i name="e_0_energy">   1127.65924676 </i>
   </energy>
  </scstep>
  <scstep>
   <time name="total">   25.54   25.77</time>
   <energy>
    <i name="e_fr_energy">   -190.24135981 </i>
    <i name="e_wo_entrp">   -190.24032815 </i>
    <i name="e_0_energy">   -190.24084398 </i>
   </energy>
  </scstep>
  <scstep>
   <time name="total">   28.33   28.57</time>
   <energy>
    <i name="e_fr_energy">   -245.29672207 </i>
    <i name="e_wo_entrp">   -245.29566375 </i>
    <i name="e_0_energy">   -245.29619291 </i>
   </energy>
  </scstep>
  <scstep>
   <time name="total">   26.98   27.23</time>
   <energy>
    <i name="e_fr_energy">   -246.39119896 </i>
    <i name="e_wo_entrp">   -246.39003670 </i>
    <i name="e_0_energy">   -246.39061783 </i>
   </energy>
  </scstep>
  <scstep>
   <time name="total">   28.85   29.11</time>
   <energy>
    <i name="e_fr_energy">   -246.40572567 </i>
    <i name="e_wo_entrp">   -246.40456187 </i>
    <i name="e_0_energy">   -246.40514377 </i>
   </energy>
  </scstep>
  <scstep>
   <time name="total">   28.36   28.59</time>
   <energy>
    <i name="e_fr_energy">   -152.38454979 </i>
    <i name="e_wo_entrp">   -152.38354261 </i>
    <i name="e_0_energy">   -152.38404620 </i>
   </energy>
  </scstep>
  <scstep>
   <time name="total">   28.54   28.77</time>
   <energy>
    <i name="e_fr_energy">   -187.62469512 </i>
    <i name="e_wo_entrp">   -187.62389632 </i>
    <i name="e_0_energy">   -187.62429572 </i>
   </energy>
  </scstep>
  <scstep>
   <time name="total">   28.62   28.84</time>
   <energy>
    <i name="e_fr_energy">   -192.82414849 </i>
    <i name="e_wo_entrp">   -192.82354206 </i>
    <i name="e_0_energy">   -192.82384528 </i>
   </energy>
  </scstep>
  <scstep>
   <time name="total">   28.46   28.68</time>
   <energy>
    <i name="e_fr_energy">   -194.10101703 </i>
    <i name="e_wo_entrp">   -194.10035357 </i>
    <i name="e_0_energy">   -194.10068530 </i>
   </energy>
  </scstep>
  <scstep>
   <time name="total">   28.70   28.92</time>
   <energy>
    <i name="e_fr_energy">   -194.45351761 </i>
    <i name="e_wo_entrp">   -194.45265101 </i>
    <i name="e_0_energy">   -194.45308431 </i>
   </energy>
  </scstep>
  <scstep>
   <time name="total">   28.57   28.79</time>
   <energy>
    <i name="e_fr_energy">   -194.55156213 </i>
    <i name="e_wo_entrp">   -194.55071308 </i>
    <i name="e_0_energy">   -194.55113760 </i>
   </energy>
  </scstep>
  <scstep>
   <time name="total">   28.43   28.65</time>
   <energy>
    <i name="e_fr_energy">   -194.59368259 </i>
    <i name="e_wo_entrp">   -194.59278899 </i>
    <i name="e_0_energy">   -194.59323579 </i>
   </energy>
  </scstep>
  <scstep>
   <time name="total">   28.67   28.89</time>
   <energy>
    <i name="e_fr_energy">   -194.60734580 </i>
    <i name="e_wo_entrp">   -194.60640444 </i>
    <i name="e_0_energy">   -194.60687512 </i>
   </energy>
  </scstep>
  <scstep>
   <time name="total">   28.39   28.61</time>
   <energy>
    <i name="e_fr_energy">   -194.61362890 </i>
    <i name="e_wo_entrp">   -194.61264159 </i>
    <i name="e_0_energy">   -194.61313525 </i>
   </energy>
  </scstep>
  <scstep>
   <time name="total">   28.40   28.62</time>
   <energy>
    <i name="e_fr_energy">   -194.61573142 </i>
    <i name="e_wo_entrp">   -194.61473266 </i>
    <i name="e_0_energy">   -194.61523204 </i>
   </energy>
  </scstep>
  <scstep>
   <time name="total">   28.39   28.61</time>
   <energy>
    <i name="e_fr_energy">   -194.61641567 </i>
    <i name="e_wo_entrp">   -194.61540811 </i>
    <i name="e_0_energy">   -194.61591189 </i>
   </energy>
  </scstep>
  <scstep>
   <time name="total">   28.52   28.74</time>
   <energy>
    <i name="e_fr_energy">   -194.61670060 </i>
    <i name="e_wo_entrp">   -194.61569066 </i>
    <i name="e_0_energy">   -194.61619563 </i>
   </energy>
  </scstep>
  <scstep>
   <time name="total">   28.64   28.87</time>
   <energy>
    <i name="e_fr_energy">   -194.61684315 </i>
    <i name="e_wo_entrp">   -194.61583509 </i>
    <i name="e_0_energy">   -194.61633912 </i>
   </energy>
  </scstep>
  <scstep>
   <time name="total">   28.83   29.05</time>
   <energy>
    <i name="e_fr_energy">   -194.61688977 </i>
    <i name="e_wo_entrp">   -194.61588112 </i>
    <i name="e_0_energy">   -194.61638544 </i>
   </energy>
  </scstep>
  <scstep>
   <time name="total">   28.64   28.87</time>
   <energy>
    <i name="e_fr_energy">   -194.61690936 </i>
    <i name="e_wo_entrp">   -194.61590214 </i>
    <i name="e_0_energy">   -194.61640575 </i>
   </energy>
  </scstep>
  <scstep>
   <time name="total">   28.45   28.67</time>
   <energy>
    <i name="e_fr_energy">   -194.61691845 </i>
    <i name="e_wo_entrp">   -194.61591256 </i>
    <i name="e_0_energy">   -194.61641550 </i>
   </energy>
  </scstep>
  <scstep>
   <time name="total">   28.49   28.71</time>
   <energy>
    <i name="e_fr_energy">   -194.61692183 </i>
    <i name="e_wo_entrp">   -194.61591613 </i>
    <i name="e_0_energy">   -194.61641898 </i>
   </energy>
  </scstep>
  <scstep>
   <time name="total">   28.59   28.81</time>
   <energy>
    <i name="e_fr_energy">   -194.61692273 </i>
    <i name="e_wo_entrp">   -194.61591710 </i>
    <i name="e_0_energy">   -194.61641991 </i>
   </energy>
  </scstep>
  <scstep>
   <time name="total">   28.66   28.88</time>
   <energy>
    <i name="e_fr_energy">   -194.61692324 </i>
    <i name="e_wo_entrp">   -194.61591777 </i>
    <i name="e_0_energy">   -194.61642051 </i>
   </energy>
  </scstep>
  <scstep>
   <time name="total">   28.44   28.67</time>
   <energy>
    <i name="e_fr_energy">   -194.61692355 </i>
    <i name="e_wo_entrp">   -194.61591819 </i>
    <i name="e_0_energy">   -194.61642087 </i>
   </energy>
  </scstep>
  <scstep>
   <time name="total">   28.77   29.00</time>
   <energy>
    <i name="e_fr_energy">   -194.61692371 </i>
    <i name="e_wo_entrp">   -194.61591831 </i>
    <i name="e_0_energy">   -194.61642101 </i>
   </energy>
  </scstep>
  <scstep>
   <time name="total">   28.46   28.69</time>
   <energy>
    <i name="e_fr_energy">   -194.61692377 </i>
    <i name="e_wo_entrp">   -194.61591832 </i>
    <i name="e_0_energy">   -194.61642105 </i>
   </energy>
  </scstep>
  <scstep>
   <time name="total">   29.18   29.41</time>
   <energy>
    <i name="e_fr_energy">   -194.61692379 </i>
    <i name="e_wo_entrp">   -194.61591832 </i>
    <i name="e_0_energy">   -194.61642105 </i>
   </energy>
  </scstep>
  <scstep>
   <time name="total">   28.81   29.05</time>
   <energy>
    <i name="e_fr_energy">   -194.61692380 </i>
    <i name="e_wo_entrp">   -194.61591816 </i>
    <i name="e_0_energy">   -194.61642098 </i>
   </energy>
  </scstep>
  <scstep>
   <time name="total">   28.48   28.73</time>
   <energy>
    <i name="e_fr_energy">   -194.61692379 </i>
    <i name="e_wo_entrp">   -194.61591821 </i>
    <i name="e_0_energy">   -194.61642100 </i>
   </energy>
  </scstep>
  <scstep>
   <time name="total">   29.16   29.39</time>
   <energy>
    <i name="e_fr_energy">   -194.61692384 </i>
    <i name="e_wo_entrp">   -194.61591828 </i>
    <i name="e_0_energy">   -194.61642106 </i>
   </energy>
  </scstep>
  <scstep>
   <time name="total">   28.77   28.99</time>
   <energy>
    <i name="e_fr_energy">   -194.61692386 </i>
    <i name="e_wo_entrp">   -194.61591829 </i>
    <i name="e_0_energy">   -194.61642108 </i>
   </energy>
  </scstep>
  <scstep>
   <time name="total">   28.41   28.69</time>
   <energy>
    <i name="e_fr_energy">   -194.61692386 </i>
    <i name="e_wo_entrp">   -194.61591829 </i>
    <i name="e_0_energy">   -194.61642107 </i>
   </energy>
  </scstep>
  <scstep>
   <time name="total">   28.37   28.60</time>
   <energy>
    <i name="e_fr_energy">   -194.61692385 </i>
    <i name="e_wo_entrp">   -194.61591829 </i>
    <i name="e_0_energy">   -194.61642107 </i>
   </energy>
  </scstep>
  <scstep>
   <time name="total">   33.03   33.30</time>
   <energy>
    <i name="alphaZ">    708.28972511 </i>
    <i name="ewald"> -10090.52295325 </i>
    <i name="hartreedc">  -2010.63598906 </i>
    <i name="XCdc">    503.45202305 </i>
    <i name="pawpsdc">  14848.81322861 </i>
    <i name="pawaedc"> -14831.54242171 </i>
    <i name="eentropy">     -0.00100557 </i>
    <i name="bandstr">   -986.97617774 </i>
    <i name="atom">  11664.50664672 </i>
    <i name="e_fr_energy">   -194.61692385 </i>
    <i name="e_wo_entrp">   -194.61591829 </i>
    <i name="e_0_energy">   -194.61642107 </i>
   </energy>
  </scstep>
  <structure>
   <crystal>
    <varray name="basis" >
     <v>       4.93289285       0.00000000      -2.91974558 </v>
     <v>      -1.60363794       4.66495201      -2.91974558 </v>
     <v>       0.00000000       0.00000000       5.73222000 </v>
    </varray>
    <i name="volume">    131.90817514 </i>
    <varray name="rec_basis" >
     <v>       0.20272080       0.06968791       0.00000000 </v>
     <v>       0.00000000       0.21436448       0.00000000 </v>
     <v>       0.10325723       0.14468403       0.17445248 </v>
    </varray>
   </crystal>
   <varray name="positions" >
    <v>       0.00000000       0.50000000       0.00000000 </v>
    <v>       0.50000000       0.50000000       0.50000000 </v>
    <v>       0.50000000       0.00000000       0.00000000 </v>
    <v>       0.00000000       0.00000000       0.50000000 </v>
    <v>       0.73503000       0.23503000       0.97007000 </v>
    <v>       0.25000000       0.25000000       0.00000000 </v>
    <v>       0.26497000       0.76497000       0.02993000 </v>
    <v>       0.75000000       0.75000000       0.00000000 </v>
    <v>       0.23503000       0.26497000       0.50000000 </v>
    <v>       0.76497000       0.73503000       0.50000000 </v>
    <v>       0.25000000       0.75000000       0.50000000 </v>
    <v>       0.75000000       0.25000000       0.50000000 </v>
   </varray>
  </structure>
  <varray name="forces" >
   <v>       0.00000000       0.00000000       0.00000000 </v>
   <v>       0.00000000       0.00000000       0.00000000 </v>
   <v>       0.00000000       0.00000000       0.00000000 </v>
   <v>       0.00000000       0.00000000       0.00000000 </v>
   <v>       0.00000000       0.00000000       0.00000000 </v>
   <v>       0.00000000       0.00000000       0.00000000 </v>
   <v>       0.00000000       0.00000000       0.00000000 </v>
   <v>       0.00000000       0.00000000       0.00000000 </v>
   <v>       0.00000000       0.00000000       0.00000000 </v>
   <v>       0.00000000       0.00000000       0.00000000 </v>
   <v>       0.00000000       0.00000000       0.00000000 </v>
   <v>       0.00000000       0.00000000       0.00000000 </v>
  </varray>
  <varray name="stress" >
   <v>       0.00000000       0.00000000       0.00000000 </v>
   <v>       0.00000000       0.00000000       0.00000000 </v>
   <v>       0.00000000       0.00000000       0.00000000 </v>
  </varray>
  <energy>
   <i name="e_fr_energy">   -194.61692385 </i>
   <i name="e_wo_entrp">   -194.61591829 </i>
   <i name="e_0_energy">   -194.61642107 </i>
  </energy>
  <time name="totalsc"> 1000.73 1009.38</time>
  <eigenvalues>
   <array>
    <dimension dim="1">band</dimension>
    <dimension dim="2">kpoint</dimension>
    <dimension dim="3">spin</dimension>
    <field>eigene</field>
    <field>occ</field>
    <set>
     <set comment="spin 1">
      <set comment="kpoint 1">
       <r>  -50.0193    1.0000 </r>
       <r>  -49.8842    1.0000 </r>
       <r>  -49.8833    1.0000 </r>
       <r>  -49.8093    1.0000 </r>
       <r>  -49.8060    1.0000 </r>
       <r>  -49.7524    1.0000 </r>
       <r>  -24.0139    1.0000 </r>
       <r>  -24.0135    1.0000 </r>
       <r>  -23.9338    1.0000 </r>
       <r>  -23.8965    1.0000 </r>
       <r>  -23.8961    1.0000 </r>
       <r>  -23.8425    1.0000 </r>
       <r>  -23.7653    1.0000 </r>
       <r>  -23.4183    1.0000 </r>
       <r>  -23.3923    1.0000 </r>
       <r>  -23.3921    1.0000 </r>
       <r>  -23.0954    1.0000 </r>
       <r>  -23.0951    1.0000 </r>
       <r>  -22.9740    1.0000 </r>
       <r>  -22.9143    1.0000 </r>
       <r>  -22.9129    1.0000 </r>
       <r>  -22.8589    1.0000 </r>
       <r>  -22.7408    1.0000 </r>
       <r>  -22.7099    1.0000 </r>
       <r>   -1.4791    1.0000 </r>
       <r>    0.5068    1.0000 </r>
       <r>    3.1305    1.0000 </r>
       <r>    4.7250    1.0000 </r>
       <r>    4.7268    1.0000 </r>
       <r>    5.7756    1.0000 </r>
       <r>    6.2215    1.0000 </r>
       <r>    6.2229    1.0000 </r>
       <r>    6.9024    1.0000 </r>
       <r>    6.9038    1.0000 </r>
       <r>    6.9164    1.0000 </r>
       <r>    7.1285    1.0000 </r>
       <r>    7.4249    1.0000 </r>
       <r>    8.3922    1.0000 </r>
       <r>    8.3923    1.0000 </r>
       <r>    8.5781    1.0000 </r>
       <r>    9.2203    1.0000 </r>
       <r>    9.3073    1.0000 </r>
       <r>    9.7626    1.0000 </r>
       <r>    9.7632    1.0000 </r>
       <r>   10.7342    1.0000 </r>
       <r>   11.2669    1.0000 </r>
       <r>   12.1698    1.0000 </r>
       <r>   12.5757    1.0000 </r>
       <r>   12.5761    1.0000 </r>
       <r>   12.6374    1.0000 </r>
       <r>   12.6380    1.0000 </r>
       <r>   12.6455    1.0000 </r>
       <r>   13.6619    0.0000 </r>
       <r>   14.2910    0.0000 </r>
       <r>   14.3826    0.0000 </r>
       <r>   14.5703    0.0000 </r>
       <r>   14.9825    0.0000 </r>
       <r>   14.9837    0.0000 </r>
       <r>   15.1349    0.0000 </r>
       <r>   15.4826    0.0000 </r>
       <r>   15.5174    0.0000 </r>
       <r>   15.5752    0.0000 </r>
       <r>   16.1091    0.0000 </r>
       <r>   16.1100    0.0000 </r>
       <r>   16.8465    0.0000 </r>
       <r>   16.9733    0.0000 </r>
      </set>
      <set comment="kpoint 2">
       <r>  -50.0137    1.0000 </r>
       <r>  -49.8871    1.0000 </r>
       <r>  -49.8808    1.0000 </r>
       <r>  -49.8091    1.0000 </r>
       <r>  -49.8090    1.0000 </r>
       <r>  -49.7552    1.0000 </r>
       <r>  -24.0012    1.0000 </r>
       <r>  -23.9964    1.0000 </r>
       <r>  -23.9076    1.0000 </r>
       <r>  -23.8912    1.0000 </r>
       <r>  -23.8730    1.0000 </r>
       <r>  -23.8224    1.0000 </r>
       <r>  -23.7489    1.0000 </r>
       <r>  -23.4242    1.0000 </r>
       <r>  -23.4047    1.0000 </r>
       <r>  -23.3830    1.0000 </r>
       <r>  -23.1158    1.0000 </r>
       <r>  -23.1116    1.0000 </r>
       <r>  -22.9911    1.0000 </r>
       <r>  -22.9450    1.0000 </r>
       <r>  -22.9152    1.0000 </r>
       <r>  -22.8721    1.0000 </r>
       <r>  -22.7545    1.0000 </r>
       <r>  -22.7232    1.0000 </r>
       <r>   -1.3620    1.0000 </r>
       <r>    0.5590    1.0000 </r>
       <r>    3.1440    1.0000 </r>
       <r>    4.2425    1.0000 </r>
       <r>    4.5180    1.0000 </r>
       <r>    6.1223    1.0000 </r>
       <r>    6.2168    1.0000 </r>
       <r>    6.4707    1.0000 </r>
       <r>    6.5661    1.0000 </r>
       <r>    6.9088    1.0000 </r>
       <r>    7.0533    1.0000 </r>
       <r>    7.2275    1.0000 </r>
       <r>    7.6648    1.0000 </r>
       <r>    8.3492    1.0000 </r>
       <r>    8.5462    1.0000 </r>
       <r>    8.8174    1.0000 </r>
       <r>    9.2104    1.0000 </r>
       <r>    9.2496    1.0000 </r>
       <r>    9.7566    1.0000 </r>
       <r>    9.8868    1.0000 </r>
       <r>   10.7788    1.0000 </r>
       <r>   11.1866    1.0000 </r>
       <r>   12.1690    1.0000 </r>
       <r>   12.3526    1.0000 </r>
       <r>   12.5377    1.0000 </r>
       <r>   12.6253    1.0000 </r>
       <r>   12.6837    1.0000 </r>
       <r>   12.7462    1.0000 </r>
       <r>   13.4517    0.0000 </r>
       <r>   13.5412    0.0000 </r>
       <r>   13.9689    0.0000 </r>
       <r>   14.5121    0.0000 </r>
       <r>   15.0333    0.0000 </r>
       <r>   15.0376    0.0000 </r>
       <r>   15.2387    0.0000 </r>
       <r>   15.3595    0.0000 </r>
       <r>   15.4481    0.0000 </r>
       <r>   15.9333    0.0000 </r>
       <r>   16.0555    0.0000 </r>
       <r>   16.1076    0.0000 </r>
       <r>   16.6549    0.0000 </r>
       <r>   17.1673    0.0000 </r>
      </set>
      <set comment="kpoint 3">
       <r>  -49.9976    1.0000 </r>
       <r>  -49.8985    1.0000 </r>
       <r>  -49.8725    1.0000 </r>
       <r>  -49.8175    1.0000 </r>
       <r>  -49.8064    1.0000 </r>
       <r>  -49.7631    1.0000 </r>
       <r>  -23.9761    1.0000 </r>
       <r>  -23.9481    1.0000 </r>
       <r>  -23.8939    1.0000 </r>
       <r>  -23.8415    1.0000 </r>
       <r>  -23.8042    1.0000 </r>
       <r>  -23.7503    1.0000 </r>
       <r>  -23.6949    1.0000 </r>
       <r>  -23.4424    1.0000 </r>
       <r>  -23.4395    1.0000 </r>
       <r>  -23.3468    1.0000 </r>
       <r>  -23.1802    1.0000 </r>
       <r>  -23.1618    1.0000 </r>
       <r>  -23.0585    1.0000 </r>
       <r>  -23.0348    1.0000 </r>
       <r>  -22.9184    1.0000 </r>
       <r>  -22.8950    1.0000 </r>
       <r>  -22.7789    1.0000 </r>
       <r>  -22.7533    1.0000 </r>
       <r>   -1.0251    1.0000 </r>
       <r>    0.6421    1.0000 </r>
       <r>    3.1881    1.0000 </r>
       <r>    3.6001    1.0000 </r>
       <r>    4.1229    1.0000 </r>
       <r>    5.3542    1.0000 </r>
       <r>    6.4366    1.0000 </r>
       <r>    6.9837    1.0000 </r>
       <r>    7.0883    1.0000 </r>
       <r>    7.1723    1.0000 </r>
       <r>    7.2179    1.0000 </r>
       <r>    7.4403    1.0000 </r>
       <r>    7.8759    1.0000 </r>
       <r>    8.3645    1.0000 </r>
       <r>    8.7702    1.0000 </r>
       <r>    9.2103    1.0000 </r>
       <r>    9.2146    1.0000 </r>
       <r>    9.4329    1.0000 </r>
       <r>    9.6308    1.0000 </r>
       <r>   10.1927    1.0000 </r>
       <r>   10.8736    1.0000 </r>
       <r>   11.0956    1.0000 </r>
       <r>   11.7572    1.0000 </r>
       <r>   11.9431    1.0000 </r>
       <r>   12.0644    1.0000 </r>
       <r>   12.3459    1.0000 </r>
       <r>   12.6393    1.0000 </r>
       <r>   12.9502    0.0000 </r>
       <r>   12.9585    0.0000 </r>
       <r>   13.2944    0.0000 </r>
       <r>   13.7550    0.0000 </r>
       <r>   14.4347    0.0000 </r>
       <r>   14.6759    0.0000 </r>
       <r>   14.6782    0.0000 </r>
       <r>   15.0130    0.0000 </r>
       <r>   15.1034    0.0000 </r>
       <r>   15.4603    0.0000 </r>
       <r>   15.6029    0.0000 </r>
       <r>   15.9846    0.0000 </r>
       <r>   16.0395    0.0000 </r>
       <r>   16.7339    0.0000 </r>
       <r>   16.9468    0.0000 </r>
      </set>
      <set comment="kpoint 4">
       <r>  -49.9736    1.0000 </r>
       <r>  -49.9191    1.0000 </r>
       <r>  -49.8600    1.0000 </r>
       <r>  -49.8302    1.0000 </r>
       <r>  -49.7990    1.0000 </r>
       <r>  -49.7746    1.0000 </r>
       <r>  -23.9507    1.0000 </r>
       <r>  -23.9100    1.0000 </r>
       <r>  -23.8768    1.0000 </r>
       <r>  -23.7924    1.0000 </r>
       <r>  -23.7140    1.0000 </r>
       <r>  -23.6542    1.0000 </r>
       <r>  -23.5813    1.0000 </r>
       <r>  -23.4756    1.0000 </r>
       <r>  -23.4332    1.0000 </r>
       <r>  -23.2975    1.0000 </r>
       <r>  -23.2772    1.0000 </r>
       <r>  -23.2483    1.0000 </r>
       <r>  -23.2130    1.0000 </r>
       <r>  -23.1260    1.0000 </r>
       <r>  -22.9199    1.0000 </r>
       <r>  -22.9098    1.0000 </r>
       <r>  -22.7943    1.0000 </r>
       <r>  -22.7811    1.0000 </r>
       <r>   -0.5152    1.0000 </r>
       <r>    0.5225    1.0000 </r>
       <r>    3.2228    1.0000 </r>
       <r>    3.4213    1.0000 </r>
       <r>    3.7426    1.0000 </r>
       <r>    4.4564    1.0000 </r>
       <r>    6.7121    1.0000 </r>
       <r>    7.1324    1.0000 </r>
       <r>    7.1799    1.0000 </r>
       <r>    7.5135    1.0000 </r>
       <r>    7.8540    1.0000 </r>
       <r>    7.8960    1.0000 </r>
       <r>    8.2648    1.0000 </r>
       <r>    8.5747    1.0000 </r>
       <r>    8.7948    1.0000 </r>
       <r>    9.1799    1.0000 </r>
       <r>    9.2316    1.0000 </r>
       <r>    9.4467    1.0000 </r>
       <r>    9.9181    1.0000 </r>
       <r>   10.4855    1.0000 </r>
       <r>   10.6759    1.0000 </r>
       <r>   11.0972    1.0000 </r>
       <r>   11.2867    1.0000 </r>
       <r>   11.5651    1.0000 </r>
       <r>   11.5938    1.0000 </r>
       <r>   12.0824    1.0000 </r>
       <r>   12.1796    1.0000 </r>
       <r>   12.7515    1.0000 </r>
       <r>   13.2962    0.0000 </r>
       <r>   13.2996    0.0000 </r>
       <r>   13.8002    0.0000 </r>
       <r>   14.0190    0.0000 </r>
       <r>   14.1337    0.0000 </r>
       <r>   14.5583    0.0000 </r>
       <r>   14.5638    0.0000 </r>
       <r>   14.6485    0.0000 </r>
       <r>   15.1022    0.0000 </r>
       <r>   15.5803    0.0000 </r>
       <r>   16.1023    0.0000 </r>
       <r>   16.2923    0.0000 </r>
       <r>   16.3988    0.0000 </r>
       <r>   16.9159    0.0000 </r>
      </set>
      <set comment="kpoint 5">
       <r>  -49.9458    1.0000 </r>
       <r>  -49.9458    1.0000 </r>
       <r>  -49.8451    1.0000 </r>
       <r>  -49.8451    1.0000 </r>
       <r>  -49.7874    1.0000 </r>
       <r>  -49.7874    1.0000 </r>
       <r>  -23.9280    1.0000 </r>
       <r>  -23.9280    1.0000 </r>
       <r>  -23.8121    1.0000 </r>
       <r>  -23.8121    1.0000 </r>
       <r>  -23.6453    1.0000 </r>
       <r>  -23.6451    1.0000 </r>
       <r>  -23.4258    1.0000 </r>
       <r>  -23.4255    1.0000 </r>
       <r>  -23.3991    1.0000 </r>
       <r>  -23.3990    1.0000 </r>
       <r>  -23.3513    1.0000 </r>
       <r>  -23.3509    1.0000 </r>
       <r>  -23.2115    1.0000 </r>
       <r>  -23.2114    1.0000 </r>
       <r>  -22.9175    1.0000 </r>
       <r>  -22.9174    1.0000 </r>
       <r>  -22.7954    1.0000 </r>
       <r>  -22.7954    1.0000 </r>
       <r>    0.0676    1.0000 </r>
       <r>    0.0677    1.0000 </r>
       <r>    3.4236    1.0000 </r>
       <r>    3.4247    1.0000 </r>
       <r>    3.7502    1.0000 </r>
       <r>    3.7513    1.0000 </r>
       <r>    6.9372    1.0000 </r>
       <r>    6.9375    1.0000 </r>
       <r>    7.4113    1.0000 </r>
       <r>    7.4113    1.0000 </r>
       <r>    8.4612    1.0000 </r>
       <r>    8.4614    1.0000 </r>
       <r>    8.5861    1.0000 </r>
       <r>    8.5866    1.0000 </r>
       <r>    8.7929    1.0000 </r>
       <r>    8.7931    1.0000 </r>
       <r>    9.1601    1.0000 </r>
       <r>    9.1607    1.0000 </r>
       <r>   10.3306    1.0000 </r>
       <r>   10.3309    1.0000 </r>
       <r>   10.6977    1.0000 </r>
       <r>   10.6979    1.0000 </r>
       <r>   11.3903    1.0000 </r>
       <r>   11.3904    1.0000 </r>
       <r>   11.8257    1.0000 </r>
       <r>   11.8259    1.0000 </r>
       <r>   12.3058    1.0000 </r>
       <r>   12.3062    1.0000 </r>
       <r>   13.2883    0.0000 </r>
       <r>   13.2887    0.0000 </r>
       <r>   13.8204    0.0000 </r>
       <r>   13.8205    0.0000 </r>
       <r>   14.0413    0.0000 </r>
       <r>   14.0414    0.0000 </r>
       <r>   14.5951    0.0000 </r>
       <r>   14.5952    0.0000 </r>
       <r>   15.2733    0.0000 </r>
       <r>   15.2735    0.0000 </r>
       <r>   16.2347    0.0000 </r>
       <r>   16.2355    0.0000 </r>
       <r>   16.8483    0.0000 </r>
       <r>   16.8544    0.0000 </r>
      </set>
      <set comment="kpoint 6">
       <r>  -50.0051    1.0000 </r>
       <r>  -49.8851    1.0000 </r>
       <r>  -49.8844    1.0000 </r>
       <r>  -49.8122    1.0000 </r>
       <r>  -49.8077    1.0000 </r>
       <r>  -49.7609    1.0000 </r>
       <r>  -23.9830    1.0000 </r>
       <r>  -23.9636    1.0000 </r>
       <r>  -23.8765    1.0000 </r>
       <r>  -23.8697    1.0000 </r>
       <r>  -23.8437    1.0000 </r>
       <r>  -23.7763    1.0000 </r>
       <r>  -23.7336    1.0000 </r>
       <r>  -23.4466    1.0000 </r>
       <r>  -23.4023    1.0000 </r>
       <r>  -23.3844    1.0000 </r>
       <r>  -23.1703    1.0000 </r>
       <r>  -23.1312    1.0000 </r>
       <r>  -23.0068    1.0000 </r>
       <r>  -22.9642    1.0000 </r>
       <r>  -22.9435    1.0000 </r>
       <r>  -22.8875    1.0000 </r>
       <r>  -22.7733    1.0000 </r>
       <r>  -22.7475    1.0000 </r>
       <r>   -1.1762    1.0000 </r>
       <r>    0.6355    1.0000 </r>
       <r>    3.2153    1.0000 </r>
       <r>    3.7094    1.0000 </r>
       <r>    4.2716    1.0000 </r>
       <r>    6.1938    1.0000 </r>
       <r>    6.2959    1.0000 </r>
       <r>    6.3936    1.0000 </r>
       <r>    6.7778    1.0000 </r>
       <r>    7.0612    1.0000 </r>
       <r>    7.1127    1.0000 </r>
       <r>    7.4638    1.0000 </r>
       <r>    7.7678    1.0000 </r>
       <r>    8.5316    1.0000 </r>
       <r>    8.7044    1.0000 </r>
       <r>    9.0220    1.0000 </r>
       <r>    9.0985    1.0000 </r>
       <r>    9.2593    1.0000 </r>
       <r>    9.8255    1.0000 </r>
       <r>    9.8746    1.0000 </r>
       <r>   10.7616    1.0000 </r>
       <r>   11.1876    1.0000 </r>
       <r>   12.0529    1.0000 </r>
       <r>   12.0687    1.0000 </r>
       <r>   12.4103    1.0000 </r>
       <r>   12.4948    1.0000 </r>
       <r>   12.6553    1.0000 </r>
       <r>   12.8229    0.8324 </r>
       <r>   13.1551    0.0000 </r>
       <r>   13.1625    0.0000 </r>
       <r>   13.7484    0.0000 </r>
       <r>   14.6285    0.0000 </r>
       <r>   14.6967    0.0000 </r>
       <r>   14.9055    0.0000 </r>
       <r>   15.1530    0.0000 </r>
       <r>   15.1569    0.0000 </r>
       <r>   15.4461    0.0000 </r>
       <r>   15.8866    0.0000 </r>
       <r>   15.9792    0.0000 </r>
       <r>   16.2783    0.0000 </r>
       <r>   16.8659    0.0000 </r>
       <r>   16.9618    0.0000 </r>
      </set>
      <set comment="kpoint 7">
       <r>  -49.9869    1.0000 </r>
       <r>  -49.8987    1.0000 </r>
       <r>  -49.8769    1.0000 </r>
       <r>  -49.8212    1.0000 </r>
       <r>  -49.8020    1.0000 </r>
       <r>  -49.7703    1.0000 </r>
       <r>  -23.9497    1.0000 </r>
       <r>  -23.9142    1.0000 </r>
       <r>  -23.8836    1.0000 </r>
       <r>  -23.8158    1.0000 </r>
       <r>  -23.7417    1.0000 </r>
       <r>  -23.6924    1.0000 </r>
       <r>  -23.6754    1.0000 </r>
       <r>  -23.4854    1.0000 </r>
       <r>  -23.4222    1.0000 </r>
       <r>  -23.3443    1.0000 </r>
       <r>  -23.2647    1.0000 </r>
       <r>  -23.1848    1.0000 </r>
       <r>  -23.0850    1.0000 </r>
       <r>  -23.0453    1.0000 </r>
       <r>  -22.9564    1.0000 </r>
       <r>  -22.9139    1.0000 </r>
       <r>  -22.7880    1.0000 </r>
       <r>  -22.7783    1.0000 </r>
       <r>   -0.7874    1.0000 </r>
       <r>    0.7007    1.0000 </r>
       <r>    3.0946    1.0000 </r>
       <r>    3.2608    1.0000 </r>
       <r>    4.0181    1.0000 </r>
       <r>    5.3994    1.0000 </r>
       <r>    6.4364    1.0000 </r>
       <r>    6.7392    1.0000 </r>
       <r>    7.0310    1.0000 </r>
       <r>    7.1300    1.0000 </r>
       <r>    7.6472    1.0000 </r>
       <r>    7.9529    1.0000 </r>
       <r>    8.0124    1.0000 </r>
       <r>    8.5674    1.0000 </r>
       <r>    8.8493    1.0000 </r>
       <r>    9.0623    1.0000 </r>
       <r>    9.4685    1.0000 </r>
       <r>    9.5814    1.0000 </r>
       <r>    9.6501    1.0000 </r>
       <r>   10.0793    1.0000 </r>
       <r>   10.7977    1.0000 </r>
       <r>   11.1856    1.0000 </r>
       <r>   11.2417    1.0000 </r>
       <r>   11.7458    1.0000 </r>
       <r>   11.9571    1.0000 </r>
       <r>   12.2695    1.0000 </r>
       <r>   12.5588    1.0000 </r>
       <r>   12.7699    1.0000 </r>
       <r>   13.0859    0.0000 </r>
       <r>   13.3562    0.0000 </r>
       <r>   13.5862    0.0000 </r>
       <r>   14.1499    0.0000 </r>
       <r>   14.3750    0.0000 </r>
       <r>   14.7264    0.0000 </r>
       <r>   14.8527    0.0000 </r>
       <r>   15.0778    0.0000 </r>
       <r>   15.4166    0.0000 </r>
       <r>   15.5429    0.0000 </r>
       <r>   15.9151    0.0000 </r>
       <r>   15.9856    0.0000 </r>
       <r>   16.4305    0.0000 </r>
       <r>   16.9633    0.0000 </r>
      </set>
      <set comment="kpoint 8">
       <r>  -49.9622    1.0000 </r>
       <r>  -49.9217    1.0000 </r>
       <r>  -49.8647    1.0000 </r>
       <r>  -49.8343    1.0000 </r>
       <r>  -49.7916    1.0000 </r>
       <r>  -49.7821    1.0000 </r>
       <r>  -23.9214    1.0000 </r>
       <r>  -23.9066    1.0000 </r>
       <r>  -23.8419    1.0000 </r>
       <r>  -23.7883    1.0000 </r>
       <r>  -23.6620    1.0000 </r>
       <r>  -23.6096    1.0000 </r>
       <r>  -23.5418    1.0000 </r>
       <r>  -23.5034    1.0000 </r>
       <r>  -23.4089    1.0000 </r>
       <r>  -23.3765    1.0000 </r>
       <r>  -23.2865    1.0000 </r>
       <r>  -23.2674    1.0000 </r>
       <r>  -23.2449    1.0000 </r>
       <r>  -23.1305    1.0000 </r>
       <r>  -22.9597    1.0000 </r>
       <r>  -22.9300    1.0000 </r>
       <r>  -22.8004    1.0000 </r>
       <r>  -22.7911    1.0000 </r>
       <r>   -0.2570    1.0000 </r>
       <r>    0.4983    1.0000 </r>
       <r>    2.8178    1.0000 </r>
       <r>    3.2565    1.0000 </r>
       <r>    3.9331    1.0000 </r>
       <r>    4.6261    1.0000 </r>
       <r>    6.6778    1.0000 </r>
       <r>    6.8326    1.0000 </r>
       <r>    7.0799    1.0000 </r>
       <r>    7.3249    1.0000 </r>
       <r>    8.2758    1.0000 </r>
       <r>    8.4096    1.0000 </r>
       <r>    8.4507    1.0000 </r>
       <r>    8.6951    1.0000 </r>
       <r>    8.8691    1.0000 </r>
       <r>    9.1603    1.0000 </r>
       <r>    9.1980    1.0000 </r>
       <r>    9.4599    1.0000 </r>
       <r>   10.0075    1.0000 </r>
       <r>   10.3527    1.0000 </r>
       <r>   10.5831    1.0000 </r>
       <r>   10.7458    1.0000 </r>
       <r>   11.3311    1.0000 </r>
       <r>   11.5269    1.0000 </r>
       <r>   11.7098    1.0000 </r>
       <r>   11.9515    1.0000 </r>
       <r>   12.4255    1.0000 </r>
       <r>   12.4955    1.0000 </r>
       <r>   13.1719    0.0000 </r>
       <r>   13.4255    0.0000 </r>
       <r>   13.5530    0.0000 </r>
       <r>   13.8542    0.0000 </r>
       <r>   14.1065    0.0000 </r>
       <r>   14.5074    0.0000 </r>
       <r>   14.6275    0.0000 </r>
       <r>   14.8339    0.0000 </r>
       <r>   15.1297    0.0000 </r>
       <r>   15.3609    0.0000 </r>
       <r>   16.0099    0.0000 </r>
       <r>   16.2132    0.0000 </r>
       <r>   16.3088    0.0000 </r>
       <r>   16.7247    0.0000 </r>
      </set>
      <set comment="kpoint 9">
       <r>  -49.9493    1.0000 </r>
       <r>  -49.9353    1.0000 </r>
       <r>  -49.8499    1.0000 </r>
       <r>  -49.8492    1.0000 </r>
       <r>  -49.7940    1.0000 </r>
       <r>  -49.7790    1.0000 </r>
       <r>  -23.9338    1.0000 </r>
       <r>  -23.8988    1.0000 </r>
       <r>  -23.8272    1.0000 </r>
       <r>  -23.7863    1.0000 </r>
       <r>  -23.6460    1.0000 </r>
       <r>  -23.6202    1.0000 </r>
       <r>  -23.4972    1.0000 </r>
       <r>  -23.4472    1.0000 </r>
       <r>  -23.3949    1.0000 </r>
       <r>  -23.3769    1.0000 </r>
       <r>  -23.3487    1.0000 </r>
       <r>  -23.2900    1.0000 </r>
       <r>  -23.2190    1.0000 </r>
       <r>  -23.2076    1.0000 </r>
       <r>  -22.9563    1.0000 </r>
       <r>  -22.9371    1.0000 </r>
       <r>  -22.8065    1.0000 </r>
       <r>  -22.7821    1.0000 </r>
       <r>   -0.0166    1.0000 </r>
       <r>    0.2910    1.0000 </r>
       <r>    2.8377    1.0000 </r>
       <r>    3.1858    1.0000 </r>
       <r>    4.1485    1.0000 </r>
       <r>    4.2582    1.0000 </r>
       <r>    6.5154    1.0000 </r>
       <r>    7.0092    1.0000 </r>
       <r>    7.2497    1.0000 </r>
       <r>    7.3241    1.0000 </r>
       <r>    8.2325    1.0000 </r>
       <r>    8.4495    1.0000 </r>
       <r>    8.6139    1.0000 </r>
       <r>    8.8252    1.0000 </r>
       <r>    8.8890    1.0000 </r>
       <r>    9.0592    1.0000 </r>
       <r>    9.1679    1.0000 </r>
       <r>    9.3824    1.0000 </r>
       <r>   10.2705    1.0000 </r>
       <r>   10.4086    1.0000 </r>
       <r>   10.5123    1.0000 </r>
       <r>   10.7999    1.0000 </r>
       <r>   11.2563    1.0000 </r>
       <r>   11.5012    1.0000 </r>
       <r>   11.7712    1.0000 </r>
       <r>   12.0071    1.0000 </r>
       <r>   12.1398    1.0000 </r>
       <r>   12.5187    1.0000 </r>
       <r>   13.0612    0.0000 </r>
       <r>   13.3625    0.0000 </r>
       <r>   13.6072    0.0000 </r>
       <r>   13.8864    0.0000 </r>
       <r>   14.0068    0.0000 </r>
       <r>   14.2772    0.0000 </r>
       <r>   14.6120    0.0000 </r>
       <r>   14.7569    0.0000 </r>
       <r>   15.0186    0.0000 </r>
       <r>   15.6423    0.0000 </r>
       <r>   16.1017    0.0000 </r>
       <r>   16.1855    0.0000 </r>
       <r>   16.5628    0.0000 </r>
       <r>   16.7741    0.0000 </r>
      </set>
      <set comment="kpoint 10">
       <r>  -49.9764    1.0000 </r>
       <r>  -49.9110    1.0000 </r>
       <r>  -49.8637    1.0000 </r>
       <r>  -49.8346    1.0000 </r>
       <r>  -49.8034    1.0000 </r>
       <r>  -49.7672    1.0000 </r>
       <r>  -23.9683    1.0000 </r>
       <r>  -23.8888    1.0000 </r>
       <r>  -23.8806    1.0000 </r>
       <r>  -23.7939    1.0000 </r>
       <r>  -23.7272    1.0000 </r>
       <r>  -23.6852    1.0000 </r>
       <r>  -23.5873    1.0000 </r>
       <r>  -23.4860    1.0000 </r>
       <r>  -23.4247    1.0000 </r>
       <r>  -23.3019    1.0000 </r>
       <r>  -23.2795    1.0000 </r>
       <r>  -23.1866    1.0000 </r>
       <r>  -23.1685    1.0000 </r>
       <r>  -23.1318    1.0000 </r>
       <r>  -22.9457    1.0000 </r>
       <r>  -22.9387    1.0000 </r>
       <r>  -22.7967    1.0000 </r>
       <r>  -22.7613    1.0000 </r>
       <r>   -0.5907    1.0000 </r>
       <r>    0.6377    1.0000 </r>
       <r>    2.8927    1.0000 </r>
       <r>    3.2010    1.0000 </r>
       <r>    4.2748    1.0000 </r>
       <r>    4.8060    1.0000 </r>
       <r>    6.3031    1.0000 </r>
       <r>    7.0205    1.0000 </r>
       <r>    7.0671    1.0000 </r>
       <r>    7.3698    1.0000 </r>
       <r>    7.5210    1.0000 </r>
       <r>    8.0992    1.0000 </r>
       <r>    8.2599    1.0000 </r>
       <r>    8.6641    1.0000 </r>
       <r>    8.7945    1.0000 </r>
       <r>    9.1137    1.0000 </r>
       <r>    9.5563    1.0000 </r>
       <r>    9.5874    1.0000 </r>
       <r>    9.9282    1.0000 </r>
       <r>   10.3648    1.0000 </r>
       <r>   10.8382    1.0000 </r>
       <r>   11.0112    1.0000 </r>
       <r>   11.3574    1.0000 </r>
       <r>   11.6159    1.0000 </r>
       <r>   11.7411    1.0000 </r>
       <r>   12.1026    1.0000 </r>
       <r>   12.3073    1.0000 </r>
       <r>   12.8550    0.0958 </r>
       <r>   13.1321    0.0000 </r>
       <r>   13.1659    0.0000 </r>
       <r>   13.6689    0.0000 </r>
       <r>   13.9694    0.0000 </r>
       <r>   14.4352    0.0000 </r>
       <r>   14.6047    0.0000 </r>
       <r>   14.6669    0.0000 </r>
       <r>   14.9447    0.0000 </r>
       <r>   15.1253    0.0000 </r>
       <r>   15.7820    0.0000 </r>
       <r>   15.9661    0.0000 </r>
       <r>   16.1902    0.0000 </r>
       <r>   16.3711    0.0000 </r>
       <r>   17.0955    0.0000 </r>
      </set>
      <set comment="kpoint 11">
       <r>  -49.9982    1.0000 </r>
       <r>  -49.8935    1.0000 </r>
       <r>  -49.8758    1.0000 </r>
       <r>  -49.8213    1.0000 </r>
       <r>  -49.8082    1.0000 </r>
       <r>  -49.7585    1.0000 </r>
       <r>  -24.0017    1.0000 </r>
       <r>  -23.9399    1.0000 </r>
       <r>  -23.8746    1.0000 </r>
       <r>  -23.8480    1.0000 </r>
       <r>  -23.8178    1.0000 </r>
       <r>  -23.7748    1.0000 </r>
       <r>  -23.6836    1.0000 </r>
       <r>  -23.4455    1.0000 </r>
       <r>  -23.4141    1.0000 </r>
       <r>  -23.3585    1.0000 </r>
       <r>  -23.1862    1.0000 </r>
       <r>  -23.1143    1.0000 </r>
       <r>  -23.0600    1.0000 </r>
       <r>  -23.0249    1.0000 </r>
       <r>  -22.9375    1.0000 </r>
       <r>  -22.9238    1.0000 </r>
       <r>  -22.7751    1.0000 </r>
       <r>  -22.7352    1.0000 </r>
       <r>   -1.0512    1.0000 </r>
       <r>    0.6677    1.0000 </r>
       <r>    2.9620    1.0000 </r>
       <r>    3.5614    1.0000 </r>
       <r>    4.5581    1.0000 </r>
       <r>    5.5991    1.0000 </r>
       <r>    6.1624    1.0000 </r>
       <r>    6.6446    1.0000 </r>
       <r>    6.7616    1.0000 </r>
       <r>    6.8963    1.0000 </r>
       <r>    7.3831    1.0000 </r>
       <r>    7.7659    1.0000 </r>
       <r>    7.9147    1.0000 </r>
       <r>    8.3968    1.0000 </r>
       <r>    8.6574    1.0000 </r>
       <r>    9.1421    1.0000 </r>
       <r>    9.3625    1.0000 </r>
       <r>    9.6502    1.0000 </r>
       <r>    9.7923    1.0000 </r>
       <r>   10.1902    1.0000 </r>
       <r>   10.7443    1.0000 </r>
       <r>   11.0527    1.0000 </r>
       <r>   11.8895    1.0000 </r>
       <r>   12.1351    1.0000 </r>
       <r>   12.1480    1.0000 </r>
       <r>   12.3766    1.0000 </r>
       <r>   12.6306    1.0000 </r>
       <r>   12.7497    1.0000 </r>
       <r>   12.9556    0.0000 </r>
       <r>   13.1646    0.0000 </r>
       <r>   13.8525    0.0000 </r>
       <r>   14.5072    0.0000 </r>
       <r>   14.6308    0.0000 </r>
       <r>   14.9518    0.0000 </r>
       <r>   15.2011    0.0000 </r>
       <r>   15.3038    0.0000 </r>
       <r>   15.3965    0.0000 </r>
       <r>   15.7721    0.0000 </r>
       <r>   15.8954    0.0000 </r>
       <r>   16.1431    0.0000 </r>
       <r>   16.3579    0.0000 </r>
       <r>   16.7898    0.0000 </r>
      </set>
      <set comment="kpoint 12">
       <r>  -50.0113    1.0000 </r>
       <r>  -49.8844    1.0000 </r>
       <r>  -49.8835    1.0000 </r>
       <r>  -49.8122    1.0000 </r>
       <r>  -49.8092    1.0000 </r>
       <r>  -49.7544    1.0000 </r>
       <r>  -24.0153    1.0000 </r>
       <r>  -23.9806    1.0000 </r>
       <r>  -23.9010    1.0000 </r>
       <r>  -23.8769    1.0000 </r>
       <r>  -23.8719    1.0000 </r>
       <r>  -23.8233    1.0000 </r>
       <r>  -23.7333    1.0000 </r>
       <r>  -23.4253    1.0000 </r>
       <r>  -23.3936    1.0000 </r>
       <r>  -23.3891    1.0000 </r>
       <r>  -23.1311    1.0000 </r>
       <r>  -23.0957    1.0000 </r>
       <r>  -23.0049    1.0000 </r>
       <r>  -22.9485    1.0000 </r>
       <r>  -22.9321    1.0000 </r>
       <r>  -22.8903    1.0000 </r>
       <r>  -22.7545    1.0000 </r>
       <r>  -22.7185    1.0000 </r>
       <r>   -1.3194    1.0000 </r>
       <r>    0.5808    1.0000 </r>
       <r>    3.0509    1.0000 </r>
       <r>    4.0633    1.0000 </r>
       <r>    4.7441    1.0000 </r>
       <r>    6.0792    1.0000 </r>
       <r>    6.3062    1.0000 </r>
       <r>    6.3779    1.0000 </r>
       <r>    6.4083    1.0000 </r>
       <r>    6.6659    1.0000 </r>
       <r>    7.1581    1.0000 </r>
       <r>    7.3673    1.0000 </r>
       <r>    7.9798    1.0000 </r>
       <r>    8.1612    1.0000 </r>
       <r>    8.4716    1.0000 </r>
       <r>    8.9462    1.0000 </r>
       <r>    9.2387    1.0000 </r>
       <r>    9.4956    1.0000 </r>
       <r>    9.8162    1.0000 </r>
       <r>    9.9356    1.0000 </r>
       <r>   10.8893    1.0000 </r>
       <r>   10.9904    1.0000 </r>
       <r>   12.2253    1.0000 </r>
       <r>   12.4619    1.0000 </r>
       <r>   12.4698    1.0000 </r>
       <r>   12.5774    1.0000 </r>
       <r>   12.6298    1.0000 </r>
       <r>   12.7126    1.0000 </r>
       <r>   13.0838    0.0000 </r>
       <r>   13.4329    0.0000 </r>
       <r>   14.3349    0.0000 </r>
       <r>   14.3972    0.0000 </r>
       <r>   14.9907    0.0000 </r>
       <r>   15.0022    0.0000 </r>
       <r>   15.3440    0.0000 </r>
       <r>   15.4809    0.0000 </r>
       <r>   15.5179    0.0000 </r>
       <r>   15.8698    0.0000 </r>
       <r>   15.9717    0.0000 </r>
       <r>   16.2238    0.0000 </r>
       <r>   16.4982    0.0000 </r>
       <r>   16.7619    0.0000 </r>
      </set>
      <set comment="kpoint 13">
       <r>  -49.9680    1.0000 </r>
       <r>  -49.9001    1.0000 </r>
       <r>  -49.8848    1.0000 </r>
       <r>  -49.8312    1.0000 </r>
       <r>  -49.7930    1.0000 </r>
       <r>  -49.7796    1.0000 </r>
       <r>  -23.8991    1.0000 </r>
       <r>  -23.8849    1.0000 </r>
       <r>  -23.8752    1.0000 </r>
       <r>  -23.7695    1.0000 </r>
       <r>  -23.6514    1.0000 </r>
       <r>  -23.6152    1.0000 </r>
       <r>  -23.6099    1.0000 </r>
       <r>  -23.5258    1.0000 </r>
       <r>  -23.4262    1.0000 </r>
       <r>  -23.3768    1.0000 </r>
       <r>  -23.3091    1.0000 </r>
       <r>  -23.2328    1.0000 </r>
       <r>  -23.1444    1.0000 </r>
       <r>  -23.0772    1.0000 </r>
       <r>  -23.0270    1.0000 </r>
       <r>  -22.9531    1.0000 </r>
       <r>  -22.8048    1.0000 </r>
       <r>  -22.7884    1.0000 </r>
       <r>   -0.3743    1.0000 </r>
       <r>    0.7488    1.0000 </r>
       <r>    2.4653    1.0000 </r>
       <r>    3.1679    1.0000 </r>
       <r>    4.1257    1.0000 </r>
       <r>    5.6258    1.0000 </r>
       <r>    5.7580    1.0000 </r>
       <r>    6.7559    1.0000 </r>
       <r>    6.9385    1.0000 </r>
       <r>    7.2155    1.0000 </r>
       <r>    8.3183    1.0000 </r>
       <r>    8.3296    1.0000 </r>
       <r>    8.5634    1.0000 </r>
       <r>    8.5750    1.0000 </r>
       <r>    8.8674    1.0000 </r>
       <r>    9.2697    1.0000 </r>
       <r>    9.4895    1.0000 </r>
       <r>    9.7499    1.0000 </r>
       <r>    9.7970    1.0000 </r>
       <r>    9.9844    1.0000 </r>
       <r>   10.5805    1.0000 </r>
       <r>   10.8485    1.0000 </r>
       <r>   11.2852    1.0000 </r>
       <r>   11.4598    1.0000 </r>
       <r>   11.8907    1.0000 </r>
       <r>   12.0428    1.0000 </r>
       <r>   12.3961    1.0000 </r>
       <r>   12.9689    0.0000 </r>
       <r>   12.9993    0.0000 </r>
       <r>   13.2907    0.0000 </r>
       <r>   13.5434    0.0000 </r>
       <r>   13.9720    0.0000 </r>
       <r>   14.0360    0.0000 </r>
       <r>   14.6881    0.0000 </r>
       <r>   14.7765    0.0000 </r>
       <r>   14.8429    0.0000 </r>
       <r>   15.3582    0.0000 </r>
       <r>   15.4566    0.0000 </r>
       <r>   15.8125    0.0000 </r>
       <r>   15.9066    0.0000 </r>
       <r>   16.0883    0.0000 </r>
       <r>   16.9163    0.0000 </r>
      </set>
      <set comment="kpoint 14">
       <r>  -49.9442    1.0000 </r>
       <r>  -49.9200    1.0000 </r>
       <r>  -49.8769    1.0000 </r>
       <r>  -49.8446    1.0000 </r>
       <r>  -49.7901    1.0000 </r>
       <r>  -49.7813    1.0000 </r>
       <r>  -23.9227    1.0000 </r>
       <r>  -23.8567    1.0000 </r>
       <r>  -23.8101    1.0000 </r>
       <r>  -23.7402    1.0000 </r>
       <r>  -23.6007    1.0000 </r>
       <r>  -23.5527    1.0000 </r>
       <r>  -23.5456    1.0000 </r>
       <r>  -23.5080    1.0000 </r>
       <r>  -23.4670    1.0000 </r>
       <r>  -23.3823    1.0000 </r>
       <r>  -23.3115    1.0000 </r>
       <r>  -23.2731    1.0000 </r>
       <r>  -23.2326    1.0000 </r>
       <r>  -23.1522    1.0000 </r>
       <r>  -23.0529    1.0000 </r>
       <r>  -22.9795    1.0000 </r>
       <r>  -22.8218    1.0000 </r>
       <r>  -22.7801    1.0000 </r>
       <r>    0.1384    1.0000 </r>
       <r>    0.5520    1.0000 </r>
       <r>    2.1126    1.0000 </r>
       <r>    3.0248    1.0000 </r>
       <r>    4.3726    1.0000 </r>
       <r>    5.0440    1.0000 </r>
       <r>    6.0503    1.0000 </r>
       <r>    6.5421    1.0000 </r>
       <r>    7.1643    1.0000 </r>
       <r>    7.2641    1.0000 </r>
       <r>    8.3787    1.0000 </r>
       <r>    8.5363    1.0000 </r>
       <r>    8.8219    1.0000 </r>
       <r>    8.8376    1.0000 </r>
       <r>    9.0839    1.0000 </r>
       <r>    9.2730    1.0000 </r>
       <r>    9.4060    1.0000 </r>
       <r>    9.5396    1.0000 </r>
       <r>   10.0529    1.0000 </r>
       <r>   10.3183    1.0000 </r>
[...]
       <r>    9.8765    1.0000 </r>
       <r>   10.1470    1.0000 </r>
       <r>   10.7818    1.0000 </r>
       <r>   10.9636    1.0000 </r>
       <r>   11.1187    1.0000 </r>
       <r>   11.6474    1.0000 </r>
       <r>   11.9324    1.0000 </r>
       <r>   12.1251    1.0000 </r>
       <r>   12.5113    1.0000 </r>
       <r>   12.6774    1.0000 </r>
       <r>   13.0626    0.0000 </r>
       <r>   13.2702    0.0000 </r>
       <r>   13.4714    0.0000 </r>
       <r>   13.9571    0.0000 </r>
       <r>   14.2547    0.0000 </r>
       <r>   14.7252    0.0000 </r>
       <r>   14.7620    0.0000 </r>
       <r>   15.0586    0.0000 </r>
       <r>   15.1310    0.0000 </r>
       <r>   15.5161    0.0000 </r>
       <r>   15.8292    0.0000 </r>
       <r>   16.0938    0.0000 </r>
       <r>   16.1415    0.0000 </r>
       <r>   16.9300    0.0000 </r>
      </set>
      <set comment="kpoint 165">
       <r>  -49.9661    1.0000 </r>
       <r>  -49.8916    1.0000 </r>
       <r>  -49.8852    1.0000 </r>
       <r>  -49.8471    1.0000 </r>
       <r>  -49.8016    1.0000 </r>
       <r>  -49.7651    1.0000 </r>
       <r>  -23.9881    1.0000 </r>
       <r>  -23.8343    1.0000 </r>
       <r>  -23.8276    1.0000 </r>
       <r>  -23.8055    1.0000 </r>
       <r>  -23.6619    1.0000 </r>
       <r>  -23.6475    1.0000 </r>
       <r>  -23.5791    1.0000 </r>
       <r>  -23.4846    1.0000 </r>
       <r>  -23.3808    1.0000 </r>
       <r>  -23.3529    1.0000 </r>
       <r>  -23.3513    1.0000 </r>
       <r>  -23.1752    1.0000 </r>
       <r>  -23.1349    1.0000 </r>
       <r>  -23.1192    1.0000 </r>
       <r>  -23.0483    1.0000 </r>
       <r>  -23.0285    1.0000 </r>
       <r>  -22.7980    1.0000 </r>
       <r>  -22.7519    1.0000 </r>
       <r>   -0.3712    1.0000 </r>
       <r>    0.8430    1.0000 </r>
       <r>    2.3995    1.0000 </r>
       <r>    2.6849    1.0000 </r>
       <r>    4.6299    1.0000 </r>
       <r>    5.7133    1.0000 </r>
       <r>    6.1123    1.0000 </r>
       <r>    6.2376    1.0000 </r>
       <r>    6.7198    1.0000 </r>
       <r>    7.4193    1.0000 </r>
       <r>    7.6796    1.0000 </r>
       <r>    8.1418    1.0000 </r>
       <r>    8.6974    1.0000 </r>
       <r>    8.8786    1.0000 </r>
       <r>    8.9174    1.0000 </r>
       <r>    8.9928    1.0000 </r>
       <r>    9.8874    1.0000 </r>
       <r>    9.9214    1.0000 </r>
       <r>   10.0292    1.0000 </r>
       <r>   10.1245    1.0000 </r>
       <r>   10.5790    1.0000 </r>
       <r>   10.9490    1.0000 </r>
       <r>   11.2786    1.0000 </r>
       <r>   11.6443    1.0000 </r>
       <r>   11.9921    1.0000 </r>
       <r>   12.2087    1.0000 </r>
       <r>   12.4363    1.0000 </r>
       <r>   12.6342    1.0000 </r>
       <r>   12.8777    0.0018 </r>
       <r>   13.1592    0.0000 </r>
       <r>   13.3870    0.0000 </r>
       <r>   13.9821    0.0000 </r>
       <r>   14.3301    0.0000 </r>
       <r>   14.7016    0.0000 </r>
       <r>   14.7038    0.0000 </r>
       <r>   15.0675    0.0000 </r>
       <r>   15.2989    0.0000 </r>
       <r>   15.4901    0.0000 </r>
       <r>   15.6552    0.0000 </r>
       <r>   15.9370    0.0000 </r>
       <r>   16.2981    0.0000 </r>
       <r>   17.0014    0.0000 </r>
      </set>
     </set>
    </set>
   </array>
  </eigenvalues>
  <separator name="orbital magnetization" >
   <v name="MAGDIPOLOUT">      0.00000000      0.00000000      0.00000000</v>
  </separator>
  <dos>
   <i name="efermi">     12.83650849 </i>
   <total>
    <array>
     <dimension dim="1">gridpoints</dimension>
     <dimension dim="2">spin</dimension>
     <field>energy</field>
     <field>total</field>
     <field>integrated</field>
     <set>
      <set comment="spin 1">
       <r>   -53.4299     0.0000     0.0000 </r>
       <r>   -53.1797     0.0000     0.0000 </r>
       <r>   -52.9296     0.0000     0.0000 </r>
       <r>   -52.6795     0.0000     0.0000 </r>
       <r>   -52.4294     0.0000     0.0000 </r>
       <r>   -52.1793     0.0000     0.0000 </r>
       <r>   -51.9292     0.0000     0.0000 </r>
       <r>   -51.6791     0.0000     0.0000 </r>
       <r>   -51.4290     0.0000     0.0000 </r>
       <r>   -51.1789     0.0000     0.0000 </r>
       <r>   -50.9288     0.0000     0.0000 </r>
       <r>   -50.6787     0.0000     0.0000 </r>
       <r>   -50.4286     0.0000     0.0000 </r>
       <r>   -50.1785     0.0000     0.0000 </r>
       <r>   -49.9284     8.7567     2.1901 </r>
       <r>   -49.6783    20.5608    12.0000 </r>
       <r>   -49.4282     0.0000    12.0000 </r>
       <r>   -49.1781     0.0000    12.0000 </r>
       <r>   -48.9280     0.0000    12.0000 </r>
       <r>   -48.6779     0.0000    12.0000 </r>
       <r>   -48.4278     0.0000    12.0000 </r>
       <r>   -48.1777     0.0000    12.0000 </r>
       <r>   -47.9276     0.0000    12.0000 </r>
       <r>   -47.6774     0.0000    12.0000 </r>
       <r>   -47.4273     0.0000    12.0000 </r>
       <r>   -47.1772     0.0000    12.0000 </r>
       <r>   -46.9271     0.0000    12.0000 </r>
       <r>   -46.6770     0.0000    12.0000 </r>
       <r>   -46.4269     0.0000    12.0000 </r>
       <r>   -46.1768     0.0000    12.0000 </r>
       <r>   -45.9267     0.0000    12.0000 </r>
       <r>   -45.6766     0.0000    12.0000 </r>
       <r>   -45.4265     0.0000    12.0000 </r>
       <r>   -45.1764     0.0000    12.0000 </r>
       <r>   -44.9263     0.0000    12.0000 </r>
       <r>   -44.6762     0.0000    12.0000 </r>
       <r>   -44.4261     0.0000    12.0000 </r>
       <r>   -44.1760     0.0000    12.0000 </r>
       <r>   -43.9259     0.0000    12.0000 </r>
       <r>   -43.6758     0.0000    12.0000 </r>
       <r>   -43.4257     0.0000    12.0000 </r>
       <r>   -43.1756     0.0000    12.0000 </r>
       <r>   -42.9255     0.0000    12.0000 </r>
       <r>   -42.6754     0.0000    12.0000 </r>
       <r>   -42.4253     0.0000    12.0000 </r>
       <r>   -42.1751     0.0000    12.0000 </r>
       <r>   -41.9250     0.0000    12.0000 </r>
       <r>   -41.6749     0.0000    12.0000 </r>
       <r>   -41.4248     0.0000    12.0000 </r>
       <r>   -41.1747     0.0000    12.0000 </r>
       <r>   -40.9246     0.0000    12.0000 </r>
       <r>   -40.6745     0.0000    12.0000 </r>
       <r>   -40.4244     0.0000    12.0000 </r>
       <r>   -40.1743     0.0000    12.0000 </r>
       <r>   -39.9242     0.0000    12.0000 </r>
       <r>   -39.6741     0.0000    12.0000 </r>
       <r>   -39.4240     0.0000    12.0000 </r>
       <r>   -39.1739     0.0000    12.0000 </r>
       <r>   -38.9238     0.0000    12.0000 </r>
       <r>   -38.6737     0.0000    12.0000 </r>
       <r>   -38.4236     0.0000    12.0000 </r>
       <r>   -38.1735     0.0000    12.0000 </r>
       <r>   -37.9234     0.0000    12.0000 </r>
       <r>   -37.6733     0.0000    12.0000 </r>
       <r>   -37.4232     0.0000    12.0000 </r>
       <r>   -37.1731     0.0000    12.0000 </r>
       <r>   -36.9229     0.0000    12.0000 </r>
       <r>   -36.6728     0.0000    12.0000 </r>
       <r>   -36.4227     0.0000    12.0000 </r>
       <r>   -36.1726     0.0000    12.0000 </r>
       <r>   -35.9225     0.0000    12.0000 </r>
       <r>   -35.6724     0.0000    12.0000 </r>
       <r>   -35.4223     0.0000    12.0000 </r>
       <r>   -35.1722     0.0000    12.0000 </r>
       <r>   -34.9221     0.0000    12.0000 </r>
       <r>   -34.6720     0.0000    12.0000 </r>
       <r>   -34.4219     0.0000    12.0000 </r>
       <r>   -34.1718     0.0000    12.0000 </r>
       <r>   -33.9217     0.0000    12.0000 </r>
       <r>   -33.6716     0.0000    12.0000 </r>
       <r>   -33.4215     0.0000    12.0000 </r>
       <r>   -33.1714     0.0000    12.0000 </r>
       <r>   -32.9213     0.0000    12.0000 </r>
       <r>   -32.6712     0.0000    12.0000 </r>
       <r>   -32.4211     0.0000    12.0000 </r>
       <r>   -32.1710     0.0000    12.0000 </r>
       <r>   -31.9209     0.0000    12.0000 </r>
       <r>   -31.6708     0.0000    12.0000 </r>
       <r>   -31.4206     0.0000    12.0000 </r>
       <r>   -31.1705     0.0000    12.0000 </r>
       <r>   -30.9204     0.0000    12.0000 </r>
       <r>   -30.6703     0.0000    12.0000 </r>
       <r>   -30.4202     0.0000    12.0000 </r>
       <r>   -30.1701     0.0000    12.0000 </r>
       <r>   -29.9200     0.0000    12.0000 </r>
       <r>   -29.6699     0.0000    12.0000 </r>
       <r>   -29.4198     0.0000    12.0000 </r>
       <r>   -29.1697     0.0000    12.0000 </r>
       <r>   -28.9196     0.0000    12.0000 </r>
       <r>   -28.6695     0.0000    12.0000 </r>
       <r>   -28.4194     0.0000    12.0000 </r>
       <r>   -28.1693     0.0000    12.0000 </r>
       <r>   -27.9192     0.0000    12.0000 </r>
       <r>   -27.6691     0.0000    12.0000 </r>
       <r>   -27.4190     0.0000    12.0000 </r>
       <r>   -27.1689     0.0000    12.0000 </r>
       <r>   -26.9188     0.0000    12.0000 </r>
       <r>   -26.6687     0.0000    12.0000 </r>
       <r>   -26.4186     0.0000    12.0000 </r>
       <r>   -26.1684     0.0000    12.0000 </r>
       <r>   -25.9183     0.0000    12.0000 </r>
       <r>   -25.6682     0.0000    12.0000 </r>
       <r>   -25.4181     0.0000    12.0000 </r>
       <r>   -25.1680     0.0000    12.0000 </r>
       <r>   -24.9179     0.0000    12.0000 </r>
       <r>   -24.6678     0.0000    12.0000 </r>
       <r>   -24.4177     0.0000    12.0000 </r>
       <r>   -24.1676     0.0000    12.0000 </r>
       <r>   -23.9175     6.6723    13.6688 </r>
       <r>   -23.6674    21.7696    21.9273 </r>
       <r>   -23.4173    20.9365    29.7363 </r>
       <r>   -23.1672    17.8248    37.2359 </r>
       <r>   -22.9171    15.4508    43.2706 </r>
       <r>   -22.6670    11.5646    48.0000 </r>
       <r>   -22.4169     0.0000    48.0000 </r>
       <r>   -22.1668     0.0000    48.0000 </r>
       <r>   -21.9167     0.0000    48.0000 </r>
       <r>   -21.6666     0.0000    48.0000 </r>
       <r>   -21.4165     0.0000    48.0000 </r>
       <r>   -21.1664     0.0000    48.0000 </r>
       <r>   -20.9163     0.0000    48.0000 </r>
       <r>   -20.6661     0.0000    48.0000 </r>
       <r>   -20.4160     0.0000    48.0000 </r>
       <r>   -20.1659     0.0000    48.0000 </r>
       <r>   -19.9158     0.0000    48.0000 </r>
       <r>   -19.6657     0.0000    48.0000 </r>
       <r>   -19.4156     0.0000    48.0000 </r>
       <r>   -19.1655     0.0000    48.0000 </r>
       <r>   -18.9154     0.0000    48.0000 </r>
       <r>   -18.6653     0.0000    48.0000 </r>
       <r>   -18.4152     0.0000    48.0000 </r>
       <r>   -18.1651     0.0000    48.0000 </r>
       <r>   -17.9150     0.0000    48.0000 </r>
       <r>   -17.6649     0.0000    48.0000 </r>
       <r>   -17.4148     0.0000    48.0000 </r>
       <r>   -17.1647     0.0000    48.0000 </r>
       <r>   -16.9146     0.0000    48.0000 </r>
       <r>   -16.6645     0.0000    48.0000 </r>
       <r>   -16.4144     0.0000    48.0000 </r>
       <r>   -16.1643     0.0000    48.0000 </r>
       <r>   -15.9142     0.0000    48.0000 </r>
       <r>   -15.6641     0.0000    48.0000 </r>
       <r>   -15.4140     0.0000    48.0000 </r>
       <r>   -15.1638     0.0000    48.0000 </r>
       <r>   -14.9137     0.0000    48.0000 </r>
       <r>   -14.6636     0.0000    48.0000 </r>
       <r>   -14.4135     0.0000    48.0000 </r>
       <r>   -14.1634     0.0000    48.0000 </r>
       <r>   -13.9133     0.0000    48.0000 </r>
       <r>   -13.6632     0.0000    48.0000 </r>
       <r>   -13.4131     0.0000    48.0000 </r>
       <r>   -13.1630     0.0000    48.0000 </r>
       <r>   -12.9129     0.0000    48.0000 </r>
       <r>   -12.6628     0.0000    48.0000 </r>
       <r>   -12.4127     0.0000    48.0000 </r>
       <r>   -12.1626     0.0000    48.0000 </r>
       <r>   -11.9125     0.0000    48.0000 </r>
       <r>   -11.6624     0.0000    48.0000 </r>
       <r>   -11.4123     0.0000    48.0000 </r>
       <r>   -11.1622     0.0000    48.0000 </r>
       <r>   -10.9121     0.0000    48.0000 </r>
       <r>   -10.6620     0.0000    48.0000 </r>
       <r>   -10.4119     0.0000    48.0000 </r>
       <r>   -10.1618     0.0000    48.0000 </r>
       <r>    -9.9116     0.0000    48.0000 </r>
       <r>    -9.6615     0.0000    48.0000 </r>
       <r>    -9.4114     0.0000    48.0000 </r>
       <r>    -9.1613     0.0000    48.0000 </r>
       <r>    -8.9112     0.0000    48.0000 </r>
       <r>    -8.6611     0.0000    48.0000 </r>
       <r>    -8.4110     0.0000    48.0000 </r>
       <r>    -8.1609     0.0000    48.0000 </r>
       <r>    -7.9108     0.0000    48.0000 </r>
       <r>    -7.6607     0.0000    48.0000 </r>
       <r>    -7.4106     0.0000    48.0000 </r>
       <r>    -7.1605     0.0000    48.0000 </r>
       <r>    -6.9104     0.0000    48.0000 </r>
       <r>    -6.6603     0.0000    48.0000 </r>
       <r>    -6.4102     0.0000    48.0000 </r>
       <r>    -6.1601     0.0000    48.0000 </r>
       <r>    -5.9100     0.0000    48.0000 </r>
       <r>    -5.6599     0.0000    48.0000 </r>
       <r>    -5.4098     0.0000    48.0000 </r>
       <r>    -5.1597     0.0000    48.0000 </r>
       <r>    -4.9096     0.0000    48.0000 </r>
       <r>    -4.6595     0.0000    48.0000 </r>
       <r>    -4.4093     0.0000    48.0000 </r>
       <r>    -4.1592     0.0000    48.0000 </r>
       <r>    -3.9091     0.0000    48.0000 </r>
       <r>    -3.6590     0.0000    48.0000 </r>
       <r>    -3.4089     0.0000    48.0000 </r>
       <r>    -3.1588     0.0000    48.0000 </r>
       <r>    -2.9087     0.0000    48.0000 </r>
       <r>    -2.6586     0.0000    48.0000 </r>
       <r>    -2.4085     0.0000    48.0000 </r>
       <r>    -2.1584     0.0000    48.0000 </r>
       <r>    -1.9083     0.0000    48.0000 </r>
       <r>    -1.6582     0.0000    48.0000 </r>
       <r>    -1.4081     0.0148    48.0037 </r>
       <r>    -1.1580     0.1676    48.0940 </r>
       <r>    -0.9079     0.3292    48.2316 </r>
       <r>    -0.6578     0.6517    48.4442 </r>
       <r>    -0.4077     0.4804    48.6722 </r>
       <r>    -0.1576     1.0695    49.0487 </r>
       <r>     0.0925     1.0432    49.4588 </r>
       <r>     0.3426     1.4828    49.9924 </r>
       <r>     0.5927     2.1296    50.6785 </r>
       <r>     0.8428     2.2307    51.7350 </r>
       <r>     1.0930     0.3191    51.9999 </r>
       <r>     1.3431     0.0463    52.0116 </r>
       <r>     1.5932     0.2366    52.0904 </r>
       <r>     1.8433     0.3618    52.2398 </r>
       <r>     2.0934     0.4867    52.4099 </r>
       <r>     2.3435     0.7539    52.6990 </r>
       <r>     2.5936     0.8653    53.0602 </r>
       <r>     2.8437     1.5165    53.6362 </r>
       <r>     3.0938     1.8990    54.3361 </r>
       <r>     3.3439     1.8115    55.0538 </r>
       <r>     3.5940     1.4264    55.6449 </r>
       <r>     3.8441     1.3246    56.1681 </r>
       <r>     4.0942     1.2034    56.6100 </r>
       <r>     4.3443     1.5504    57.1968 </r>
       <r>     4.5944     1.4816    57.7490 </r>
       <r>     4.8445     1.6797    58.3888 </r>
       <r>     5.0946     1.6841    58.9524 </r>
       <r>     5.3447     1.3311    59.4023 </r>
       <r>     5.5948     1.3563    59.9295 </r>
       <r>     5.8449     1.7241    60.6257 </r>
       <r>     6.0950     1.8297    61.2944 </r>
       <r>     6.3452     1.3378    61.9561 </r>
       <r>     6.5953     2.3151    62.8811 </r>
       <r>     6.8454     3.0491    64.0577 </r>
       <r>     7.0955     3.0609    65.2273 </r>
       <r>     7.3456     3.1754    66.4817 </r>
       <r>     7.5957     4.1933    68.1356 </r>
       <r>     7.8458     2.4116    69.3080 </r>
       <r>     8.0959     2.3962    70.3389 </r>
       <r>     8.3460     4.0417    71.8060 </r>
       <r>     8.5961     4.4201    73.6853 </r>
       <r>     8.8462     6.4082    76.0645 </r>
       <r>     9.0963     4.6690    78.1191 </r>
       <r>     9.3464     5.0051    80.2101 </r>
       <r>     9.5965     5.1178    82.2244 </r>
       <r>     9.8466     4.4751    84.0984 </r>
       <r>    10.0967     4.4465    85.8656 </r>
       <r>    10.3468     4.0353    87.4849 </r>
       <r>    10.5969     4.9535    89.2493 </r>
       <r>    10.8470     5.3283    91.0965 </r>
       <r>    11.0971     2.5926    92.1241 </r>
       <r>    11.3472     4.1267    93.6675 </r>
       <r>    11.5973     4.3838    95.1797 </r>
       <r>    11.8475     4.8084    96.9630 </r>
       <r>    12.0976     4.9978    98.8923 </r>
       <r>    12.3477     3.9516   100.6966 </r>
       <r>    12.5978     4.7773   102.6497 </r>
       <r>    12.8479     2.6209   104.0513 </r>
       <r>    13.0980     5.0930   105.6557 </r>
       <r>    13.3481     4.2709   107.4432 </r>
       <r>    13.5982     4.0569   109.0147 </r>
       <r>    13.8483     3.4913   110.5850 </r>
       <r>    14.0984     4.8101   112.4391 </r>
       <r>    14.3485     3.8081   113.9698 </r>
       <r>    14.5986     4.7186   115.6107 </r>
       <r>    14.8487     3.9857   117.2469 </r>
       <r>    15.0988     5.7143   119.2347 </r>
       <r>    15.3489     4.3703   121.2146 </r>
       <r>    15.5990     4.3089   122.8902 </r>
       <r>    15.8491     4.1398   124.4521 </r>
       <r>    16.0992     4.7193   126.1873 </r>
       <r>    16.3493     4.9516   128.1690 </r>
       <r>    16.5994     3.0359   129.5162 </r>
       <r>    16.8495     3.4557   130.6664 </r>
       <r>    17.0996     1.5366   131.3947 </r>
       <r>    17.3498     0.4657   131.6790 </r>
       <r>    17.5999     0.4579   131.8333 </r>
       <r>    17.8500     0.1670   131.9272 </r>
       <r>    18.1001     0.0149   131.9794 </r>
       <r>    18.3502     0.0278   132.0000 </r>
       <r>    18.6003     0.0000   132.0000 </r>
       <r>    18.8504     0.0000   132.0000 </r>
       <r>    19.1005     0.0000   132.0000 </r>
       <r>    19.3506     0.0000   132.0000 </r>
       <r>    19.6007     0.0000   132.0000 </r>
       <r>    19.8508     0.0000   132.0000 </r>
       <r>    20.1009     0.0000   132.0000 </r>
       <r>    20.3510     0.0000   132.0000 </r>
       <r>    20.6011     0.0000   132.0000 </r>
       <r>    20.8512     0.0000   132.0000 </r>
       <r>    21.1013     0.0000   132.0000 </r>
       <r>    21.3514     0.0000   132.0000 </r>
       <r>    21.6015     0.0000   132.0000 </r>
      </set>
     </set>
    </array>
   </total>
  </dos>
 </calculation>
 <structure name="finalpos" >
  <crystal>
   <varray name="basis" >
    <v>       4.93289285       0.00000000      -2.91974558 </v>
    <v>      -1.60363794       4.66495201      -2.91974558 </v>
    <v>       0.00000000       0.00000000       5.73222000 </v>
   </varray>
   <i name="volume">    131.90817514 </i>
   <varray name="rec_basis" >
    <v>       0.20272080       0.06968791       0.00000000 </v>
    <v>       0.00000000       0.21436448       0.00000000 </v>
    <v>       0.10325723       0.14468403       0.17445248 </v>
   </varray>
  </crystal>
  <varray name="positions" >
   <v>       0.00000000       0.50000000       0.00000000 </v>
   <v>       0.50000000       0.50000000       0.50000000 </v>
   <v>       0.50000000       0.00000000       0.00000000 </v>
   <v>       0.00000000       0.00000000       0.50000000 </v>
   <v>       0.73503000       0.23503000       0.97007000 </v>
   <v>       0.25000000       0.25000000       0.00000000 </v>
   <v>       0.26497000       0.76497000       0.02993000 </v>
   <v>       0.75000000       0.75000000       0.00000000 </v>
   <v>       0.23503000       0.26497000       0.50000000 </v>
   <v>       0.76497000       0.73503000       0.50000000 </v>
   <v>       0.25000000       0.75000000       0.50000000 </v>
   <v>       0.75000000       0.25000000       0.50000000 </v>
  </varray>
 </structure>
</modeling>
