<?xml version="1.0" encoding="ISO-8859-1"?>
<modeling>
 <generator>
  <i name="program" type="string">vasp </i>
  <i name="version" type="string">6.2.0  </i>
  <i name="subversion" type="string">18Jan21 (build Jan 05 2022 15:41:44) complex                          parallel </i>
  <i name="platform" type="string">LinuxIFC </i>
  <i name="date" type="string">2025 05 07 </i>
  <i name="time" type="string">15:40:57 </i>
 </generator>
 <incar>
  <i type="string" name="SYSTEM">routine with relax: pwdword</i>
  <i type="string" name="PREC">Acc</i>
  <i type="int" name="IALGO">    38</i>
  <i type="string" name="ALGO">A</i>
  <i type="logical" name="ADDGRID"> T  </i>
  <i type="int" name="ICHARG">     2</i>
  <i type="int" name="NELM">   100</i>
  <i type="int" name="NELMIN">     6</i>
  <i name="EDIFF">      0.00000000</i>
  <i type="int" name="NSW">     0</i>
  <i type="int" name="ISIF">    -1</i>
  <i name="ENCUT">    600.00000000</i>
  <i type="logical" name="LREAL"> F  </i>
  <i type="int" name="ISMEAR">     0</i>
  <i name="SIGMA">      0.02000000</i>
  <i type="logical" name="LASPH"> T  </i>
  <i type="string" name="METAGGA">R2SCAN</i>
  <i type="logical" name="LMIXTAU"> F  </i>
 </incar>
 <primitive_cell>
  <structure name="primitive_cell" >
   <crystal>
    <varray name="basis" >
     <v>       4.82802163       0.00000000      -2.84221980 </v>
     <v>      -1.57811083       4.56282358      -2.84221980 </v>
     <v>       0.00000000       0.00000000       5.60250000 </v>
    </varray>
    <i name="volume">    123.41977482 </i>
    <varray name="rec_basis" >
     <v>       0.20712418       0.07163654       0.00000000 </v>
     <v>       0.00000000       0.21916254       0.00000000 </v>
     <v>       0.10507674       0.14752609       0.17849174 </v>
    </varray>
   </crystal>
   <varray name="positions" >
    <v>       0.50000000       0.00000000       0.50000000 </v>
    <v>       0.00000000       0.50000000       0.50000000 </v>
    <v>       0.25000000       0.25000000       1.00000000 </v>
    <v>       0.74265000       0.24265000       0.98530000 </v>
    <v>       0.75000000       0.75000000       1.00000000 </v>
    <v>       0.25735000       0.75735000       0.01470000 </v>
    <v>       0.24265000       0.25735000       0.50000000 </v>
    <v>       0.75735000       0.74265000       0.50000000 </v>
    <v>       0.25000000       0.75000000       0.50000000 </v>
    <v>       0.75000000       0.25000000       0.50000000 </v>
   </varray>
  </structure>
  <varray name="primitive_index" >
   <v type="int" >        1 </v>
   <v type="int" >        2 </v>
   <v type="int" >        3 </v>
   <v type="int" >        4 </v>
   <v type="int" >        5 </v>
   <v type="int" >        6 </v>
   <v type="int" >        7 </v>
   <v type="int" >        8 </v>
   <v type="int" >        9 </v>
   <v type="int" >       10 </v>
  </varray>
 </primitive_cell>
 <kpoints>
  <generation param="Gamma">
   <v type="int" name="divisions">       8        8        9 </v>
   <v name="usershift">      0.00000000       0.00000000       0.00000000 </v>
   <v name="genvec1">      0.12500000       0.00000000       0.00000000 </v>
   <v name="genvec2">      0.00000000       0.12500000       0.00000000 </v>
   <v name="genvec3">     -0.00000000      -0.00000000       0.11111111 </v>
   <v name="shift">      0.00000000       0.00000000       0.00000000 </v>
  </generation>
  <varray name="kpointlist" >
   <v>       0.00000000       0.00000000       0.00000000 </v>
   <v>       0.12500000      -0.00000000       0.00000000 </v>
   <v>       0.25000000      -0.00000000       0.00000000 </v>
   <v>       0.37500000       0.00000000       0.00000000 </v>
   <v>       0.50000000      -0.00000000       0.00000000 </v>
   <v>       0.12500000       0.12500000       0.00000000 </v>
   <v>       0.25000000       0.12500000       0.00000000 </v>
   <v>       0.37500000       0.12500000       0.00000000 </v>
   <v>       0.50000000       0.12500000       0.00000000 </v>
   <v>      -0.37500000       0.12500000       0.00000000 </v>
   <v>      -0.25000000       0.12500000       0.00000000 </v>
   <v>      -0.12500000       0.12500000       0.00000000 </v>
   <v>       0.25000000       0.25000000       0.00000000 </v>
   <v>       0.37500000       0.25000000       0.00000000 </v>
   <v>       0.50000000       0.25000000       0.00000000 </v>
   <v>      -0.37500000       0.25000000       0.00000000 </v>
   <v>      -0.25000000       0.25000000       0.00000000 </v>
   <v>       0.37500000       0.37500000       0.00000000 </v>
   <v>       0.50000000       0.37500000       0.00000000 </v>
   <v>      -0.37500000       0.37500000       0.00000000 </v>
   <v>       0.50000000       0.50000000       0.00000000 </v>
   <v>       0.00000000      -0.00000000       0.11111111 </v>
   <v>       0.12500000      -0.00000000       0.11111111 </v>
   <v>       0.25000000       0.00000000       0.11111111 </v>
   <v>       0.37500000       0.00000000       0.11111111 </v>
   <v>       0.50000000      -0.00000000       0.11111111 </v>
   <v>      -0.37500000      -0.00000000       0.11111111 </v>
   <v>      -0.25000000       0.00000000       0.11111111 </v>
   <v>      -0.12500000       0.00000000       0.11111111 </v>
   <v>       0.12500000       0.12500000       0.11111111 </v>
   <v>       0.25000000       0.12500000       0.11111111 </v>
   <v>       0.37500000       0.12500000       0.11111111 </v>
   <v>       0.50000000       0.12500000       0.11111111 </v>
   <v>      -0.37500000       0.12500000       0.11111111 </v>
   <v>      -0.25000000       0.12500000       0.11111111 </v>
   <v>      -0.12500000       0.12500000       0.11111111 </v>
   <v>       0.25000000       0.25000000       0.11111111 </v>
   <v>       0.37500000       0.25000000       0.11111111 </v>
   <v>       0.50000000       0.25000000       0.11111111 </v>
   <v>      -0.37500000       0.25000000       0.11111111 </v>
   <v>      -0.25000000       0.25000000       0.11111111 </v>
   <v>      -0.12500000       0.25000000       0.11111111 </v>
   <v>       0.37500000       0.37500000       0.11111111 </v>
   <v>       0.50000000       0.37500000       0.11111111 </v>
   <v>      -0.37500000       0.37500000       0.11111111 </v>
   <v>      -0.25000000       0.37500000       0.11111111 </v>
   <v>      -0.12500000       0.37500000       0.11111111 </v>
   <v>       0.50000000       0.50000000       0.11111111 </v>
   <v>      -0.37500000       0.50000000       0.11111111 </v>
   <v>      -0.25000000       0.50000000       0.11111111 </v>
   <v>      -0.12500000       0.50000000       0.11111111 </v>
   <v>      -0.37500000      -0.37500000       0.11111111 </v>
   <v>      -0.25000000      -0.37500000       0.11111111 </v>
   <v>      -0.12500000      -0.37500000       0.11111111 </v>
   <v>      -0.25000000      -0.25000000       0.11111111 </v>
   <v>      -0.12500000      -0.25000000       0.11111111 </v>
   <v>      -0.12500000      -0.12500000       0.11111111 </v>
   <v>       0.00000000      -0.00000000       0.22222222 </v>
   <v>       0.12500000       0.00000000       0.22222222 </v>
   <v>       0.25000000      -0.00000000       0.22222222 </v>
   <v>       0.37500000      -0.00000000       0.22222222 </v>
   <v>       0.50000000      -0.00000000       0.22222222 </v>
   <v>      -0.37500000      -0.00000000       0.22222222 </v>
   <v>      -0.25000000      -0.00000000       0.22222222 </v>
   <v>      -0.12500000      -0.00000000       0.22222222 </v>
   <v>       0.12500000       0.12500000       0.22222222 </v>
   <v>       0.25000000       0.12500000       0.22222222 </v>
   <v>       0.37500000       0.12500000       0.22222222 </v>
   <v>       0.50000000       0.12500000       0.22222222 </v>
   <v>      -0.37500000       0.12500000       0.22222222 </v>
   <v>      -0.25000000       0.12500000       0.22222222 </v>
   <v>      -0.12500000       0.12500000       0.22222222 </v>
   <v>       0.25000000       0.25000000       0.22222222 </v>
   <v>       0.37500000       0.25000000       0.22222222 </v>
   <v>       0.50000000       0.25000000       0.22222222 </v>
   <v>      -0.37500000       0.25000000       0.22222222 </v>
   <v>      -0.25000000       0.25000000       0.22222222 </v>
   <v>      -0.12500000       0.25000000       0.22222222 </v>
   <v>       0.37500000       0.37500000       0.22222222 </v>
   <v>       0.50000000       0.37500000       0.22222222 </v>
   <v>      -0.37500000       0.37500000       0.22222222 </v>
   <v>      -0.25000000       0.37500000       0.22222222 </v>
   <v>      -0.12500000       0.37500000       0.22222222 </v>
   <v>       0.50000000       0.50000000       0.22222222 </v>
   <v>      -0.37500000       0.50000000       0.22222222 </v>
   <v>      -0.25000000       0.50000000       0.22222222 </v>
   <v>      -0.12500000       0.50000000       0.22222222 </v>
   <v>      -0.37500000      -0.37500000       0.22222222 </v>
   <v>      -0.25000000      -0.37500000       0.22222222 </v>
   <v>      -0.12500000      -0.37500000       0.22222222 </v>
   <v>      -0.25000000      -0.25000000       0.22222222 </v>
   <v>      -0.12500000      -0.25000000       0.22222222 </v>
   <v>      -0.12500000      -0.12500000       0.22222222 </v>
   <v>       0.00000000      -0.00000000       0.33333333 </v>
   <v>       0.12500000      -0.00000000       0.33333333 </v>
   <v>       0.25000000      -0.00000000       0.33333333 </v>
   <v>       0.37500000      -0.00000000       0.33333333 </v>
   <v>       0.50000000       0.00000000       0.33333333 </v>
   <v>      -0.37500000      -0.00000000       0.33333333 </v>
   <v>      -0.25000000       0.00000000       0.33333333 </v>
   <v>      -0.12500000       0.00000000       0.33333333 </v>
   <v>       0.12500000       0.12500000       0.33333333 </v>
   <v>       0.25000000       0.12500000       0.33333333 </v>
   <v>       0.37500000       0.12500000       0.33333333 </v>
   <v>       0.50000000       0.12500000       0.33333333 </v>
   <v>      -0.37500000       0.12500000       0.33333333 </v>
   <v>      -0.25000000       0.12500000       0.33333333 </v>
   <v>      -0.12500000       0.12500000       0.33333333 </v>
   <v>       0.25000000       0.25000000       0.33333333 </v>
   <v>       0.37500000       0.25000000       0.33333333 </v>
   <v>       0.50000000       0.25000000       0.33333333 </v>
   <v>      -0.37500000       0.25000000       0.33333333 </v>
   <v>      -0.25000000       0.25000000       0.33333333 </v>
   <v>      -0.12500000       0.25000000       0.33333333 </v>
   <v>       0.37500000       0.37500000       0.33333333 </v>
   <v>       0.50000000       0.37500000       0.33333333 </v>
   <v>      -0.37500000       0.37500000       0.33333333 </v>
   <v>      -0.25000000       0.37500000       0.33333333 </v>
   <v>      -0.12500000       0.37500000       0.33333333 </v>
   <v>       0.50000000       0.50000000       0.33333333 </v>
   <v>      -0.37500000       0.50000000       0.33333333 </v>
   <v>      -0.25000000       0.50000000       0.33333333 </v>
   <v>      -0.12500000       0.50000000       0.33333333 </v>
   <v>      -0.37500000      -0.37500000       0.33333333 </v>
   <v>      -0.25000000      -0.37500000       0.33333333 </v>
   <v>      -0.12500000      -0.37500000       0.33333333 </v>
   <v>      -0.25000000      -0.25000000       0.33333333 </v>
   <v>      -0.12500000      -0.25000000       0.33333333 </v>
   <v>      -0.12500000      -0.12500000       0.33333333 </v>
   <v>       0.00000000      -0.00000000       0.44444444 </v>
   <v>       0.12500000       0.00000000       0.44444444 </v>
   <v>       0.25000000       0.00000000       0.44444444 </v>
   <v>       0.37500000       0.00000000       0.44444444 </v>
   <v>       0.50000000      -0.00000000       0.44444444 </v>
   <v>      -0.37500000      -0.00000000       0.44444444 </v>
   <v>      -0.25000000      -0.00000000       0.44444444 </v>
   <v>      -0.12500000      -0.00000000       0.44444444 </v>
   <v>       0.12500000       0.12500000       0.44444444 </v>
   <v>       0.25000000       0.12500000       0.44444444 </v>
   <v>       0.37500000       0.12500000       0.44444444 </v>
   <v>       0.50000000       0.12500000       0.44444444 </v>
   <v>      -0.37500000       0.12500000       0.44444444 </v>
   <v>      -0.25000000       0.12500000       0.44444444 </v>
   <v>      -0.12500000       0.12500000       0.44444444 </v>
   <v>       0.25000000       0.25000000       0.44444444 </v>
   <v>       0.37500000       0.25000000       0.44444444 </v>
   <v>       0.50000000       0.25000000       0.44444444 </v>
   <v>      -0.37500000       0.25000000       0.44444444 </v>
   <v>      -0.25000000       0.25000000       0.44444444 </v>
   <v>      -0.12500000       0.25000000       0.44444444 </v>
   <v>       0.37500000       0.37500000       0.44444444 </v>
   <v>       0.50000000       0.37500000       0.44444444 </v>
   <v>      -0.37500000       0.37500000       0.44444444 </v>
   <v>      -0.25000000       0.37500000       0.44444444 </v>
   <v>      -0.12500000       0.37500000       0.44444444 </v>
   <v>       0.50000000       0.50000000       0.44444444 </v>
   <v>      -0.37500000       0.50000000       0.44444444 </v>
   <v>      -0.25000000       0.50000000       0.44444444 </v>
   <v>      -0.12500000       0.50000000       0.44444444 </v>
   <v>      -0.37500000      -0.37500000       0.44444444 </v>
   <v>      -0.25000000      -0.37500000       0.44444444 </v>
   <v>      -0.12500000      -0.37500000       0.44444444 </v>
   <v>      -0.25000000      -0.25000000       0.44444444 </v>
   <v>      -0.12500000      -0.25000000       0.44444444 </v>
   <v>      -0.12500000      -0.12500000       0.44444444 </v>
  </varray>
  <varray name="weights" >
   <v>       0.00173611 </v>
   <v>       0.00694444 </v>
   <v>       0.00694444 </v>
   <v>       0.00694444 </v>
   <v>       0.00347222 </v>
   <v>       0.00347222 </v>
   <v>       0.00694444 </v>
   <v>       0.00694444 </v>
   <v>       0.00694444 </v>
   <v>       0.00694444 </v>
   <v>       0.00694444 </v>
   <v>       0.00347222 </v>
   <v>       0.00347222 </v>
   <v>       0.00694444 </v>
   <v>       0.00694444 </v>
   <v>       0.00694444 </v>
   <v>       0.00347222 </v>
   <v>       0.00347222 </v>
   <v>       0.00694444 </v>
   <v>       0.00347222 </v>
   <v>       0.00173611 </v>
   <v>       0.00347222 </v>
   <v>       0.00694444 </v>
   <v>       0.00694444 </v>
   <v>       0.00694444 </v>
   <v>       0.00694444 </v>
   <v>       0.00694444 </v>
   <v>       0.00694444 </v>
   <v>       0.00694444 </v>
   <v>       0.00347222 </v>
   <v>       0.00694444 </v>
   <v>       0.00694444 </v>
   <v>       0.00694444 </v>
   <v>       0.00694444 </v>
   <v>       0.00694444 </v>
   <v>       0.00694444 </v>
   <v>       0.00347222 </v>
   <v>       0.00694444 </v>
   <v>       0.00694444 </v>
   <v>       0.00694444 </v>
   <v>       0.00694444 </v>
   <v>       0.00694444 </v>
   <v>       0.00347222 </v>
   <v>       0.00694444 </v>
   <v>       0.00694444 </v>
   <v>       0.00694444 </v>
   <v>       0.00694444 </v>
   <v>       0.00347222 </v>
   <v>       0.00694444 </v>
   <v>       0.00694444 </v>
   <v>       0.00694444 </v>
   <v>       0.00347222 </v>
   <v>       0.00694444 </v>
   <v>       0.00694444 </v>
   <v>       0.00347222 </v>
   <v>       0.00694444 </v>
   <v>       0.00347222 </v>
   <v>       0.00347222 </v>
   <v>       0.00694444 </v>
   <v>       0.00694444 </v>
   <v>       0.00694444 </v>
   <v>       0.00694444 </v>
   <v>       0.00694444 </v>
   <v>       0.00694444 </v>
   <v>       0.00694444 </v>
   <v>       0.00347222 </v>
   <v>       0.00694444 </v>
   <v>       0.00694444 </v>
   <v>       0.00694444 </v>
   <v>       0.00694444 </v>
   <v>       0.00694444 </v>
   <v>       0.00694444 </v>
   <v>       0.00347222 </v>
   <v>       0.00694444 </v>
   <v>       0.00694444 </v>
   <v>       0.00694444 </v>
   <v>       0.00694444 </v>
   <v>       0.00694444 </v>
   <v>       0.00347222 </v>
   <v>       0.00694444 </v>
   <v>       0.00694444 </v>
   <v>       0.00694444 </v>
   <v>       0.00694444 </v>
   <v>       0.00347222 </v>
   <v>       0.00694444 </v>
   <v>       0.00694444 </v>
   <v>       0.00694444 </v>
   <v>       0.00347222 </v>
   <v>       0.00694444 </v>
   <v>       0.00694444 </v>
   <v>       0.00347222 </v>
   <v>       0.00694444 </v>
   <v>       0.00347222 </v>
   <v>       0.00347222 </v>
   <v>       0.00694444 </v>
   <v>       0.00694444 </v>
   <v>       0.00694444 </v>
   <v>       0.00694444 </v>
   <v>       0.00694444 </v>
   <v>       0.00694444 </v>
   <v>       0.00694444 </v>
   <v>       0.00347222 </v>
   <v>       0.00694444 </v>
   <v>       0.00694444 </v>
   <v>       0.00694444 </v>
   <v>       0.00694444 </v>
   <v>       0.00694444 </v>
   <v>       0.00694444 </v>
   <v>       0.00347222 </v>
   <v>       0.00694444 </v>
   <v>       0.00694444 </v>
   <v>       0.00694444 </v>
   <v>       0.00694444 </v>
   <v>       0.00694444 </v>
   <v>       0.00347222 </v>
   <v>       0.00694444 </v>
   <v>       0.00694444 </v>
   <v>       0.00694444 </v>
   <v>       0.00694444 </v>
   <v>       0.00347222 </v>
   <v>       0.00694444 </v>
   <v>       0.00694444 </v>
   <v>       0.00694444 </v>
   <v>       0.00347222 </v>
   <v>       0.00694444 </v>
   <v>       0.00694444 </v>
   <v>       0.00347222 </v>
   <v>       0.00694444 </v>
   <v>       0.00347222 </v>
   <v>       0.00347222 </v>
   <v>       0.00694444 </v>
   <v>       0.00694444 </v>
   <v>       0.00694444 </v>
   <v>       0.00694444 </v>
   <v>       0.00694444 </v>
   <v>       0.00694444 </v>
   <v>       0.00694444 </v>
   <v>       0.00347222 </v>
   <v>       0.00694444 </v>
   <v>       0.00694444 </v>
   <v>       0.00694444 </v>
   <v>       0.00694444 </v>
   <v>       0.00694444 </v>
   <v>       0.00694444 </v>
   <v>       0.00347222 </v>
   <v>       0.00694444 </v>
   <v>       0.00694444 </v>
   <v>       0.00694444 </v>
   <v>       0.00694444 </v>
   <v>       0.00694444 </v>
   <v>       0.00347222 </v>
   <v>       0.00694444 </v>
   <v>       0.00694444 </v>
   <v>       0.00694444 </v>
   <v>       0.00694444 </v>
   <v>       0.00347222 </v>
   <v>       0.00694444 </v>
   <v>       0.00694444 </v>
   <v>       0.00694444 </v>
   <v>       0.00347222 </v>
   <v>       0.00694444 </v>
   <v>       0.00694444 </v>
   <v>       0.00347222 </v>
   <v>       0.00694444 </v>
   <v>       0.00347222 </v>
  </varray>
 </kpoints>
 <parameters>
  <separator name="general" >
   <i type="string" name="SYSTEM">routine with relax: pwdword</i>
   <i type="logical" name="LCOMPAT"> F  </i>
  </separator>
  <separator name="electronic" >
   <i type="string" name="PREC">acc</i>
   <i name="ENMAX">    600.00000000</i>
   <i name="ENAUG">    535.51400000</i>
   <i name="EDIFF">      0.00000000</i>
   <i type="int" name="IALGO">    58</i>
   <i type="int" name="IWAVPR">    10</i>
   <i type="int" name="NBANDS">    60</i>
   <i type="int" name="NBANDSLOW">    -1</i>
   <i type="int" name="NBANDSHIGH">    -1</i>
   <i name="NELECT">     98.00000000</i>
   <i type="int" name="TURBO">     0</i>
   <i type="int" name="IRESTART">     0</i>
   <i type="int" name="NREBOOT">     0</i>
   <i type="int" name="NMIN">     0</i>
   <i name="EREF">      0.00000000</i>
   <separator name="electronic smearing" >
    <i type="int" name="ISMEAR">     0</i>
    <i name="SIGMA">      0.02000000</i>
    <i name="KSPACING">      0.50000000</i>
    <i type="logical" name="KGAMMA"> T  </i>
    <i type="logical" name="KBLOWUP"> F  </i>
   </separator>
   <separator name="electronic projectors" >
    <i type="logical" name="LREAL"> F  </i>
    <v name="ROPT">      0.00000000      0.00000000      0.00000000</v>
    <i type="int" name="LMAXPAW">  -100</i>
    <i type="int" name="LMAXMIX">     2</i>
    <i type="logical" name="NLSPLINE"> F  </i>
   </separator>
   <separator name="electronic startup" >
    <i type="int" name="ISTART">     0</i>
    <i type="int" name="ICHARG">     2</i>
    <i type="int" name="INIWAV">     1</i>
   </separator>
   <separator name="electronic spin" >
    <i type="int" name="ISPIN">     1</i>
    <i type="logical" name="LNONCOLLINEAR"> F  </i>
    <v name="MAGMOM">      1.00000000      1.00000000      1.00000000      1.00000000      1.00000000      1.00000000      1.00000000      1.00000000      1.00000000      1.00000000</v>
    <i name="NUPDOWN">     -1.00000000</i>
    <i type="logical" name="LSORBIT"> F  </i>
    <v name="SAXIS">      0.00000000      0.00000000      1.00000000</v>
    <i type="logical" name="LSPIRAL"> F  </i>
    <v name="QSPIRAL">      0.00000000      0.00000000      0.00000000</v>
    <i type="logical" name="LZEROZ"> F  </i>
   </separator>
   <separator name="electronic exchange-correlation" >
    <i type="logical" name="LASPH"> T  </i>
    <i type="logical" name="LMETAGGA"> F  </i>
   </separator>
   <separator name="electronic convergence" >
    <i type="int" name="NELM">   100</i>
    <i type="int" name="NELMDL">    -5</i>
    <i type="int" name="NELMIN">     6</i>
    <i name="ENINI">    600.00000000</i>
    <separator name="electronic convergence detail" >
     <i type="logical" name="LDIAG"> T  </i>
     <i type="logical" name="LSUBROT"> F  </i>
     <i name="WEIMIN">      0.00000000</i>
     <i name="EBREAK">      0.00000000</i>
     <i name="DEPER">      0.30000000</i>
     <i type="int" name="NRMM">     4</i>
     <i name="TIME">      0.40000000</i>
    </separator>
   </separator>
   <separator name="electronic mixer" >
    <i name="AMIX">      0.40000000</i>
    <i name="BMIX">      1.00000000</i>
    <i name="AMIN">      0.10000000</i>
    <i name="AMIX_MAG">      1.60000000</i>
    <i name="BMIX_MAG">      1.00000000</i>
    <separator name="electronic mixer details" >
     <i type="int" name="IMIX">     4</i>
     <i type="logical" name="MIXFIRST"> F  </i>
     <i type="int" name="MAXMIX">   -45</i>
     <i name="WC">    100.00000000</i>
     <i type="int" name="INIMIX">     1</i>
     <i type="int" name="MIXPRE">     1</i>
     <i type="int" name="MREMOVE">     5</i>
    </separator>
   </separator>
   <separator name="electronic dipolcorrection" >
    <i type="logical" name="LDIPOL"> F  </i>
    <i type="logical" name="LMONO"> F  </i>
    <i type="int" name="IDIPOL">     0</i>
    <i name="EPSILON">      1.00000000</i>
    <v name="DIPOL">   -100.00000000   -100.00000000   -100.00000000</v>
    <i name="EFIELD">      0.00000000</i>
   </separator>
  </separator>
  <separator name="grids" >
   <i type="int" name="NGX">    48</i>
   <i type="int" name="NGY">    48</i>
   <i type="int" name="NGZ">    48</i>
   <i type="int" name="NGXF">    96</i>
   <i type="int" name="NGYF">    96</i>
   <i type="int" name="NGZF">    96</i>
   <i type="logical" name="ADDGRID"> T  </i>
  </separator>
  <separator name="ionic" >
   <i type="int" name="NSW">     0</i>
   <i type="int" name="IBRION">    -1</i>
   <i type="int" name="MDALGO">     0</i>
   <i type="int" name="ISIF">    -1</i>
   <i name="PSTRESS">      0.00000000</i>
   <i name="EDIFFG">      0.00000001</i>
   <i type="int" name="NFREE">     0</i>
   <i name="POTIM">      0.50000000</i>
   <i name="SMASS">     -3.00000000</i>
   <i name="SCALEE">      1.00000000</i>
  </separator>
  <separator name="ionic md" >
   <i name="TEBEG">      0.00010000</i>
   <i name="TEEND">      0.00010000</i>
   <i type="int" name="NBLOCK">     1</i>
   <i type="int" name="KBLOCK">     1</i>
   <i type="int" name="NPACO">   256</i>
   <i name="APACO">     16.00000000</i>
  </separator>
  <separator name="symmetry" >
   <i type="int" name="ISYM">     2</i>
   <i name="SYMPREC">      0.00001000</i>
  </separator>
  <separator name="dos" >
   <i type="int" name="LORBIT">     0</i>
   <v name="RWIGS">     -1.00000000     -1.00000000     -1.00000000</v>
   <i type="int" name="NEDOS">   301</i>
   <i name="EMIN">     10.00000000</i>
   <i name="EMAX">    -10.00000000</i>
   <i name="EFERMI">      0.00000000</i>
  </separator>
  <separator name="writing" >
   <i type="int" name="NWRITE">     2</i>
   <i type="logical" name="LWAVE"> T  </i>
   <i type="logical" name="LDOWNSAMPLE"> F  </i>
   <i type="logical" name="LCHARG"> T  </i>
   <i type="logical" name="LPARD"> F  </i>
   <i type="logical" name="LVTOT"> F  </i>
   <i type="logical" name="LVHAR"> F  </i>
   <i type="logical" name="LELF"> F  </i>
   <i type="logical" name="LOPTICS"> F  </i>
   <v name="STM">      0.00000000      0.00000000      0.00000000      0.00000000      0.00000000      0.00000000      0.00000000</v>
  </separator>
  <separator name="performance" >
   <i type="int" name="NPAR">     6</i>
   <i type="int" name="NSIM">     4</i>
   <i type="int" name="NBLK">    -1</i>
   <i type="logical" name="LPLANE"> T  </i>
   <i type="logical" name="LSCALAPACK"> T  </i>
   <i type="logical" name="LSCAAWARE"> F  </i>
   <i type="logical" name="LSCALU"> F  </i>
   <i type="logical" name="LASYNC"> F  </i>
   <i type="logical" name="LORBITALREAL"> F  </i>
  </separator>
  <separator name="miscellaneous" >
   <i type="int" name="IDIOT">     3</i>
   <i type="int" name="PHON_NSTRUCT">    -1</i>
   <i type="logical" name="LMUSIC"> F  </i>
   <v name="POMASS">     10.81100000     95.94000000     28.08500000</v>
   <v name="DARWINR">      0.00000000      0.00000000      0.00000000</v>
   <v name="DARWINV">      1.00000000      1.00000000      1.00000000</v>
   <i type="logical" name="LCORR"> T  </i>
  </separator>
  <i type="logical" name="GGA_COMPAT"> T  </i>
  <i type="logical" name="LBERRY"> F  </i>
  <i type="int" name="ICORELEVEL">     0</i>
  <i type="logical" name="LDAU"> F  </i>
  <i type="int" name="I_CONSTRAINED_M">     0</i>
  <separator name="electronic exchange-correlation" >
   <i type="string" name="GGA">--</i>
   <i type="int" name="VOSKOWN">     0</i>
   <i type="logical" name="LHFCALC"> F  </i>
   <i type="string" name="PRECFOCK"></i>
   <i type="logical" name="LSYMGRAD"> F  </i>
   <i type="logical" name="LHFONE"> F  </i>
   <i type="logical" name="LRHFCALC"> F  </i>
   <i type="logical" name="LTHOMAS"> F  </i>
   <i type="logical" name="LMODELHF"> F  </i>
   <i type="logical" name="LFOCKACE"> F  </i>
   <i name="ENCUT4O">     -1.00000000</i>
   <i type="int" name="EXXOEP">     0</i>
   <i type="int" name="FOURORBIT">     0</i>
   <i name="AEXX">      0.00000000</i>
   <i name="HFALPHA">      0.00000000</i>
   <i name="MCALPHA">      0.00000000</i>
   <i name="ALDAX">      1.00000000</i>
   <i name="AGGAX">      1.00000000</i>
   <i name="ALDAC">      1.00000000</i>
   <i name="AGGAC">      1.00000000</i>
   <i type="int" name="NKREDX">     1</i>
   <i type="int" name="NKREDY">     1</i>
   <i type="int" name="NKREDZ">     1</i>
   <i type="logical" name="SHIFTRED"> F  </i>
   <i type="logical" name="ODDONLY"> F  </i>
   <i type="logical" name="EVENONLY"> F  </i>
   <i type="int" name="LMAXFOCK">     0</i>
   <i type="int" name="NMAXFOCKAE">     0</i>
   <i type="logical" name="LFOCKAEDFT"> F  </i>
   <i name="HFSCREEN">      0.00000000</i>
   <i name="HFSCREENC">      0.00000000</i>
   <i type="int" name="NBANDSGWLOW">     0</i>
  </separator>
  <separator name="vdW DFT" >
   <i type="logical" name="LUSE_VDW"> F  </i>
   <i name="Zab_VDW">     -0.84910000</i>
   <i name="PARAM1">      0.12340000</i>
   <i name="PARAM2">      1.00000000</i>
   <i name="PARAM3">      0.00000000</i>
  </separator>
  <separator name="model GW" >
   <i type="int" name="MODEL_GW">     0</i>
   <i name="MODEL_EPS0">      7.40518649</i>
   <i name="MODEL_ALPHA">      1.00000000</i>
  </separator>
  <separator name="linear response parameters" >
   <i type="logical" name="LEPSILON"> F  </i>
   <i type="logical" name="LRPA"> F  </i>
   <i type="logical" name="LNABLA"> F  </i>
   <i type="logical" name="LVEL"> F  </i>
   <i type="int" name="KINTER">     0</i>
   <i name="CSHIFT">      0.10000000</i>
   <i name="OMEGAMAX">     -1.00000000</i>
   <i name="DEG_THRESHOLD">      0.00200000</i>
   <i name="RTIME">     -0.10000000</i>
   <i name="WPLASMAI">      0.00000000</i>
   <v name="DFIELD">      0.00000000      0.00000000      0.00000000</v>
   <v name="WPLASMA">      0.00000000      0.00000000      0.00000000      0.00000000      0.00000000      0.00000000      0.00000000      0.00000000      0.00000000</v>
  </separator>
  <separator name="orbital magnetization" >
   <i type="logical" name="NUCIND"> F  </i>
   <v name="MAGPOS">      0.00000000      0.00000000      0.00000000</v>
   <i type="logical" name="LNICSALL"> T  </i>
   <i type="logical" name="ORBITALMAG"> F  </i>
   <i type="logical" name="LMAGBLOCH"> F  </i>
   <i type="logical" name="LCHIMAG"> F  </i>
   <i type="logical" name="LGAUGE"> T  </i>
   <i type="int" name="MAGATOM">     0</i>
   <v name="MAGDIPOL">      0.00000000      0.00000000      0.00000000</v>
   <v name="AVECCONST">      0.00000000      0.00000000      0.00000000</v>
  </separator>
  <separator name="response functions" >
   <i type="logical" name="LFINITE_TEMPERATURE"> F  </i>
   <i type="logical" name="LADDER"> F  </i>
   <i type="logical" name="LRPAFORCE"> F  </i>
   <i type="logical" name="LFXC"> F  </i>
   <i type="logical" name="LHARTREE"> T  </i>
   <i type="int" name="IBSE">     0</i>
   <v type="int" name="KPOINT">    -1     0     0     0</v>
   <i type="logical" name="LTCTC"> F  </i>
   <i type="logical" name="LTCTE"> F  </i>
   <i type="logical" name="LTETE"> F  </i>
   <i type="logical" name="LTRIPLET"> F  </i>
   <i type="logical" name="LFXCEPS"> F  </i>
   <i type="logical" name="LFXHEG"> F  </i>
   <i type="int" name="NATURALO">     2</i>
   <i type="logical" name="LHOLEGF"> F  </i>
   <i type="logical" name="L2ORDER"> F  </i>
   <i type="logical" name="LDMP1"> F  </i>
   <i type="logical" name="LMP2LT"> F  </i>
   <i type="logical" name="LSMP2LT"> F  </i>
   <i type="logical" name="LGWLF"> F  </i>
   <i name="ENCUTGW">     -2.00000000</i>
   <i name="ENCUTGWSOFT">     -2.00000000</i>
   <i name="ENCUTLF">     -1.00000000</i>
   <i type="logical" name="LESF_SPLINES"> F  </i>
   <i type="int" name="LMAXMP2">    -1</i>
   <i name="SCISSOR">      0.00000000</i>
   <i type="int" name="NOMEGA">     0</i>
   <i type="int" name="NOMEGAR">     0</i>
   <i type="int" name="NBANDSGW">    -1</i>
   <i type="int" name="NBANDSO">    -1</i>
   <i type="int" name="NBANDSV">    -1</i>
   <i type="int" name="NELM">   100</i>
   <i type="int" name="NELMHF">     1</i>
   <i type="int" name="DIM">     3</i>
   <i type="int" name="IESPILON">     4</i>
   <i type="int" name="ANTIRES">     0</i>
   <i name="OMEGAMAX">    -30.00000000</i>
   <i name="OMEGAMIN">    -30.00000000</i>
   <i name="OMEGATL">   -200.00000000</i>
   <i type="int" name="OMEGAGRID">     0</i>
   <i name="CSHIFT">     -0.10000000</i>
   <i type="logical" name="LSELFENERGY"> F  </i>
   <i type="logical" name="LSPECTRAL"> F  </i>
   <i type="logical" name="LSPECTRALGW"> F  </i>
   <i type="logical" name="LSINGLES"> F  </i>
   <i type="logical" name="LFERMIGW"> F  </i>
   <i type="logical" name="ODDONLYGW"> F  </i>
   <i type="logical" name="EVENONLYGW"> F  </i>
   <i type="int" name="NKREDLFX">     1</i>
   <i type="int" name="NKREDLFY">     1</i>
   <i type="int" name="NKREDLFZ">     1</i>
   <i type="int" name="MAXMEM">  2800</i>
   <i type="int" name="TELESCOPE">     0</i>
   <i type="int" name="NTAUPAR">    -1</i>
   <i type="int" name="NOMEGAPAR">    -1</i>
   <i name="DAMP_NEWTON">      0.80000001</i>
   <i name="LAMBDA">      1.00000000</i>
  </separator>
  <separator name="External order field" >
   <i name="OFIELD_KAPPA">      0.00000000</i>
   <v name="OFIELD_K">      0.00000000      0.00000000      0.00000000</v>
   <i name="OFIELD_Q6_NEAR">      0.00000000</i>
   <i name="OFIELD_Q6_FAR">      0.00000000</i>
   <i name="OFIELD_A">      0.00000000</i>
  </separator>
 </parameters>
 <atominfo>
  <atoms>      10 </atoms>
  <types>       3 </types>
  <array name="atoms" >
   <dimension dim="1">ion</dimension>
   <field type="string">element</field>
   <field type="int">atomtype</field>
   <set>
    <rc><c>B </c><c>   1</c></rc>
    <rc><c>B </c><c>   1</c></rc>
    <rc><c>Mo</c><c>   2</c></rc>
    <rc><c>Mo</c><c>   2</c></rc>
    <rc><c>Mo</c><c>   2</c></rc>
    <rc><c>Mo</c><c>   2</c></rc>
    <rc><c>Mo</c><c>   2</c></rc>
    <rc><c>Mo</c><c>   2</c></rc>
    <rc><c>Si</c><c>   3</c></rc>
    <rc><c>Si</c><c>   3</c></rc>
   </set>
  </array>
  <array name="atomtypes" >
   <dimension dim="1">type</dimension>
   <field type="int">atomspertype</field>
   <field type="string">element</field>
   <field>mass</field>
   <field>valence</field>
   <field type="string">pseudopotential</field>
   <set>
    <rc><c>   2</c><c>B </c><c>     10.81100000</c><c>      3.00000000</c><c>  PAW_PBE B 06Sep2000                   </c></rc>
    <rc><c>   6</c><c>Mo</c><c>     95.94000000</c><c>     14.00000000</c><c>  PAW_PBE Mo_sv 02Feb2006               </c></rc>
    <rc><c>   2</c><c>Si</c><c>     28.08500000</c><c>      4.00000000</c><c>  PAW_PBE Si 05Jan2001                  </c></rc>
   </set>
  </array>
 </atominfo>
 <structure name="initialpos" >
  <crystal>
   <varray name="basis" >
    <v>       4.82802163       0.00000000      -2.84221980 </v>
    <v>      -1.57811083       4.56282358      -2.84221980 </v>
    <v>       0.00000000       0.00000000       5.60250000 </v>
   </varray>
   <i name="volume">    123.41977482 </i>
   <varray name="rec_basis" >
    <v>       0.20712418       0.07163654       0.00000000 </v>
    <v>       0.00000000       0.21916254       0.00000000 </v>
    <v>       0.10507674       0.14752609       0.17849174 </v>
   </varray>
  </crystal>
  <varray name="positions" >
   <v>       0.50000000       0.00000000       0.50000000 </v>
   <v>       0.00000000       0.50000000       0.50000000 </v>
   <v>       0.25000000       0.25000000       0.00000000 </v>
   <v>       0.74265000       0.24265000       0.98530000 </v>
   <v>       0.75000000       0.75000000       0.00000000 </v>
   <v>       0.25735000       0.75735000       0.01470000 </v>
   <v>       0.24265000       0.25735000       0.50000000 </v>
   <v>       0.75735000       0.74265000       0.50000000 </v>
   <v>       0.25000000       0.75000000       0.50000000 </v>
   <v>       0.75000000       0.25000000       0.50000000 </v>
  </varray>
 </structure>
 <calculation>
  <scstep>
   <time name="total">   22.92   23.13</time>
   <energy>
    <i name="alphaZ">    676.91296449 </i>
    <i name="ewald">  -9851.98717812 </i>
    <i name="hartreedc">  -2153.69696318 </i>
    <i name="XCdc">    472.90287073 </i>
    <i name="pawpsdc">   9166.97638771 </i>
    <i name="pawaedc">  -9126.13493418 </i>
    <i name="eentropy">     -0.00053455 </i>
    <i name="bandstr">    397.22474367 </i>
    <i name="atom">  11522.16744521 </i>
    <i name="e_fr_energy">   1104.36480179 </i>
    <i name="e_wo_entrp">   1104.36533634 </i>
    <i name="e_0_energy">   1104.36506906 </i>
   </energy>
  </scstep>
  <scstep>
   <time name="total">   23.02   23.23</time>
   <energy>
    <i name="e_fr_energy">   -175.94158739 </i>
    <i name="e_wo_entrp">   -175.94031891 </i>
    <i name="e_0_energy">   -175.94095315 </i>
   </energy>
  </scstep>
  <scstep>
   <time name="total">   25.33   25.54</time>
   <energy>
    <i name="e_fr_energy">   -227.85803515 </i>
    <i name="e_wo_entrp">   -227.85714189 </i>
    <i name="e_0_energy">   -227.85758852 </i>
   </energy>
  </scstep>
  <scstep>
   <time name="total">   24.08   24.29</time>
   <energy>
    <i name="e_fr_energy">   -228.76951881 </i>
    <i name="e_wo_entrp">   -228.76870142 </i>
    <i name="e_0_energy">   -228.76911011 </i>
   </energy>
  </scstep>
  <scstep>
   <time name="total">   27.01   27.24</time>
   <energy>
    <i name="e_fr_energy">   -228.79000564 </i>
    <i name="e_wo_entrp">   -228.78918991 </i>
    <i name="e_0_energy">   -228.78959778 </i>
   </energy>
  </scstep>
  <scstep>
   <time name="total">   26.09   26.30</time>
   <energy>
    <i name="e_fr_energy">   -150.19639792 </i>
    <i name="e_wo_entrp">   -150.19512957 </i>
    <i name="e_0_energy">   -150.19576375 </i>
   </energy>
  </scstep>
  <scstep>
   <time name="total">   26.17   26.37</time>
   <energy>
    <i name="e_fr_energy">   -175.94909465 </i>
    <i name="e_wo_entrp">   -175.94788400 </i>
    <i name="e_0_energy">   -175.94848933 </i>
   </energy>
  </scstep>
  <scstep>
   <time name="total">   26.20   26.40</time>
   <energy>
    <i name="e_fr_energy">   -180.31743873 </i>
    <i name="e_wo_entrp">   -180.31606453 </i>
    <i name="e_0_energy">   -180.31675163 </i>
   </energy>
  </scstep>
  <scstep>
   <time name="total">   25.98   26.18</time>
   <energy>
    <i name="e_fr_energy">   -181.24234575 </i>
    <i name="e_wo_entrp">   -181.24080591 </i>
    <i name="e_0_energy">   -181.24157583 </i>
   </energy>
  </scstep>
  <scstep>
   <time name="total">   26.25   26.45</time>
   <energy>
    <i name="e_fr_energy">   -181.53487136 </i>
    <i name="e_wo_entrp">   -181.53334426 </i>
    <i name="e_0_energy">   -181.53410781 </i>
   </energy>
  </scstep>
  <scstep>
   <time name="total">   26.14   26.35</time>
   <energy>
    <i name="e_fr_energy">   -181.64189272 </i>
    <i name="e_wo_entrp">   -181.64032912 </i>
    <i name="e_0_energy">   -181.64111092 </i>
   </energy>
  </scstep>
  <scstep>
   <time name="total">   25.77   25.97</time>
   <energy>
    <i name="e_fr_energy">   -181.69383675 </i>
    <i name="e_wo_entrp">   -181.69220685 </i>
    <i name="e_0_energy">   -181.69302180 </i>
   </energy>
  </scstep>
  <scstep>
   <time name="total">   26.50   26.71</time>
   <energy>
    <i name="e_fr_energy">   -181.71469236 </i>
    <i name="e_wo_entrp">   -181.71309104 </i>
    <i name="e_0_energy">   -181.71389170 </i>
   </energy>
  </scstep>
  <scstep>
   <time name="total">   26.29   26.49</time>
   <energy>
    <i name="e_fr_energy">   -181.72462034 </i>
    <i name="e_wo_entrp">   -181.72306173 </i>
    <i name="e_0_energy">   -181.72384103 </i>
   </energy>
  </scstep>
  <scstep>
   <time name="total">   25.51   25.72</time>
   <energy>
    <i name="e_fr_energy">   -181.72853318 </i>
    <i name="e_wo_entrp">   -181.72700163 </i>
    <i name="e_0_energy">   -181.72776741 </i>
   </energy>
  </scstep>
  <scstep>
   <time name="total">   25.93   26.14</time>
   <energy>
    <i name="e_fr_energy">   -181.72999145 </i>
    <i name="e_wo_entrp">   -181.72847021 </i>
    <i name="e_0_energy">   -181.72923083 </i>
   </energy>
  </scstep>
  <scstep>
   <time name="total">   26.44   26.64</time>
   <energy>
    <i name="e_fr_energy">   -181.73051511 </i>
    <i name="e_wo_entrp">   -181.72899547 </i>
    <i name="e_0_energy">   -181.72975529 </i>
   </energy>
  </scstep>
  <scstep>
   <time name="total">   26.36   26.56</time>
   <energy>
    <i name="e_fr_energy">   -181.73072464 </i>
    <i name="e_wo_entrp">   -181.72920377 </i>
    <i name="e_0_energy">   -181.72996420 </i>
   </energy>
  </scstep>
  <scstep>
   <time name="total">   26.00   26.21</time>
   <energy>
    <i name="e_fr_energy">   -181.73084977 </i>
    <i name="e_wo_entrp">   -181.72932506 </i>
    <i name="e_0_energy">   -181.73008741 </i>
   </energy>
  </scstep>
  <scstep>
   <time name="total">   26.06   26.26</time>
   <energy>
    <i name="e_fr_energy">   -181.73090070 </i>
    <i name="e_wo_entrp">   -181.72937295 </i>
    <i name="e_0_energy">   -181.73013683 </i>
   </energy>
  </scstep>
  <scstep>
   <time name="total">   26.35   26.55</time>
   <energy>
    <i name="e_fr_energy">   -181.73091931 </i>
    <i name="e_wo_entrp">   -181.72938992 </i>
    <i name="e_0_energy">   -181.73015461 </i>
   </energy>
  </scstep>
  <scstep>
   <time name="total">   26.43   26.63</time>
   <energy>
    <i name="e_fr_energy">   -181.73092558 </i>
    <i name="e_wo_entrp">   -181.72939508 </i>
    <i name="e_0_energy">   -181.73016033 </i>
   </energy>
  </scstep>
  <scstep>
   <time name="total">   26.16   26.36</time>
   <energy>
    <i name="e_fr_energy">   -181.73092980 </i>
    <i name="e_wo_entrp">   -181.72939890 </i>
    <i name="e_0_energy">   -181.73016435 </i>
   </energy>
  </scstep>
  <scstep>
   <time name="total">   26.02   26.22</time>
   <energy>
    <i name="e_fr_energy">   -181.73093139 </i>
    <i name="e_wo_entrp">   -181.72940046 </i>
    <i name="e_0_energy">   -181.73016592 </i>
   </energy>
  </scstep>
  <scstep>
   <time name="total">   26.26   26.54</time>
   <energy>
    <i name="e_fr_energy">   -181.73093193 </i>
    <i name="e_wo_entrp">   -181.72940103 </i>
    <i name="e_0_energy">   -181.73016648 </i>
   </energy>
  </scstep>
  <scstep>
   <time name="total">   25.85   26.05</time>
   <energy>
    <i name="e_fr_energy">   -181.73093217 </i>
    <i name="e_wo_entrp">   -181.72940135 </i>
    <i name="e_0_energy">   -181.73016676 </i>
   </energy>
  </scstep>
  <scstep>
   <time name="total">   26.04   26.25</time>
   <energy>
    <i name="e_fr_energy">   -181.73093227 </i>
    <i name="e_wo_entrp">   -181.72940156 </i>
    <i name="e_0_energy">   -181.73016692 </i>
   </energy>
  </scstep>
  <scstep>
   <time name="total">   25.58   25.77</time>
   <energy>
    <i name="e_fr_energy">   -181.73093233 </i>
    <i name="e_wo_entrp">   -181.72940162 </i>
    <i name="e_0_energy">   -181.73016697 </i>
   </energy>
  </scstep>
  <scstep>
   <time name="total">   25.72   25.92</time>
   <energy>
    <i name="e_fr_energy">   -181.73093236 </i>
    <i name="e_wo_entrp">   -181.72940163 </i>
    <i name="e_0_energy">   -181.73016699 </i>
   </energy>
  </scstep>
  <scstep>
   <time name="total">   25.28   25.50</time>
   <energy>
    <i name="e_fr_energy">   -181.73093237 </i>
    <i name="e_wo_entrp">   -181.72940164 </i>
    <i name="e_0_energy">   -181.73016700 </i>
   </energy>
  </scstep>
  <scstep>
   <time name="total">   26.10   26.30</time>
   <energy>
    <i name="e_fr_energy">   -181.73093238 </i>
    <i name="e_wo_entrp">   -181.72940164 </i>
    <i name="e_0_energy">   -181.73016701 </i>
   </energy>
  </scstep>
  <scstep>
   <time name="total">   26.07   26.27</time>
   <energy>
    <i name="e_fr_energy">   -181.73093239 </i>
    <i name="e_wo_entrp">   -181.72940164 </i>
    <i name="e_0_energy">   -181.73016701 </i>
   </energy>
  </scstep>
  <scstep>
   <time name="total">   26.08   26.29</time>
   <energy>
    <i name="e_fr_energy">   -181.73093239 </i>
    <i name="e_wo_entrp">   -181.72940165 </i>
    <i name="e_0_energy">   -181.73016702 </i>
   </energy>
  </scstep>
  <scstep>
   <time name="total">   25.87   26.08</time>
   <energy>
    <i name="e_fr_energy">   -181.73093239 </i>
    <i name="e_wo_entrp">   -181.72940165 </i>
    <i name="e_0_energy">   -181.73016702 </i>
   </energy>
  </scstep>
  <scstep>
   <time name="total">   25.16   25.35</time>
   <energy>
    <i name="e_fr_energy">   -181.73093239 </i>
    <i name="e_wo_entrp">   -181.72940166 </i>
    <i name="e_0_energy">   -181.73016702 </i>
   </energy>
  </scstep>
  <scstep>
   <time name="total">   26.50   26.71</time>
   <energy>
    <i name="e_fr_energy">   -181.73093239 </i>
    <i name="e_wo_entrp">   -181.72940166 </i>
    <i name="e_0_energy">   -181.73016702 </i>
   </energy>
  </scstep>
  <scstep>
   <time name="total">   29.21   29.44</time>
   <energy>
    <i name="alphaZ">    676.91296449 </i>
    <i name="ewald">  -9851.98717812 </i>
    <i name="hartreedc">  -2021.07073389 </i>
    <i name="XCdc">    482.50497031 </i>
    <i name="pawpsdc">  13640.78130841 </i>
    <i name="pawaedc"> -13621.63843336 </i>
    <i name="eentropy">     -0.00153073 </i>
    <i name="bandstr">  -1009.39974472 </i>
    <i name="atom">  11522.16744521 </i>
    <i name="e_fr_energy">   -181.73093239 </i>
    <i name="e_wo_entrp">   -181.72940166 </i>
    <i name="e_0_energy">   -181.73016703 </i>
   </energy>
  </scstep>
  <structure>
   <crystal>
    <varray name="basis" >
     <v>       4.82802163       0.00000000      -2.84221980 </v>
     <v>      -1.57811083       4.56282358      -2.84221980 </v>
     <v>       0.00000000       0.00000000       5.60250000 </v>
    </varray>
    <i name="volume">    123.41977482 </i>
    <varray name="rec_basis" >
     <v>       0.20712418       0.07163654       0.00000000 </v>
     <v>       0.00000000       0.21916254       0.00000000 </v>
     <v>       0.10507674       0.14752609       0.17849174 </v>
    </varray>
   </crystal>
   <varray name="positions" >
    <v>       0.50000000       0.00000000       0.50000000 </v>
    <v>       0.00000000       0.50000000       0.50000000 </v>
    <v>       0.25000000       0.25000000       0.00000000 </v>
    <v>       0.74265000       0.24265000       0.98530000 </v>
    <v>       0.75000000       0.75000000       0.00000000 </v>
    <v>       0.25735000       0.75735000       0.01470000 </v>
    <v>       0.24265000       0.25735000       0.50000000 </v>
    <v>       0.75735000       0.74265000       0.50000000 </v>
    <v>       0.25000000       0.75000000       0.50000000 </v>
    <v>       0.75000000       0.25000000       0.50000000 </v>
   </varray>
  </structure>
  <varray name="forces" >
   <v>       0.00000000       0.00000000       0.00000000 </v>
   <v>       0.00000000       0.00000000       0.00000000 </v>
   <v>       0.00000000       0.00000000       0.00000000 </v>
   <v>       0.00000000       0.00000000       0.00000000 </v>
   <v>       0.00000000       0.00000000       0.00000000 </v>
   <v>       0.00000000       0.00000000       0.00000000 </v>
   <v>       0.00000000       0.00000000       0.00000000 </v>
   <v>       0.00000000       0.00000000       0.00000000 </v>
   <v>       0.00000000       0.00000000       0.00000000 </v>
   <v>       0.00000000       0.00000000       0.00000000 </v>
  </varray>
  <varray name="stress" >
   <v>       0.00000000       0.00000000       0.00000000 </v>
   <v>       0.00000000       0.00000000       0.00000000 </v>
   <v>       0.00000000       0.00000000       0.00000000 </v>
  </varray>
  <energy>
   <i name="e_fr_energy">   -181.73093239 </i>
   <i name="e_wo_entrp">   -181.72940166 </i>
   <i name="e_0_energy">   -181.73016703 </i>
  </energy>
  <time name="totalsc">  962.12  969.86</time>
  <eigenvalues>
   <array>
    <dimension dim="1">band</dimension>
    <dimension dim="2">kpoint</dimension>
    <dimension dim="3">spin</dimension>
    <field>eigene</field>
    <field>occ</field>
    <set>
     <set comment="spin 1">
      <set comment="kpoint 1">
       <r>  -50.0236    1.0000 </r>
       <r>  -49.8883    1.0000 </r>
       <r>  -49.7801    1.0000 </r>
       <r>  -49.7801    1.0000 </r>
       <r>  -49.7576    1.0000 </r>
       <r>  -49.6699    1.0000 </r>
       <r>  -24.2050    1.0000 </r>
       <r>  -24.0915    1.0000 </r>
       <r>  -23.9467    1.0000 </r>
       <r>  -23.9467    1.0000 </r>
       <r>  -23.8835    1.0000 </r>
       <r>  -23.7673    1.0000 </r>
       <r>  -23.7673    1.0000 </r>
       <r>  -23.3139    1.0000 </r>
       <r>  -23.3139    1.0000 </r>
       <r>  -23.1829    1.0000 </r>
       <r>  -23.0014    1.0000 </r>
       <r>  -22.8475    1.0000 </r>
       <r>  -22.8475    1.0000 </r>
       <r>  -22.8389    1.0000 </r>
       <r>  -22.7981    1.0000 </r>
       <r>  -22.6887    1.0000 </r>
       <r>  -22.6887    1.0000 </r>
       <r>  -22.5734    1.0000 </r>
       <r>   -0.5478    1.0000 </r>
       <r>    1.4104    1.0000 </r>
       <r>    5.1588    1.0000 </r>
       <r>    5.2775    1.0000 </r>
       <r>    5.9597    1.0000 </r>
       <r>    5.9597    1.0000 </r>
       <r>    6.8038    1.0000 </r>
       <r>    7.2348    1.0000 </r>
       <r>    8.1892    1.0000 </r>
       <r>    8.2690    1.0000 </r>
       <r>    8.4082    1.0000 </r>
       <r>    8.4082    1.0000 </r>
       <r>    8.4207    1.0000 </r>
       <r>    9.4209    1.0000 </r>
       <r>    9.4209    1.0000 </r>
       <r>    9.6136    1.0000 </r>
       <r>    9.6136    1.0000 </r>
       <r>   10.5795    1.0000 </r>
       <r>   10.5795    1.0000 </r>
       <r>   11.6694    1.0000 </r>
       <r>   12.4471    1.0000 </r>
       <r>   12.4471    1.0000 </r>
       <r>   12.4957    1.0000 </r>
       <r>   12.7784    1.0000 </r>
       <r>   12.7784    1.0000 </r>
       <r>   12.9941    0.4110 </r>
       <r>   13.0919    0.0000 </r>
       <r>   13.9520    0.0000 </r>
       <r>   14.1920    0.0000 </r>
       <r>   14.7639    0.0000 </r>
       <r>   15.3814    0.0000 </r>
       <r>   15.5560    0.0000 </r>
       <r>   16.2516    0.0000 </r>
       <r>   16.5126    0.0000 </r>
       <r>   16.9416    0.0000 </r>
       <r>   17.3618    0.0000 </r>
      </set>
      <set comment="kpoint 2">
       <r>  -50.0165    1.0000 </r>
       <r>  -49.8887    1.0000 </r>
       <r>  -49.7841    1.0000 </r>
       <r>  -49.7760    1.0000 </r>
       <r>  -49.7605    1.0000 </r>
       <r>  -49.6741    1.0000 </r>
       <r>  -24.1850    1.0000 </r>
       <r>  -24.0582    1.0000 </r>
       <r>  -23.9479    1.0000 </r>
       <r>  -23.9102    1.0000 </r>
       <r>  -23.8617    1.0000 </r>
       <r>  -23.7516    1.0000 </r>
       <r>  -23.7479    1.0000 </r>
       <r>  -23.3251    1.0000 </r>
       <r>  -23.3111    1.0000 </r>
       <r>  -23.1865    1.0000 </r>
       <r>  -23.0267    1.0000 </r>
       <r>  -22.8728    1.0000 </r>
       <r>  -22.8643    1.0000 </r>
       <r>  -22.8605    1.0000 </r>
       <r>  -22.8093    1.0000 </r>
       <r>  -22.7216    1.0000 </r>
       <r>  -22.6918    1.0000 </r>
       <r>  -22.5917    1.0000 </r>
       <r>   -0.4233    1.0000 </r>
       <r>    1.4845    1.0000 </r>
       <r>    4.6387    1.0000 </r>
       <r>    5.2047    1.0000 </r>
       <r>    6.1031    1.0000 </r>
       <r>    6.4534    1.0000 </r>
       <r>    6.8423    1.0000 </r>
       <r>    7.2001    1.0000 </r>
       <r>    8.1753    1.0000 </r>
       <r>    8.1981    1.0000 </r>
       <r>    8.3946    1.0000 </r>
       <r>    8.5118    1.0000 </r>
       <r>    8.7024    1.0000 </r>
       <r>    9.3711    1.0000 </r>
       <r>    9.3723    1.0000 </r>
       <r>    9.5900    1.0000 </r>
       <r>    9.6624    1.0000 </r>
       <r>   10.4111    1.0000 </r>
       <r>   10.4618    1.0000 </r>
       <r>   11.6851    1.0000 </r>
       <r>   12.3162    1.0000 </r>
       <r>   12.4925    1.0000 </r>
       <r>   12.5538    1.0000 </r>
       <r>   12.8102    1.0000 </r>
       <r>   12.8358    1.0000 </r>
       <r>   13.0346    0.0010 </r>
       <r>   13.1117    0.0000 </r>
       <r>   13.9731    0.0000 </r>
       <r>   14.0703    0.0000 </r>
       <r>   14.5311    0.0000 </r>
       <r>   15.2856    0.0000 </r>
       <r>   15.6771    0.0000 </r>
       <r>   15.9812    0.0000 </r>
       <r>   16.2344    0.0000 </r>
       <r>   16.3087    0.0000 </r>
       <r>   16.9437    0.0000 </r>
      </set>
      <set comment="kpoint 3">
       <r>  -49.9966    1.0000 </r>
       <r>  -49.8928    1.0000 </r>
       <r>  -49.7926    1.0000 </r>
       <r>  -49.7687    1.0000 </r>
       <r>  -49.7642    1.0000 </r>
       <r>  -49.6862    1.0000 </r>
       <r>  -24.1370    1.0000 </r>
       <r>  -23.9645    1.0000 </r>
       <r>  -23.9612    1.0000 </r>
       <r>  -23.8080    1.0000 </r>
       <r>  -23.7998    1.0000 </r>
       <r>  -23.6958    1.0000 </r>
       <r>  -23.6935    1.0000 </r>
       <r>  -23.3490    1.0000 </r>
       <r>  -23.3231    1.0000 </r>
       <r>  -23.1775    1.0000 </r>
       <r>  -23.1060    1.0000 </r>
       <r>  -22.9660    1.0000 </r>
       <r>  -22.9624    1.0000 </r>
       <r>  -22.9093    1.0000 </r>
       <r>  -22.8171    1.0000 </r>
       <r>  -22.7748    1.0000 </r>
       <r>  -22.6977    1.0000 </r>
       <r>  -22.6321    1.0000 </r>
       <r>   -0.0655    1.0000 </r>
       <r>    1.6348    1.0000 </r>
       <r>    3.9593    1.0000 </r>
       <r>    4.9412    1.0000 </r>
       <r>    6.5072    1.0000 </r>
       <r>    6.7955    1.0000 </r>
       <r>    7.0362    1.0000 </r>
       <r>    7.4788    1.0000 </r>
       <r>    7.9563    1.0000 </r>
       <r>    8.1291    1.0000 </r>
       <r>    8.3186    1.0000 </r>
       <r>    8.7817    1.0000 </r>
       <r>    9.1880    1.0000 </r>
       <r>    9.3298    1.0000 </r>
       <r>    9.4580    1.0000 </r>
       <r>    9.5433    1.0000 </r>
       <r>    9.8682    1.0000 </r>
       <r>   10.1473    1.0000 </r>
       <r>   10.2079    1.0000 </r>
       <r>   11.6917    1.0000 </r>
       <r>   11.8094    1.0000 </r>
       <r>   12.4505    1.0000 </r>
       <r>   12.6760    1.0000 </r>
       <r>   12.7439    1.0000 </r>
       <r>   12.7972    1.0000 </r>
       <r>   13.1150    0.0000 </r>
       <r>   13.2242    0.0000 </r>
       <r>   13.9040    0.0000 </r>
       <r>   14.0723    0.0000 </r>
       <r>   14.2652    0.0000 </r>
       <r>   14.9787    0.0000 </r>
       <r>   15.3217    0.0000 </r>
       <r>   15.6184    0.0000 </r>
       <r>   15.7847    0.0000 </r>
       <r>   16.3155    0.0000 </r>
       <r>   16.4372    0.0000 </r>
      </set>
      <set comment="kpoint 4">
       <r>  -49.9673    1.0000 </r>
       <r>  -49.9077    1.0000 </r>
       <r>  -49.7965    1.0000 </r>
       <r>  -49.7801    1.0000 </r>
       <r>  -49.7464    1.0000 </r>
       <r>  -49.7043    1.0000 </r>
       <r>  -24.0804    1.0000 </r>
       <r>  -23.9885    1.0000 </r>
       <r>  -23.8484    1.0000 </r>
       <r>  -23.7444    1.0000 </r>
       <r>  -23.6651    1.0000 </r>
       <r>  -23.6181    1.0000 </r>
       <r>  -23.5741    1.0000 </r>
       <r>  -23.3687    1.0000 </r>
       <r>  -23.3448    1.0000 </r>
       <r>  -23.2375    1.0000 </r>
       <r>  -23.1511    1.0000 </r>
       <r>  -23.1306    1.0000 </r>
       <r>  -23.1066    1.0000 </r>
       <r>  -22.9798    1.0000 </r>
       <r>  -22.8180    1.0000 </r>
       <r>  -22.8018    1.0000 </r>
       <r>  -22.6992    1.0000 </r>
       <r>  -22.6686    1.0000 </r>
       <r>    0.4764    1.0000 </r>
       <r>    1.5775    1.0000 </r>
       <r>    3.6518    1.0000 </r>
       <r>    4.4673    1.0000 </r>
       <r>    6.7924    1.0000 </r>
       <r>    7.0845    1.0000 </r>
       <r>    7.1326    1.0000 </r>
       <r>    7.8436    1.0000 </r>
       <r>    7.9430    1.0000 </r>
       <r>    8.2009    1.0000 </r>
       <r>    8.2133    1.0000 </r>
       <r>    9.0785    1.0000 </r>
       <r>    9.1323    1.0000 </r>
       <r>    9.2327    1.0000 </r>
       <r>    9.6769    1.0000 </r>
       <r>    9.9208    1.0000 </r>
       <r>    9.9802    1.0000 </r>
       <r>    9.9870    1.0000 </r>
       <r>   10.2563    1.0000 </r>
       <r>   11.1063    1.0000 </r>
       <r>   11.7995    1.0000 </r>
       <r>   12.3117    1.0000 </r>
       <r>   12.4276    1.0000 </r>
       <r>   12.5319    1.0000 </r>
       <r>   13.0427    0.0001 </r>
       <r>   13.1352    0.0000 </r>
       <r>   13.3323    0.0000 </r>
       <r>   13.8665    0.0000 </r>
       <r>   13.9590    0.0000 </r>
       <r>   14.0583    0.0000 </r>
       <r>   14.3710    0.0000 </r>
       <r>   14.6153    0.0000 </r>
       <r>   15.1018    0.0000 </r>
       <r>   15.1960    0.0000 </r>
       <r>   16.5385    0.0000 </r>
       <r>   16.5780    0.0000 </r>
      </set>
      <set comment="kpoint 5">
       <r>  -49.9350    1.0000 </r>
       <r>  -49.9350    1.0000 </r>
       <r>  -49.7910    1.0000 </r>
       <r>  -49.7910    1.0000 </r>
       <r>  -49.7254    1.0000 </r>
       <r>  -49.7254    1.0000 </r>
       <r>  -24.0287    1.0000 </r>
       <r>  -24.0287    1.0000 </r>
       <r>  -23.7629    1.0000 </r>
       <r>  -23.7629    1.0000 </r>
       <r>  -23.5676    1.0000 </r>
       <r>  -23.5676    1.0000 </r>
       <r>  -23.3914    1.0000 </r>
       <r>  -23.3914    1.0000 </r>
       <r>  -23.3594    1.0000 </r>
       <r>  -23.3594    1.0000 </r>
       <r>  -23.2501    1.0000 </r>
       <r>  -23.2501    1.0000 </r>
       <r>  -23.0588    1.0000 </r>
       <r>  -23.0588    1.0000 </r>
       <r>  -22.8138    1.0000 </r>
       <r>  -22.8138    1.0000 </r>
       <r>  -22.6907    1.0000 </r>
       <r>  -22.6907    1.0000 </r>
       <r>    1.1002    1.0000 </r>
       <r>    1.1002    1.0000 </r>
       <r>    3.9305    1.0000 </r>
       <r>    3.9305    1.0000 </r>
       <r>    6.9190    1.0000 </r>
       <r>    6.9190    1.0000 </r>
       <r>    7.6296    1.0000 </r>
       <r>    7.6296    1.0000 </r>
       <r>    8.1001    1.0000 </r>
       <r>    8.1001    1.0000 </r>
       <r>    8.7285    1.0000 </r>
       <r>    8.7285    1.0000 </r>
       <r>    9.2020    1.0000 </r>
       <r>    9.2020    1.0000 </r>
       <r>    9.6691    1.0000 </r>
       <r>    9.6691    1.0000 </r>
       <r>   10.3071    1.0000 </r>
       <r>   10.3071    1.0000 </r>
       <r>   10.5023    1.0000 </r>
       <r>   10.5023    1.0000 </r>
       <r>   12.1710    1.0000 </r>
       <r>   12.1710    1.0000 </r>
       <r>   12.2839    1.0000 </r>
       <r>   12.2839    1.0000 </r>
       <r>   13.0696    0.0000 </r>
       <r>   13.0696    0.0000 </r>
       <r>   13.5837    0.0000 </r>
       <r>   13.5837    0.0000 </r>
       <r>   14.0138    0.0000 </r>
       <r>   14.0138    0.0000 </r>
       <r>   14.0903    0.0000 </r>
       <r>   14.0903    0.0000 </r>
       <r>   14.9662    0.0000 </r>
       <r>   14.9662    0.0000 </r>
       <r>   16.9244    0.0000 </r>
       <r>   16.9999    0.0000 </r>
      </set>
      <set comment="kpoint 6">
       <r>  -50.0049    1.0000 </r>
       <r>  -49.8904    1.0000 </r>
       <r>  -49.7802    1.0000 </r>
       <r>  -49.7787    1.0000 </r>
       <r>  -49.7683    1.0000 </r>
       <r>  -49.6782    1.0000 </r>
       <r>  -24.1633    1.0000 </r>
       <r>  -24.0101    1.0000 </r>
       <r>  -23.9155    1.0000 </r>
       <r>  -23.9043    1.0000 </r>
       <r>  -23.8172    1.0000 </r>
       <r>  -23.7335    1.0000 </r>
       <r>  -23.6943    1.0000 </r>
       <r>  -23.3257    1.0000 </r>
       <r>  -23.3250    1.0000 </r>
       <r>  -23.1829    1.0000 </r>
       <r>  -23.0512    1.0000 </r>
       <r>  -22.9441    1.0000 </r>
       <r>  -22.9160    1.0000 </r>
       <r>  -22.8824    1.0000 </r>
       <r>  -22.8273    1.0000 </r>
       <r>  -22.7284    1.0000 </r>
       <r>  -22.7244    1.0000 </r>
       <r>  -22.6083    1.0000 </r>
       <r>   -0.2324    1.0000 </r>
       <r>    1.5831    1.0000 </r>
       <r>    4.4131    1.0000 </r>
       <r>    4.8728    1.0000 </r>
       <r>    6.0259    1.0000 </r>
       <r>    6.7788    1.0000 </r>
       <r>    6.9199    1.0000 </r>
       <r>    7.4613    1.0000 </r>
       <r>    8.1018    1.0000 </r>
       <r>    8.2246    1.0000 </r>
       <r>    8.4535    1.0000 </r>
       <r>    8.6128    1.0000 </r>
       <r>    9.0341    1.0000 </r>
       <r>    9.1343    1.0000 </r>
       <r>    9.4175    1.0000 </r>
       <r>    9.7089    1.0000 </r>
       <r>    9.7152    1.0000 </r>
       <r>   10.2049    1.0000 </r>
       <r>   10.4638    1.0000 </r>
       <r>   11.7688    1.0000 </r>
       <r>   12.2363    1.0000 </r>
       <r>   12.2677    1.0000 </r>
       <r>   12.6626    1.0000 </r>
       <r>   12.6934    1.0000 </r>
       <r>   12.9613    0.9818 </r>
       <r>   12.9991    0.2817 </r>
       <r>   13.0744    0.0000 </r>
       <r>   14.0333    0.0000 </r>
       <r>   14.0703    0.0000 </r>
       <r>   14.3173    0.0000 </r>
       <r>   15.0284    0.0000 </r>
       <r>   15.6575    0.0000 </r>
       <r>   15.8988    0.0000 </r>
       <r>   16.1504    0.0000 </r>
       <r>   16.3431    0.0000 </r>
       <r>   16.6080    0.0000 </r>
      </set>
      <set comment="kpoint 7">
       <r>  -49.9815    1.0000 </r>
       <r>  -49.8979    1.0000 </r>
       <r>  -49.7857    1.0000 </r>
       <r>  -49.7801    1.0000 </r>
       <r>  -49.7667    1.0000 </r>
       <r>  -49.6899    1.0000 </r>
       <r>  -24.1102    1.0000 </r>
       <r>  -23.9293    1.0000 </r>
       <r>  -23.9162    1.0000 </r>
       <r>  -23.8096    1.0000 </r>
       <r>  -23.7397    1.0000 </r>
       <r>  -23.6809    1.0000 </r>
       <r>  -23.6000    1.0000 </r>
       <r>  -23.3639    1.0000 </r>
       <r>  -23.3387    1.0000 </r>
       <r>  -23.1519    1.0000 </r>
       <r>  -23.1286    1.0000 </r>
       <r>  -23.0704    1.0000 </r>
       <r>  -23.0374    1.0000 </r>
       <r>  -22.9355    1.0000 </r>
       <r>  -22.8383    1.0000 </r>
       <r>  -22.7754    1.0000 </r>
       <r>  -22.7324    1.0000 </r>
       <r>  -22.6460    1.0000 </r>
       <r>    0.1789    1.0000 </r>
       <r>    1.6797    1.0000 </r>
       <r>    4.0373    1.0000 </r>
       <r>    4.4607    1.0000 </r>
       <r>    6.2248    1.0000 </r>
       <r>    6.9545    1.0000 </r>
       <r>    7.1945    1.0000 </r>
       <r>    7.8070    1.0000 </r>
       <r>    7.9239    1.0000 </r>
       <r>    8.1669    1.0000 </r>
       <r>    8.4278    1.0000 </r>
       <r>    8.9265    1.0000 </r>
       <r>    8.9646    1.0000 </r>
       <r>    9.3869    1.0000 </r>
       <r>    9.6675    1.0000 </r>
       <r>    9.7890    1.0000 </r>
       <r>    9.9476    1.0000 </r>
       <r>   10.0554    1.0000 </r>
       <r>   10.2595    1.0000 </r>
       <r>   11.4553    1.0000 </r>
       <r>   11.9423    1.0000 </r>
       <r>   12.2573    1.0000 </r>
       <r>   12.4556    1.0000 </r>
       <r>   12.6899    1.0000 </r>
       <r>   12.7680    1.0000 </r>
       <r>   13.1280    0.0000 </r>
       <r>   13.2827    0.0000 </r>
       <r>   13.9355    0.0000 </r>
       <r>   14.0077    0.0000 </r>
       <r>   14.1748    0.0000 </r>
       <r>   14.6294    0.0000 </r>
       <r>   15.1999    0.0000 </r>
       <r>   15.5674    0.0000 </r>
       <r>   15.6813    0.0000 </r>
       <r>   16.2113    0.0000 </r>
       <r>   16.4758    0.0000 </r>
      </set>
      <set comment="kpoint 8">
       <r>  -49.9510    1.0000 </r>
       <r>  -49.9162    1.0000 </r>
       <r>  -49.7929    1.0000 </r>
       <r>  -49.7865    1.0000 </r>
       <r>  -49.7486    1.0000 </r>
       <r>  -49.7076    1.0000 </r>
       <r>  -24.0485    1.0000 </r>
       <r>  -23.9564    1.0000 </r>
       <r>  -23.8150    1.0000 </r>
       <r>  -23.7244    1.0000 </r>
       <r>  -23.6432    1.0000 </r>
       <r>  -23.5975    1.0000 </r>
       <r>  -23.4636    1.0000 </r>
       <r>  -23.4334    1.0000 </r>
       <r>  -23.3216    1.0000 </r>
       <r>  -23.2590    1.0000 </r>
       <r>  -23.2170    1.0000 </r>
       <r>  -23.2081    1.0000 </r>
       <r>  -23.0841    1.0000 </r>
       <r>  -23.0140    1.0000 </r>
       <r>  -22.8416    1.0000 </r>
       <r>  -22.8066    1.0000 </r>
       <r>  -22.7323    1.0000 </r>
       <r>  -22.6804    1.0000 </r>
       <r>    0.7513    1.0000 </r>
       <r>    1.4906    1.0000 </r>
       <r>    3.9753    1.0000 </r>
       <r>    4.0166    1.0000 </r>
       <r>    6.5541    1.0000 </r>
       <r>    6.9084    1.0000 </r>
       <r>    7.3557    1.0000 </r>
       <r>    7.7357    1.0000 </r>
       <r>    8.1653    1.0000 </r>
       <r>    8.3423    1.0000 </r>
       <r>    8.3855    1.0000 </r>
       <r>    8.9437    1.0000 </r>
       <r>    9.0891    1.0000 </r>
       <r>    9.3245    1.0000 </r>
       <r>    9.6756    1.0000 </r>
       <r>    9.8943    1.0000 </r>
       <r>   10.1761    1.0000 </r>
       <r>   10.2422    1.0000 </r>
       <r>   10.3902    1.0000 </r>
       <r>   10.7542    1.0000 </r>
       <r>   12.0214    1.0000 </r>
       <r>   12.1119    1.0000 </r>
       <r>   12.2977    1.0000 </r>
       <r>   12.3144    1.0000 </r>
       <r>   12.8818    1.0000 </r>
       <r>   13.2425    0.0000 </r>
       <r>   13.4209    0.0000 </r>
       <r>   13.7127    0.0000 </r>
       <r>   13.9577    0.0000 </r>
       <r>   14.1138    0.0000 </r>
       <r>   14.1704    0.0000 </r>
       <r>   14.6805    0.0000 </r>
       <r>   15.1570    0.0000 </r>
       <r>   15.2618    0.0000 </r>
       <r>   16.2353    0.0000 </r>
       <r>   16.4770    0.0000 </r>
      </set>
      <set comment="kpoint 9">
       <r>  -49.9441    1.0000 </r>
       <r>  -49.9203    1.0000 </r>
       <r>  -49.8021    1.0000 </r>
       <r>  -49.7801    1.0000 </r>
       <r>  -49.7287    1.0000 </r>
       <r>  -49.7277    1.0000 </r>
       <r>  -23.9979    1.0000 </r>
       <r>  -23.9945    1.0000 </r>
       <r>  -23.7551    1.0000 </r>
       <r>  -23.7457    1.0000 </r>
       <r>  -23.5985    1.0000 </r>
       <r>  -23.5589    1.0000 </r>
       <r>  -23.4660    1.0000 </r>
       <r>  -23.3936    1.0000 </r>
       <r>  -23.3721    1.0000 </r>
       <r>  -23.3361    1.0000 </r>
       <r>  -23.2631    1.0000 </r>
       <r>  -23.1956    1.0000 </r>
       <r>  -23.0955    1.0000 </r>
       <r>  -23.0009    1.0000 </r>
       <r>  -22.8387    1.0000 </r>
       <r>  -22.8211    1.0000 </r>
       <r>  -22.7213    1.0000 </r>
       <r>  -22.7009    1.0000 </r>
       <r>    0.9768    1.0000 </r>
       <r>    1.3598    1.0000 </r>
       <r>    3.5276    1.0000 </r>
       <r>    4.4506    1.0000 </r>
       <r>    6.6791    1.0000 </r>
       <r>    6.9620    1.0000 </r>
       <r>    7.4869    1.0000 </r>
       <r>    7.5894    1.0000 </r>
       <r>    7.9722    1.0000 </r>
       <r>    8.3058    1.0000 </r>
       <r>    8.5900    1.0000 </r>
       <r>    8.8999    1.0000 </r>
       <r>    9.1127    1.0000 </r>
       <r>    9.2376    1.0000 </r>
       <r>    9.5776    1.0000 </r>
       <r>    9.7948    1.0000 </r>
       <r>   10.2475    1.0000 </r>
       <r>   10.2773    1.0000 </r>
       <r>   10.4955    1.0000 </r>
       <r>   10.6356    1.0000 </r>
       <r>   11.7962    1.0000 </r>
       <r>   12.2549    1.0000 </r>
       <r>   12.3128    1.0000 </r>
       <r>   12.3691    1.0000 </r>
       <r>   12.9209    1.0000 </r>
       <r>   13.2068    0.0000 </r>
       <r>   13.5225    0.0000 </r>
       <r>   13.6925    0.0000 </r>
       <r>   13.8837    0.0000 </r>
       <r>   13.9966    0.0000 </r>
       <r>   14.2918    0.0000 </r>
       <r>   14.4189    0.0000 </r>
       <r>   14.9872    0.0000 </r>
       <r>   15.1975    0.0000 </r>
       <r>   16.3260    0.0000 </r>
       <r>   16.6866    0.0000 </r>
      </set>
      <set comment="kpoint 10">
       <r>  -49.9742    1.0000 </r>
       <r>  -49.8986    1.0000 </r>
       <r>  -49.8018    1.0000 </r>
       <r>  -49.7706    1.0000 </r>
       <r>  -49.7500    1.0000 </r>
       <r>  -49.7071    1.0000 </r>
       <r>  -24.0510    1.0000 </r>
       <r>  -23.9545    1.0000 </r>
       <r>  -23.8505    1.0000 </r>
       <r>  -23.7564    1.0000 </r>
       <r>  -23.6959    1.0000 </r>
       <r>  -23.6736    1.0000 </r>
       <r>  -23.5870    1.0000 </r>
       <r>  -23.3880    1.0000 </r>
       <r>  -23.3460    1.0000 </r>
       <r>  -23.2512    1.0000 </r>
       <r>  -23.1677    1.0000 </r>
       <r>  -23.0640    1.0000 </r>
       <r>  -23.0621    1.0000 </r>
       <r>  -22.9214    1.0000 </r>
       <r>  -22.8270    1.0000 </r>
       <r>  -22.8254    1.0000 </r>
       <r>  -22.7091    1.0000 </r>
       <r>  -22.6949    1.0000 </r>
       <r>    0.3935    1.0000 </r>
       <r>    1.7207    1.0000 </r>
       <r>    3.4243    1.0000 </r>
       <r>    5.0370    1.0000 </r>
       <r>    6.5935    1.0000 </r>
       <r>    6.9053    1.0000 </r>
       <r>    7.4382    1.0000 </r>
       <r>    7.6267    1.0000 </r>
       <r>    7.7960    1.0000 </r>
       <r>    8.1019    1.0000 </r>
       <r>    8.1849    1.0000 </r>
       <r>    8.9863    1.0000 </r>
       <r>    9.1150    1.0000 </r>
       <r>    9.2872    1.0000 </r>
       <r>    9.4787    1.0000 </r>
       <r>    9.8574    1.0000 </r>
       <r>    9.9218    1.0000 </r>
       <r>    9.9466    1.0000 </r>
       <r>   10.3858    1.0000 </r>
       <r>   11.2626    1.0000 </r>
       <r>   11.6134    1.0000 </r>
       <r>   12.3236    1.0000 </r>
       <r>   12.5180    1.0000 </r>
       <r>   12.8367    1.0000 </r>
       <r>   13.0535    0.0000 </r>
       <r>   13.1198    0.0000 </r>
       <r>   13.1945    0.0000 </r>
       <r>   13.8081    0.0000 </r>
       <r>   13.9961    0.0000 </r>
       <r>   14.1246    0.0000 </r>
       <r>   14.4844    0.0000 </r>
       <r>   14.8196    0.0000 </r>
       <r>   15.1741    0.0000 </r>
       <r>   15.4335    0.0000 </r>
       <r>   16.2199    0.0000 </r>
       <r>   16.6233    0.0000 </r>
      </set>
      <set comment="kpoint 11">
       <r>  -49.9995    1.0000 </r>
       <r>  -49.8900    1.0000 </r>
       <r>  -49.7914    1.0000 </r>
       <r>  -49.7681    1.0000 </r>
       <r>  -49.7623    1.0000 </r>
       <r>  -49.6898    1.0000 </r>
       <r>  -24.1097    1.0000 </r>
       <r>  -23.9732    1.0000 </r>
       <r>  -23.9271    1.0000 </r>
       <r>  -23.8297    1.0000 </r>
       <r>  -23.8071    1.0000 </r>
       <r>  -23.7524    1.0000 </r>
       <r>  -23.6789    1.0000 </r>
       <r>  -23.3595    1.0000 </r>
       <r>  -23.3148    1.0000 </r>
       <r>  -23.1973    1.0000 </r>
       <r>  -23.1250    1.0000 </r>
       <r>  -22.9468    1.0000 </r>
       <r>  -22.9083    1.0000 </r>
       <r>  -22.8663    1.0000 </r>
       <r>  -22.8218    1.0000 </r>
       <r>  -22.7946    1.0000 </r>
       <r>  -22.7100    1.0000 </r>
       <r>  -22.6527    1.0000 </r>
       <r>   -0.0849    1.0000 </r>
       <r>    1.6614    1.0000 </r>
       <r>    3.8467    1.0000 </r>
       <r>    5.4455    1.0000 </r>
       <r>    6.4334    1.0000 </r>
       <r>    6.5469    1.0000 </r>
       <r>    7.3041    1.0000 </r>
       <r>    7.4689    1.0000 </r>
       <r>    7.8656    1.0000 </r>
       <r>    8.0009    1.0000 </r>
       <r>    8.1229    1.0000 </r>
       <r>    8.7327    1.0000 </r>
       <r>    9.0540    1.0000 </r>
       <r>    9.3984    1.0000 </r>
       <r>    9.4446    1.0000 </r>
       <r>    9.6535    1.0000 </r>
       <r>    9.7107    1.0000 </r>
       <r>    9.8086    1.0000 </r>
       <r>   10.4525    1.0000 </r>
       <r>   11.6041    1.0000 </r>
       <r>   11.9761    1.0000 </r>
       <r>   12.4457    1.0000 </r>
       <r>   12.5706    1.0000 </r>
       <r>   12.8343    1.0000 </r>
       <r>   13.1164    0.0000 </r>
       <r>   13.2409    0.0000 </r>
       <r>   13.2740    0.0000 </r>
       <r>   13.7625    0.0000 </r>
       <r>   13.8645    0.0000 </r>
       <r>   14.0037    0.0000 </r>
       <r>   15.0445    0.0000 </r>
       <r>   15.4655    0.0000 </r>
       <r>   15.6802    0.0000 </r>
       <r>   15.8363    0.0000 </r>
       <r>   16.1569    0.0000 </r>
       <r>   16.3867    0.0000 </r>
      </set>
      <set comment="kpoint 12">
       <r>  -50.0146    1.0000 </r>
       <r>  -49.8885    1.0000 </r>
       <r>  -49.7803    1.0000 </r>
       <r>  -49.7800    1.0000 </r>
       <r>  -49.7585    1.0000 </r>
       <r>  -49.6782    1.0000 </r>
       <r>  -24.1622    1.0000 </r>
       <r>  -24.0489    1.0000 </r>
       <r>  -23.9181    1.0000 </r>
       <r>  -23.9148    1.0000 </r>
       <r>  -23.8604    1.0000 </r>
       <r>  -23.7688    1.0000 </r>
       <r>  -23.7321    1.0000 </r>
       <r>  -23.3289    1.0000 </r>
       <r>  -23.3153    1.0000 </r>
       <r>  -23.1920    1.0000 </r>
       <r>  -23.0504    1.0000 </r>
       <r>  -22.8822    1.0000 </r>
       <r>  -22.8553    1.0000 </r>
       <r>  -22.8474    1.0000 </r>
       <r>  -22.8087    1.0000 </r>
       <r>  -22.7325    1.0000 </r>
       <r>  -22.7048    1.0000 </r>
       <r>  -22.6102    1.0000 </r>
       <r>   -0.3712    1.0000 </r>
       <r>    1.5154    1.0000 </r>
       <r>    4.3927    1.0000 </r>
       <r>    5.4442    1.0000 </r>
       <r>    6.1130    1.0000 </r>
       <r>    6.7929    1.0000 </r>
       <r>    6.8858    1.0000 </r>
       <r>    6.9891    1.0000 </r>
       <r>    8.0960    1.0000 </r>
       <r>    8.1475    1.0000 </r>
       <r>    8.2523    1.0000 </r>
       <r>    8.5159    1.0000 </r>
       <r>    8.9174    1.0000 </r>
       <r>    9.3257    1.0000 </r>
       <r>    9.4633    1.0000 </r>
       <r>    9.4884    1.0000 </r>
       <r>    9.6305    1.0000 </r>
       <r>   10.1104    1.0000 </r>
       <r>   10.5745    1.0000 </r>
       <r>   11.6463    1.0000 </r>
       <r>   12.2653    1.0000 </r>
       <r>   12.5732    1.0000 </r>
       <r>   12.5877    1.0000 </r>
       <r>   12.5911    1.0000 </r>
       <r>   13.1004    0.0000 </r>
       <r>   13.1053    0.0000 </r>
       <r>   13.3314    0.0000 </r>
       <r>   13.8530    0.0000 </r>
       <r>   13.9396    0.0000 </r>
       <r>   14.1849    0.0000 </r>
       <r>   15.3167    0.0000 </r>
       <r>   15.8068    0.0000 </r>
       <r>   15.9012    0.0000 </r>
       <r>   16.0909    0.0000 </r>
       <r>   16.3696    0.0000 </r>
       <r>   16.6882    0.0000 </r>
      </set>
      <set comment="kpoint 13">
       <r>  -49.9571    1.0000 </r>
       <r>  -49.9073    1.0000 </r>
       <r>  -49.7934    1.0000 </r>
       <r>  -49.7805    1.0000 </r>
       <r>  -49.7635    1.0000 </r>
       <r>  -49.7011    1.0000 </r>
       <r>  -24.0441    1.0000 </r>
       <r>  -23.8615    1.0000 </r>
       <r>  -23.8434    1.0000 </r>
       <r>  -23.7931    1.0000 </r>
       <r>  -23.6680    1.0000 </r>
       <r>  -23.6355    1.0000 </r>
       <r>  -23.4756    1.0000 </r>
       <r>  -23.4363    1.0000 </r>
       <r>  -23.3474    1.0000 </r>
       <r>  -23.2169    1.0000 </r>
       <r>  -23.1932    1.0000 </r>
       <r>  -23.1327    1.0000 </r>
       <r>  -23.0912    1.0000 </r>
       <r>  -22.9799    1.0000 </r>
       <r>  -22.8637    1.0000 </r>
       <r>  -22.8258    1.0000 </r>
       <r>  -22.7523    1.0000 </r>
       <r>  -22.6859    1.0000 </r>
       <r>    0.6186    1.0000 </r>
       <r>    1.6605    1.0000 </r>
       <r>    4.0034    1.0000 </r>
       <r>    4.1814    1.0000 </r>
       <r>    6.0111    1.0000 </r>
       <r>    7.0237    1.0000 </r>
       <r>    7.4216    1.0000 </r>
       <r>    7.7859    1.0000 </r>
       <r>    8.0789    1.0000 </r>
       <r>    8.2061    1.0000 </r>
       <r>    8.5951    1.0000 </r>
       <r>    8.7705    1.0000 </r>
       <r>    9.1646    1.0000 </r>
       <r>    9.3144    1.0000 </r>
       <r>    9.7254    1.0000 </r>
       <r>    9.9360    1.0000 </r>
       <r>   10.0847    1.0000 </r>
       <r>   10.2618    1.0000 </r>
       <r>   10.4804    1.0000 </r>
       <r>   10.7793    1.0000 </r>
       <r>   12.0706    1.0000 </r>
       <r>   12.1633    1.0000 </r>
       <r>   12.2402    1.0000 </r>
       <r>   12.3174    1.0000 </r>
       <r>   12.6127    1.0000 </r>
       <r>   13.3363    0.0000 </r>
       <r>   13.4994    0.0000 </r>
       <r>   13.6513    0.0000 </r>
       <r>   14.0308    0.0000 </r>
       <r>   14.1622    0.0000 </r>
       <r>   14.4275    0.0000 </r>
       <r>   15.0022    0.0000 </r>
       <r>   15.5357    0.0000 </r>
       <r>   15.6478    0.0000 </r>
       <r>   15.7989    0.0000 </r>
       <r>   16.5705    0.0000 </r>
      </set>
      <set comment="kpoint 14">
       <r>  -49.9285    1.0000 </r>
       <r>  -49.9239    1.0000 </r>
       <r>  -49.8044    1.0000 </r>
       <r>  -49.7805    1.0000 </r>
       <r>  -49.7476    1.0000 </r>
       <r>  -49.7186    1.0000 </r>
       <r>  -23.9671    1.0000 </r>
       <r>  -23.8689    1.0000 </r>
       <r>  -23.7588    1.0000 </r>
       <r>  -23.7122    1.0000 </r>
       <r>  -23.6084    1.0000 </r>
       <r>  -23.5616    1.0000 </r>
       <r>  -23.5344    1.0000 </r>
       <r>  -23.3796    1.0000 </r>
       <r>  -23.3389    1.0000 </r>
       <r>  -23.3231    1.0000 </r>
       <r>  -23.2885    1.0000 </r>
       <r>  -23.2406    1.0000 </r>
       <r>  -23.0559    1.0000 </r>
       <r>  -23.0072    1.0000 </r>
       <r>  -22.8792    1.0000 </r>
       <r>  -22.8761    1.0000 </r>
       <r>  -22.7520    1.0000 </r>
       <r>  -22.7239    1.0000 </r>
       <r>    1.1819    1.0000 </r>
       <r>    1.4197    1.0000 </r>
       <r>    3.5696    1.0000 </r>
       <r>    4.5009    1.0000 </r>
       <r>    6.0259    1.0000 </r>
       <r>    6.9816    1.0000 </r>
       <r>    7.5113    1.0000 </r>
       <r>    7.6552    1.0000 </r>
       <r>    8.0140    1.0000 </r>
       <r>    8.3964    1.0000 </r>
       <r>    8.6577    1.0000 </r>
       <r>    8.8163    1.0000 </r>
       <r>    8.9706    1.0000 </r>
       <r>    9.5316    1.0000 </r>
       <r>    9.7406    1.0000 </r>
       <r>    9.9304    1.0000 </r>
       <r>   10.0851    1.0000 </r>
       <r>   10.3692    1.0000 </r>
       <r>   10.6146    1.0000 </r>
       <r>   10.6580    1.0000 </r>
       <r>   11.7547    1.0000 </r>
       <r>   12.0267    1.0000 </r>
       <r>   12.0750    1.0000 </r>
       <r>   12.3537    1.0000 </r>
       <r>   12.5742    1.0000 </r>
       <r>   13.3725    0.0000 </r>
       <r>   13.4816    0.0000 </r>
       <r>   13.6581    0.0000 </r>
       <r>   13.9813    0.0000 </r>
       <r>   14.0989    0.0000 </r>
       <r>   14.4702    0.0000 </r>
       <r>   14.7158    0.0000 </r>
       <r>   15.0792    0.0000 </r>
       <r>   15.6849    0.0000 </r>
       <r>   15.8264    0.0000 </r>
       <r>   16.6922    0.0000 </r>
      </set>
      <set comment="kpoint 15">
       <r>  -49.9470    1.0000 </r>
       <r>  -49.9042    1.0000 </r>
       <r>  -49.8068    1.0000 </r>
       <r>  -49.7757    1.0000 </r>
       <r>  -49.7401    1.0000 </r>
       <r>  -49.7297    1.0000 </r>
       <r>  -23.9089    1.0000 </r>
       <r>  -23.9018    1.0000 </r>
       <r>  -23.7371    1.0000 </r>
       <r>  -23.7115    1.0000 </r>
       <r>  -23.6618    1.0000 </r>
       <r>  -23.5597    1.0000 </r>
       <r>  -23.4804    1.0000 </r>
       <r>  -23.4325    1.0000 </r>
       <r>  -23.4104    1.0000 </r>
       <r>  -23.3808    1.0000 </r>
       <r>  -23.1975    1.0000 </r>
       <r>  -23.1807    1.0000 </r>
       <r>  -23.1243    1.0000 </r>
       <r>  -22.9250    1.0000 </r>
       <r>  -22.8976    1.0000 </r>
       <r>  -22.8798    1.0000 </r>
       <r>  -22.7454    1.0000 </r>
       <r>  -22.7415    1.0000 </r>
       <r>    0.9787    1.0000 </r>
       <r>    1.7159    1.0000 </r>
       <r>    3.2381    1.0000 </r>
       <r>    5.0203    1.0000 </r>
       <r>    6.1618    1.0000 </r>
       <r>    6.9844    1.0000 </r>
       <r>    7.3416    1.0000 </r>
       <r>    7.5695    1.0000 </r>
       <r>    7.9263    1.0000 </r>
       <r>    8.1888    1.0000 </r>
       <r>    8.5195    1.0000 </r>
       <r>    8.8040    1.0000 </r>
       <r>    9.0912    1.0000 </r>
       <r>    9.4499    1.0000 </r>
       <r>    9.4769    1.0000 </r>
       <r>    9.9227    1.0000 </r>
       <r>   10.2214    1.0000 </r>
       <r>   10.4844    1.0000 </r>
       <r>   10.6335    1.0000 </r>
       <r>   10.7524    1.0000 </r>
       <r>   11.5773    1.0000 </r>
       <r>   11.9513    1.0000 </r>
       <r>   12.3901    1.0000 </r>
       <r>   12.4392    1.0000 </r>
       <r>   12.7042    1.0000 </r>
       <r>   13.1701    0.0000 </r>
       <r>   13.4312    0.0000 </r>
       <r>   13.6789    0.0000 </r>
       <r>   13.7882    0.0000 </r>
       <r>   14.0063    0.0000 </r>
       <r>   14.3233    0.0000 </r>
       <r>   14.8680    0.0000 </r>
       <r>   14.9735    0.0000 </r>
       <r>   15.6433    0.0000 </r>
       <r>   16.1645    0.0000 </r>
       <r>   16.4014    0.0000 </r>
      </set>
      <set comment="kpoint 16">
       <r>  -49.9712    1.0000 </r>
       <r>  -49.8918    1.0000 </r>
       <r>  -49.7966    1.0000 </r>
       <r>  -49.7681    1.0000 </r>
       <r>  -49.7620    1.0000 </r>
[...]
       <r>    4.5399    1.0000 </r>
       <r>    6.3612    1.0000 </r>
       <r>    6.7706    1.0000 </r>
       <r>    7.5612    1.0000 </r>
       <r>    7.7840    1.0000 </r>
       <r>    8.0342    1.0000 </r>
       <r>    8.0968    1.0000 </r>
       <r>    8.1620    1.0000 </r>
       <r>    8.9470    1.0000 </r>
       <r>    9.1313    1.0000 </r>
       <r>    9.3251    1.0000 </r>
       <r>    9.5754    1.0000 </r>
       <r>    9.7248    1.0000 </r>
       <r>   10.0393    1.0000 </r>
       <r>   10.1707    1.0000 </r>
       <r>   10.2586    1.0000 </r>
       <r>   11.0817    1.0000 </r>
       <r>   11.9154    1.0000 </r>
       <r>   12.2254    1.0000 </r>
       <r>   12.3768    1.0000 </r>
       <r>   12.4895    1.0000 </r>
       <r>   12.9135    1.0000 </r>
       <r>   13.1832    0.0000 </r>
       <r>   13.3394    0.0000 </r>
       <r>   13.8663    0.0000 </r>
       <r>   13.9900    0.0000 </r>
       <r>   14.2201    0.0000 </r>
       <r>   14.3769    0.0000 </r>
       <r>   14.9044    0.0000 </r>
       <r>   15.5033    0.0000 </r>
       <r>   15.5654    0.0000 </r>
       <r>   16.1244    0.0000 </r>
       <r>   16.4778    0.0000 </r>
      </set>
      <set comment="kpoint 165">
       <r>  -49.9655    1.0000 </r>
       <r>  -49.8974    1.0000 </r>
       <r>  -49.7799    1.0000 </r>
       <r>  -49.7734    1.0000 </r>
       <r>  -49.7728    1.0000 </r>
       <r>  -49.7140    1.0000 </r>
       <r>  -23.9436    1.0000 </r>
       <r>  -23.8385    1.0000 </r>
       <r>  -23.8087    1.0000 </r>
       <r>  -23.7625    1.0000 </r>
       <r>  -23.7389    1.0000 </r>
       <r>  -23.6952    1.0000 </r>
       <r>  -23.5108    1.0000 </r>
       <r>  -23.4092    1.0000 </r>
       <r>  -23.3949    1.0000 </r>
       <r>  -23.2953    1.0000 </r>
       <r>  -23.1698    1.0000 </r>
       <r>  -23.1435    1.0000 </r>
       <r>  -23.0424    1.0000 </r>
       <r>  -22.8836    1.0000 </r>
       <r>  -22.8737    1.0000 </r>
       <r>  -22.8251    1.0000 </r>
       <r>  -22.7903    1.0000 </r>
       <r>  -22.7292    1.0000 </r>
       <r>    0.5864    1.0000 </r>
       <r>    1.8286    1.0000 </r>
       <r>    3.5468    1.0000 </r>
       <r>    5.1378    1.0000 </r>
       <r>    6.3744    1.0000 </r>
       <r>    6.5388    1.0000 </r>
       <r>    7.4502    1.0000 </r>
       <r>    7.5839    1.0000 </r>
       <r>    8.0211    1.0000 </r>
       <r>    8.0292    1.0000 </r>
       <r>    8.1183    1.0000 </r>
       <r>    9.0076    1.0000 </r>
       <r>    9.1412    1.0000 </r>
       <r>    9.2710    1.0000 </r>
       <r>    9.4955    1.0000 </r>
       <r>    9.5303    1.0000 </r>
       <r>   10.0345    1.0000 </r>
       <r>   10.4414    1.0000 </r>
       <r>   10.4497    1.0000 </r>
       <r>   11.1244    1.0000 </r>
       <r>   11.8104    1.0000 </r>
       <r>   11.9115    1.0000 </r>
       <r>   12.4122    1.0000 </r>
       <r>   12.5349    1.0000 </r>
       <r>   12.9671    0.9538 </r>
       <r>   13.2123    0.0000 </r>
       <r>   13.2843    0.0000 </r>
       <r>   13.6623    0.0000 </r>
       <r>   14.0254    0.0000 </r>
       <r>   14.1162    0.0000 </r>
       <r>   14.2434    0.0000 </r>
       <r>   14.8730    0.0000 </r>
       <r>   15.3573    0.0000 </r>
       <r>   15.7363    0.0000 </r>
       <r>   15.8844    0.0000 </r>
       <r>   16.6732    0.0000 </r>
      </set>
     </set>
    </set>
   </array>
  </eigenvalues>
  <separator name="orbital magnetization" >
   <v name="MAGDIPOLOUT">      0.00000000      0.00000000      0.00000000</v>
  </separator>
  <dos>
   <i name="efermi">     12.99088011 </i>
   <total>
    <array>
     <dimension dim="1">gridpoints</dimension>
     <dimension dim="2">spin</dimension>
     <field>energy</field>
     <field>total</field>
     <field>integrated</field>
     <set>
      <set comment="spin 1">
       <r>   -53.3929     0.0000     0.0000 </r>
       <r>   -53.1458     0.0000     0.0000 </r>
       <r>   -52.8987     0.0000     0.0000 </r>
       <r>   -52.6516     0.0000     0.0000 </r>
       <r>   -52.4045     0.0000     0.0000 </r>
       <r>   -52.1575     0.0000     0.0000 </r>
       <r>   -51.9104     0.0000     0.0000 </r>
       <r>   -51.6633     0.0000     0.0000 </r>
       <r>   -51.4162     0.0000     0.0000 </r>
       <r>   -51.1691     0.0000     0.0000 </r>
       <r>   -50.9221     0.0000     0.0000 </r>
       <r>   -50.6750     0.0000     0.0000 </r>
       <r>   -50.4279     0.0000     0.0000 </r>
       <r>   -50.1808     0.0000     0.0000 </r>
       <r>   -49.9337     6.3721     1.5744 </r>
       <r>   -49.6867    29.8116    11.5534 </r>
       <r>   -49.4396     0.0000    12.0000 </r>
       <r>   -49.1925     0.0000    12.0000 </r>
       <r>   -48.9454     0.0000    12.0000 </r>
       <r>   -48.6983     0.0000    12.0000 </r>
       <r>   -48.4513     0.0000    12.0000 </r>
       <r>   -48.2042     0.0000    12.0000 </r>
       <r>   -47.9571     0.0000    12.0000 </r>
       <r>   -47.7100     0.0000    12.0000 </r>
       <r>   -47.4629     0.0000    12.0000 </r>
       <r>   -47.2159     0.0000    12.0000 </r>
       <r>   -46.9688     0.0000    12.0000 </r>
       <r>   -46.7217     0.0000    12.0000 </r>
       <r>   -46.4746     0.0000    12.0000 </r>
       <r>   -46.2275     0.0000    12.0000 </r>
       <r>   -45.9805     0.0000    12.0000 </r>
       <r>   -45.7334     0.0000    12.0000 </r>
       <r>   -45.4863     0.0000    12.0000 </r>
       <r>   -45.2392     0.0000    12.0000 </r>
       <r>   -44.9921     0.0000    12.0000 </r>
       <r>   -44.7451     0.0000    12.0000 </r>
       <r>   -44.4980     0.0000    12.0000 </r>
       <r>   -44.2509     0.0000    12.0000 </r>
       <r>   -44.0038     0.0000    12.0000 </r>
       <r>   -43.7567     0.0000    12.0000 </r>
       <r>   -43.5097     0.0000    12.0000 </r>
       <r>   -43.2626     0.0000    12.0000 </r>
       <r>   -43.0155     0.0000    12.0000 </r>
       <r>   -42.7684     0.0000    12.0000 </r>
       <r>   -42.5213     0.0000    12.0000 </r>
       <r>   -42.2743     0.0000    12.0000 </r>
       <r>   -42.0272     0.0000    12.0000 </r>
       <r>   -41.7801     0.0000    12.0000 </r>
       <r>   -41.5330     0.0000    12.0000 </r>
       <r>   -41.2859     0.0000    12.0000 </r>
       <r>   -41.0389     0.0000    12.0000 </r>
       <r>   -40.7918     0.0000    12.0000 </r>
       <r>   -40.5447     0.0000    12.0000 </r>
       <r>   -40.2976     0.0000    12.0000 </r>
       <r>   -40.0505     0.0000    12.0000 </r>
       <r>   -39.8035     0.0000    12.0000 </r>
       <r>   -39.5564     0.0000    12.0000 </r>
       <r>   -39.3093     0.0000    12.0000 </r>
       <r>   -39.0622     0.0000    12.0000 </r>
       <r>   -38.8151     0.0000    12.0000 </r>
       <r>   -38.5681     0.0000    12.0000 </r>
       <r>   -38.3210     0.0000    12.0000 </r>
       <r>   -38.0739     0.0000    12.0000 </r>
       <r>   -37.8268     0.0000    12.0000 </r>
       <r>   -37.5797     0.0000    12.0000 </r>
       <r>   -37.3327     0.0000    12.0000 </r>
       <r>   -37.0856     0.0000    12.0000 </r>
       <r>   -36.8385     0.0000    12.0000 </r>
       <r>   -36.5914     0.0000    12.0000 </r>
       <r>   -36.3443     0.0000    12.0000 </r>
       <r>   -36.0973     0.0000    12.0000 </r>
       <r>   -35.8502     0.0000    12.0000 </r>
       <r>   -35.6031     0.0000    12.0000 </r>
       <r>   -35.3560     0.0000    12.0000 </r>
       <r>   -35.1089     0.0000    12.0000 </r>
       <r>   -34.8619     0.0000    12.0000 </r>
       <r>   -34.6148     0.0000    12.0000 </r>
       <r>   -34.3677     0.0000    12.0000 </r>
       <r>   -34.1206     0.0000    12.0000 </r>
       <r>   -33.8735     0.0000    12.0000 </r>
       <r>   -33.6265     0.0000    12.0000 </r>
       <r>   -33.3794     0.0000    12.0000 </r>
       <r>   -33.1323     0.0000    12.0000 </r>
       <r>   -32.8852     0.0000    12.0000 </r>
       <r>   -32.6381     0.0000    12.0000 </r>
       <r>   -32.3911     0.0000    12.0000 </r>
       <r>   -32.1440     0.0000    12.0000 </r>
       <r>   -31.8969     0.0000    12.0000 </r>
       <r>   -31.6498     0.0000    12.0000 </r>
       <r>   -31.4027     0.0000    12.0000 </r>
       <r>   -31.1557     0.0000    12.0000 </r>
       <r>   -30.9086     0.0000    12.0000 </r>
       <r>   -30.6615     0.0000    12.0000 </r>
       <r>   -30.4144     0.0000    12.0000 </r>
       <r>   -30.1673     0.0000    12.0000 </r>
       <r>   -29.9203     0.0000    12.0000 </r>
       <r>   -29.6732     0.0000    12.0000 </r>
       <r>   -29.4261     0.0000    12.0000 </r>
       <r>   -29.1790     0.0000    12.0000 </r>
       <r>   -28.9319     0.0000    12.0000 </r>
       <r>   -28.6849     0.0000    12.0000 </r>
       <r>   -28.4378     0.0000    12.0000 </r>
       <r>   -28.1907     0.0000    12.0000 </r>
       <r>   -27.9436     0.0000    12.0000 </r>
       <r>   -27.6965     0.0000    12.0000 </r>
       <r>   -27.4495     0.0000    12.0000 </r>
       <r>   -27.2024     0.0000    12.0000 </r>
       <r>   -26.9553     0.0000    12.0000 </r>
       <r>   -26.7082     0.0000    12.0000 </r>
       <r>   -26.4611     0.0000    12.0000 </r>
       <r>   -26.2141     0.0000    12.0000 </r>
       <r>   -25.9670     0.0000    12.0000 </r>
       <r>   -25.7199     0.0000    12.0000 </r>
       <r>   -25.4728     0.0000    12.0000 </r>
       <r>   -25.2257     0.0000    12.0000 </r>
       <r>   -24.9787     0.0000    12.0000 </r>
       <r>   -24.7316     0.0000    12.0000 </r>
       <r>   -24.4845     0.0000    12.0000 </r>
       <r>   -24.2374     0.0022    12.0005 </r>
       <r>   -23.9903     5.2326    13.5950 </r>
       <r>   -23.7433    14.3966    18.6335 </r>
       <r>   -23.4962    13.9709    25.1082 </r>
       <r>   -23.2491    19.3717    31.9495 </r>
       <r>   -23.0020    15.0560    38.2270 </r>
       <r>   -22.7549    18.9902    44.9351 </r>
       <r>   -22.5079     3.2744    48.0000 </r>
       <r>   -22.2608     0.0000    48.0000 </r>
       <r>   -22.0137     0.0000    48.0000 </r>
       <r>   -21.7666     0.0000    48.0000 </r>
       <r>   -21.5196     0.0000    48.0000 </r>
       <r>   -21.2725     0.0000    48.0000 </r>
       <r>   -21.0254     0.0000    48.0000 </r>
       <r>   -20.7783     0.0000    48.0000 </r>
       <r>   -20.5312     0.0000    48.0000 </r>
       <r>   -20.2842     0.0000    48.0000 </r>
       <r>   -20.0371     0.0000    48.0000 </r>
       <r>   -19.7900     0.0000    48.0000 </r>
       <r>   -19.5429     0.0000    48.0000 </r>
       <r>   -19.2958     0.0000    48.0000 </r>
       <r>   -19.0488     0.0000    48.0000 </r>
       <r>   -18.8017     0.0000    48.0000 </r>
       <r>   -18.5546     0.0000    48.0000 </r>
       <r>   -18.3075     0.0000    48.0000 </r>
       <r>   -18.0604     0.0000    48.0000 </r>
       <r>   -17.8134     0.0000    48.0000 </r>
       <r>   -17.5663     0.0000    48.0000 </r>
       <r>   -17.3192     0.0000    48.0000 </r>
       <r>   -17.0721     0.0000    48.0000 </r>
       <r>   -16.8250     0.0000    48.0000 </r>
       <r>   -16.5780     0.0000    48.0000 </r>
       <r>   -16.3309     0.0000    48.0000 </r>
       <r>   -16.0838     0.0000    48.0000 </r>
       <r>   -15.8367     0.0000    48.0000 </r>
       <r>   -15.5896     0.0000    48.0000 </r>
       <r>   -15.3426     0.0000    48.0000 </r>
       <r>   -15.0955     0.0000    48.0000 </r>
       <r>   -14.8484     0.0000    48.0000 </r>
       <r>   -14.6013     0.0000    48.0000 </r>
       <r>   -14.3542     0.0000    48.0000 </r>
       <r>   -14.1072     0.0000    48.0000 </r>
       <r>   -13.8601     0.0000    48.0000 </r>
       <r>   -13.6130     0.0000    48.0000 </r>
       <r>   -13.3659     0.0000    48.0000 </r>
       <r>   -13.1188     0.0000    48.0000 </r>
       <r>   -12.8718     0.0000    48.0000 </r>
       <r>   -12.6247     0.0000    48.0000 </r>
       <r>   -12.3776     0.0000    48.0000 </r>
       <r>   -12.1305     0.0000    48.0000 </r>
       <r>   -11.8834     0.0000    48.0000 </r>
       <r>   -11.6364     0.0000    48.0000 </r>
       <r>   -11.3893     0.0000    48.0000 </r>
       <r>   -11.1422     0.0000    48.0000 </r>
       <r>   -10.8951     0.0000    48.0000 </r>
       <r>   -10.6480     0.0000    48.0000 </r>
       <r>   -10.4010     0.0000    48.0000 </r>
       <r>   -10.1539     0.0000    48.0000 </r>
       <r>    -9.9068     0.0000    48.0000 </r>
       <r>    -9.6597     0.0000    48.0000 </r>
       <r>    -9.4126     0.0000    48.0000 </r>
       <r>    -9.1656     0.0000    48.0000 </r>
       <r>    -8.9185     0.0000    48.0000 </r>
       <r>    -8.6714     0.0000    48.0000 </r>
       <r>    -8.4243     0.0000    48.0000 </r>
       <r>    -8.1772     0.0000    48.0000 </r>
       <r>    -7.9302     0.0000    48.0000 </r>
       <r>    -7.6831     0.0000    48.0000 </r>
       <r>    -7.4360     0.0000    48.0000 </r>
       <r>    -7.1889     0.0000    48.0000 </r>
       <r>    -6.9418     0.0000    48.0000 </r>
       <r>    -6.6948     0.0000    48.0000 </r>
       <r>    -6.4477     0.0000    48.0000 </r>
       <r>    -6.2006     0.0000    48.0000 </r>
       <r>    -5.9535     0.0000    48.0000 </r>
       <r>    -5.7064     0.0000    48.0000 </r>
       <r>    -5.4594     0.0000    48.0000 </r>
       <r>    -5.2123     0.0000    48.0000 </r>
       <r>    -4.9652     0.0000    48.0000 </r>
       <r>    -4.7181     0.0000    48.0000 </r>
       <r>    -4.4710     0.0000    48.0000 </r>
       <r>    -4.2240     0.0000    48.0000 </r>
       <r>    -3.9769     0.0000    48.0000 </r>
       <r>    -3.7298     0.0000    48.0000 </r>
       <r>    -3.4827     0.0000    48.0000 </r>
       <r>    -3.2356     0.0000    48.0000 </r>
       <r>    -2.9886     0.0000    48.0000 </r>
       <r>    -2.7415     0.0000    48.0000 </r>
       <r>    -2.4944     0.0000    48.0000 </r>
       <r>    -2.2473     0.0000    48.0000 </r>
       <r>    -2.0002     0.0000    48.0000 </r>
       <r>    -1.7532     0.0000    48.0000 </r>
       <r>    -1.5061     0.0000    48.0000 </r>
       <r>    -1.2590     0.0000    48.0000 </r>
       <r>    -1.0119     0.0000    48.0000 </r>
       <r>    -0.7648     0.0000    48.0000 </r>
       <r>    -0.5178     0.0138    48.0034 </r>
       <r>    -0.2707     0.1687    48.0590 </r>
       <r>    -0.0236     0.4000    48.2065 </r>
       <r>     0.2235     0.5583    48.3775 </r>
       <r>     0.4706     0.5371    48.5667 </r>
       <r>     0.7176     0.7899    48.8375 </r>
       <r>     0.9647     0.7278    49.1694 </r>
       <r>     1.2118     1.5713    49.6834 </r>
       <r>     1.4589     1.2772    50.1906 </r>
       <r>     1.7060     2.7750    51.1127 </r>
       <r>     1.9530     1.5271    51.7697 </r>
       <r>     2.2001     0.8801    52.0543 </r>
       <r>     2.4472     0.3386    52.1739 </r>
       <r>     2.6943     0.3697    52.3205 </r>
       <r>     2.9414     0.5861    52.5059 </r>
       <r>     3.1884     0.3939    52.7119 </r>
       <r>     3.4355     0.9908    53.0538 </r>
       <r>     3.6826     0.7298    53.3157 </r>
       <r>     3.9297     0.8526    53.6030 </r>
       <r>     4.1768     0.8220    54.0052 </r>
       <r>     4.4238     0.6838    54.2419 </r>
       <r>     4.6709     0.8328    54.6884 </r>
       <r>     4.9180     0.9878    55.0461 </r>
       <r>     5.1651     1.1296    55.4284 </r>
       <r>     5.4122     0.4157    55.6236 </r>
       <r>     5.6592     1.2467    56.0719 </r>
       <r>     5.9063     1.2923    56.5867 </r>
       <r>     6.1534     1.8052    57.2203 </r>
       <r>     6.4005     1.8386    57.7772 </r>
       <r>     6.6476     2.2488    58.5383 </r>
       <r>     6.8946     2.2604    59.2564 </r>
       <r>     7.1417     2.4326    60.2052 </r>
       <r>     7.3888     2.7641    61.2836 </r>
       <r>     7.6359     4.3913    62.8038 </r>
       <r>     7.8830     3.0511    64.0177 </r>
       <r>     8.1300     5.7409    65.9740 </r>
       <r>     8.3771     4.6953    67.8754 </r>
       <r>     8.6242     3.8555    69.4179 </r>
       <r>     8.8713     4.6306    71.1893 </r>
       <r>     9.1184     4.7461    73.0442 </r>
       <r>     9.3654     5.2729    74.9383 </r>
       <r>     9.6125     4.7153    76.7970 </r>
       <r>     9.8596     4.3051    78.5325 </r>
       <r>    10.1067     4.0422    80.2557 </r>
       <r>    10.3538     6.1411    82.4722 </r>
       <r>    10.6008     5.5340    84.5166 </r>
       <r>    10.8479     3.7765    86.0824 </r>
       <r>    11.0950     2.3115    87.0329 </r>
       <r>    11.3421     1.4095    87.5913 </r>
       <r>    11.5892     2.8865    88.5153 </r>
       <r>    11.8362     3.1031    89.8396 </r>
       <r>    12.0833     4.5088    91.3988 </r>
       <r>    12.3304     5.6676    93.4073 </r>
       <r>    12.5775     4.8796    95.3550 </r>
       <r>    12.8246     4.3972    96.9372 </r>
       <r>    13.0716     4.8997    98.6551 </r>
       <r>    13.3187     4.9305   100.6106 </r>
       <r>    13.5658     4.6484   102.3464 </r>
       <r>    13.8129     5.5750   104.4018 </r>
       <r>    14.0599     7.4572   106.9849 </r>
       <r>    14.3070     4.6014   108.9946 </r>
       <r>    14.5541     3.3692   110.2665 </r>
       <r>    14.8012     2.9518   111.3786 </r>
       <r>    15.0483     2.8362   112.4160 </r>
       <r>    15.2953     2.5491   113.5534 </r>
       <r>    15.5424     2.4835   114.5060 </r>
       <r>    15.7895     3.2028   115.7184 </r>
       <r>    16.0366     3.2247   116.9391 </r>
       <r>    16.2837     3.0765   118.0275 </r>
       <r>    16.5307     3.1321   119.1940 </r>
       <r>    16.7778     1.2090   119.8057 </r>
       <r>    17.0249     0.4515   119.9796 </r>
       <r>    17.2720     0.0359   119.9915 </r>
       <r>    17.5191     0.0141   120.0000 </r>
       <r>    17.7661     0.0000   120.0000 </r>
       <r>    18.0132     0.0000   120.0000 </r>
       <r>    18.2603     0.0000   120.0000 </r>
       <r>    18.5074     0.0000   120.0000 </r>
       <r>    18.7545     0.0000   120.0000 </r>
       <r>    19.0015     0.0000   120.0000 </r>
       <r>    19.2486     0.0000   120.0000 </r>
       <r>    19.4957     0.0000   120.0000 </r>
       <r>    19.7428     0.0000   120.0000 </r>
       <r>    19.9899     0.0000   120.0000 </r>
       <r>    20.2369     0.0000   120.0000 </r>
       <r>    20.4840     0.0000   120.0000 </r>
       <r>    20.7311     0.0000   120.0000 </r>
      </set>
     </set>
    </array>
   </total>
  </dos>
 </calculation>
 <structure name="finalpos" >
  <crystal>
   <varray name="basis" >
    <v>       4.82802163       0.00000000      -2.84221980 </v>
    <v>      -1.57811083       4.56282358      -2.84221980 </v>
    <v>       0.00000000       0.00000000       5.60250000 </v>
   </varray>
   <i name="volume">    123.41977482 </i>
   <varray name="rec_basis" >
    <v>       0.20712418       0.07163654       0.00000000 </v>
    <v>       0.00000000       0.21916254       0.00000000 </v>
    <v>       0.10507674       0.14752609       0.17849174 </v>
   </varray>
  </crystal>
  <varray name="positions" >
   <v>       0.50000000       0.00000000       0.50000000 </v>
   <v>       0.00000000       0.50000000       0.50000000 </v>
   <v>       0.25000000       0.25000000       0.00000000 </v>
   <v>       0.74265000       0.24265000       0.98530000 </v>
   <v>       0.75000000       0.75000000       0.00000000 </v>
   <v>       0.25735000       0.75735000       0.01470000 </v>
   <v>       0.24265000       0.25735000       0.50000000 </v>
   <v>       0.75735000       0.74265000       0.50000000 </v>
   <v>       0.25000000       0.75000000       0.50000000 </v>
   <v>       0.75000000       0.25000000       0.50000000 </v>
  </varray>
 </structure>
</modeling>
