<?xml version="1.0" encoding="ISO-8859-1"?>
<modeling>
 <generator>
  <i name="program" type="string">vasp </i>
  <i name="version" type="string">6.2.0  </i>
  <i name="subversion" type="string">18Jan21 (build Jan 05 2022 15:41:44) complex                          parallel </i>
  <i name="platform" type="string">LinuxIFC </i>
  <i name="date" type="string">2025 05 07 </i>
  <i name="time" type="string">21:20:51 </i>
 </generator>
 <incar>
  <i type="string" name="SYSTEM">routine with relax: pwdword</i>
  <i type="string" name="PREC">Acc</i>
  <i type="int" name="IALGO">    38</i>
  <i type="string" name="ALGO">A</i>
  <i type="logical" name="ADDGRID"> T  </i>
  <i type="int" name="ICHARG">     2</i>
  <i type="int" name="NELM">   100</i>
  <i type="int" name="NELMIN">     6</i>
  <i name="EDIFF">      0.00000000</i>
  <i type="int" name="NSW">     0</i>
  <i type="int" name="ISIF">    -1</i>
  <i name="ENCUT">    600.00000000</i>
  <i type="logical" name="LREAL"> F  </i>
  <i type="int" name="ISMEAR">     0</i>
  <i name="SIGMA">      0.02000000</i>
  <i type="logical" name="LASPH"> T  </i>
  <i type="string" name="METAGGA">R2SCAN</i>
  <i type="logical" name="LMIXTAU"> F  </i>
 </incar>
 <primitive_cell>
  <structure name="primitive_cell" >
   <crystal>
    <varray name="basis" >
     <v>       2.75794000      -4.77689200       0.00000000 </v>
     <v>       2.75794000       4.77689200       0.00000000 </v>
     <v>       0.00000000       0.00000000       5.16740700 </v>
    </varray>
    <i name="volume">    136.15478260 </i>
    <varray name="rec_basis" >
     <v>       0.18129473      -0.10467057       0.00000000 </v>
     <v>       0.18129473       0.10467057       0.00000000 </v>
     <v>       0.00000000       0.00000000       0.19352066 </v>
    </varray>
   </crystal>
   <varray name="positions" >
    <v>       0.65992000       0.00000000       0.28546600 </v>
    <v>       0.00000000       0.65992000       0.28546600 </v>
    <v>       0.34008000       0.34008000       0.28546600 </v>
    <v>       0.00000000       0.34008000       0.28546600 </v>
    <v>       0.34008000       0.00000000       0.28546600 </v>
    <v>       0.65992000       0.65992000       0.28546600 </v>
    <v>       0.00000000       0.34008000       0.71453400 </v>
    <v>       0.65992000       0.65992000       0.71453400 </v>
    <v>       0.34008000       0.00000000       0.71453400 </v>
    <v>       0.65992000       0.00000000       0.71453400 </v>
    <v>       0.34008000       0.34008000       0.71453400 </v>
    <v>       0.00000000       0.65992000       0.71453400 </v>
    <v>       0.66666700       0.33333300       0.00000000 </v>
    <v>       0.00000000       0.00000000       0.50000000 </v>
    <v>       0.33333300       0.66666700       0.00000000 </v>
   </varray>
  </structure>
  <varray name="primitive_index" >
   <v type="int" >        1 </v>
   <v type="int" >        2 </v>
   <v type="int" >        3 </v>
   <v type="int" >        4 </v>
   <v type="int" >        5 </v>
   <v type="int" >        6 </v>
   <v type="int" >        7 </v>
   <v type="int" >        8 </v>
   <v type="int" >        9 </v>
   <v type="int" >       10 </v>
   <v type="int" >       11 </v>
   <v type="int" >       12 </v>
   <v type="int" >       13 </v>
   <v type="int" >       14 </v>
   <v type="int" >       15 </v>
  </varray>
 </primitive_cell>
 <kpoints>
  <generation param="Gamma">
   <v type="int" name="divisions">       7        7        7 </v>
   <v name="usershift">      0.00000000       0.00000000       0.00000000 </v>
   <v name="genvec1">      0.14285714       0.00000000       0.00000000 </v>
   <v name="genvec2">      0.00000000       0.14285714       0.00000000 </v>
   <v name="genvec3">      0.00000000       0.00000000       0.14285714 </v>
   <v name="shift">      0.00000000       0.00000000       0.00000000 </v>
  </generation>
  <varray name="kpointlist" >
   <v>       0.00000000       0.00000000       0.00000000 </v>
   <v>       0.14285714      -0.00000000       0.00000000 </v>
   <v>       0.28571429      -0.00000000       0.00000000 </v>
   <v>       0.42857143       0.00000000       0.00000000 </v>
   <v>       0.14285714       0.14285714       0.00000000 </v>
   <v>       0.28571429       0.14285714       0.00000000 </v>
   <v>       0.42857143       0.14285714       0.00000000 </v>
   <v>       0.28571429       0.28571429       0.00000000 </v>
   <v>       0.00000000       0.00000000       0.14285714 </v>
   <v>       0.14285714      -0.00000000       0.14285714 </v>
   <v>       0.28571429      -0.00000000       0.14285714 </v>
   <v>       0.42857143       0.00000000       0.14285714 </v>
   <v>       0.14285714       0.14285714       0.14285714 </v>
   <v>       0.28571429       0.14285714       0.14285714 </v>
   <v>       0.42857143       0.14285714       0.14285714 </v>
   <v>       0.28571429       0.28571429       0.14285714 </v>
   <v>       0.00000000       0.00000000       0.28571429 </v>
   <v>       0.14285714      -0.00000000       0.28571429 </v>
   <v>       0.28571429      -0.00000000       0.28571429 </v>
   <v>       0.42857143       0.00000000       0.28571429 </v>
   <v>       0.14285714       0.14285714       0.28571429 </v>
   <v>       0.28571429       0.14285714       0.28571429 </v>
   <v>       0.42857143       0.14285714       0.28571429 </v>
   <v>       0.28571429       0.28571429       0.28571429 </v>
   <v>       0.00000000       0.00000000       0.42857143 </v>
   <v>       0.14285714      -0.00000000       0.42857143 </v>
   <v>       0.28571429      -0.00000000       0.42857143 </v>
   <v>       0.42857143       0.00000000       0.42857143 </v>
   <v>       0.14285714       0.14285714       0.42857143 </v>
   <v>       0.28571429       0.14285714       0.42857143 </v>
   <v>       0.42857143       0.14285714       0.42857143 </v>
   <v>       0.28571429       0.28571429       0.42857143 </v>
  </varray>
  <varray name="weights" >
   <v>       0.00291545 </v>
   <v>       0.01749271 </v>
   <v>       0.01749271 </v>
   <v>       0.01749271 </v>
   <v>       0.01749271 </v>
   <v>       0.03498542 </v>
   <v>       0.01749271 </v>
   <v>       0.01749271 </v>
   <v>       0.00583090 </v>
   <v>       0.03498542 </v>
   <v>       0.03498542 </v>
   <v>       0.03498542 </v>
   <v>       0.03498542 </v>
   <v>       0.06997085 </v>
   <v>       0.03498542 </v>
   <v>       0.03498542 </v>
   <v>       0.00583090 </v>
   <v>       0.03498542 </v>
   <v>       0.03498542 </v>
   <v>       0.03498542 </v>
   <v>       0.03498542 </v>
   <v>       0.06997085 </v>
   <v>       0.03498542 </v>
   <v>       0.03498542 </v>
   <v>       0.00583090 </v>
   <v>       0.03498542 </v>
   <v>       0.03498542 </v>
   <v>       0.03498542 </v>
   <v>       0.03498542 </v>
   <v>       0.06997085 </v>
   <v>       0.03498542 </v>
   <v>       0.03498542 </v>
  </varray>
 </kpoints>
 <parameters>
  <separator name="general" >
   <i type="string" name="SYSTEM">routine with relax: pwdword</i>
   <i type="logical" name="LCOMPAT"> F  </i>
  </separator>
  <separator name="electronic" >
   <i type="string" name="PREC">acc</i>
   <i name="ENMAX">    600.00000000</i>
   <i name="ENAUG">    535.51400000</i>
   <i name="EDIFF">      0.00000000</i>
   <i type="int" name="IALGO">    58</i>
   <i type="int" name="IWAVPR">    10</i>
   <i type="int" name="NBANDS">    48</i>
   <i type="int" name="NBANDSLOW">    -1</i>
   <i type="int" name="NBANDSHIGH">    -1</i>
   <i name="NELECT">     78.00000000</i>
   <i type="int" name="TURBO">     0</i>
   <i type="int" name="IRESTART">     0</i>
   <i type="int" name="NREBOOT">     0</i>
   <i type="int" name="NMIN">     0</i>
   <i name="EREF">      0.00000000</i>
   <separator name="electronic smearing" >
    <i type="int" name="ISMEAR">     0</i>
    <i name="SIGMA">      0.02000000</i>
    <i name="KSPACING">      0.50000000</i>
    <i type="logical" name="KGAMMA"> T  </i>
    <i type="logical" name="KBLOWUP"> T  </i>
   </separator>
   <separator name="electronic projectors" >
    <i type="logical" name="LREAL"> F  </i>
    <v name="ROPT">      0.00000000      0.00000000</v>
    <i type="int" name="LMAXPAW">  -100</i>
    <i type="int" name="LMAXMIX">     2</i>
    <i type="logical" name="NLSPLINE"> F  </i>
   </separator>
   <separator name="electronic startup" >
    <i type="int" name="ISTART">     0</i>
    <i type="int" name="ICHARG">     2</i>
    <i type="int" name="INIWAV">     1</i>
   </separator>
   <separator name="electronic spin" >
    <i type="int" name="ISPIN">     1</i>
    <i type="logical" name="LNONCOLLINEAR"> F  </i>
    <v name="MAGMOM">      1.00000000      1.00000000      1.00000000      1.00000000      1.00000000      1.00000000      1.00000000      1.00000000      1.00000000      1.00000000      1.00000000      1.00000000      1.00000000      1.00000000      1.00000000</v>
    <i name="NUPDOWN">     -1.00000000</i>
    <i type="logical" name="LSORBIT"> F  </i>
    <v name="SAXIS">      0.00000000      0.00000000      1.00000000</v>
    <i type="logical" name="LSPIRAL"> F  </i>
    <v name="QSPIRAL">      0.00000000      0.00000000      0.00000000</v>
    <i type="logical" name="LZEROZ"> F  </i>
   </separator>
   <separator name="electronic exchange-correlation" >
    <i type="logical" name="LASPH"> T  </i>
    <i type="logical" name="LMETAGGA"> F  </i>
   </separator>
   <separator name="electronic convergence" >
    <i type="int" name="NELM">   100</i>
    <i type="int" name="NELMDL">    -5</i>
    <i type="int" name="NELMIN">     6</i>
    <i name="ENINI">    600.00000000</i>
    <separator name="electronic convergence detail" >
     <i type="logical" name="LDIAG"> T  </i>
     <i type="logical" name="LSUBROT"> F  </i>
     <i name="WEIMIN">      0.00000000</i>
     <i name="EBREAK">      0.00000000</i>
     <i name="DEPER">      0.30000000</i>
     <i type="int" name="NRMM">     4</i>
     <i name="TIME">      0.40000000</i>
    </separator>
   </separator>
   <separator name="electronic mixer" >
    <i name="AMIX">      0.40000000</i>
    <i name="BMIX">      1.00000000</i>
    <i name="AMIN">      0.10000000</i>
    <i name="AMIX_MAG">      1.60000000</i>
    <i name="BMIX_MAG">      1.00000000</i>
    <separator name="electronic mixer details" >
     <i type="int" name="IMIX">     4</i>
     <i type="logical" name="MIXFIRST"> F  </i>
     <i type="int" name="MAXMIX">   -45</i>
     <i name="WC">    100.00000000</i>
     <i type="int" name="INIMIX">     1</i>
     <i type="int" name="MIXPRE">     1</i>
     <i type="int" name="MREMOVE">     5</i>
    </separator>
   </separator>
   <separator name="electronic dipolcorrection" >
    <i type="logical" name="LDIPOL"> F  </i>
    <i type="logical" name="LMONO"> F  </i>
    <i type="int" name="IDIPOL">     0</i>
    <i name="EPSILON">      1.00000000</i>
    <v name="DIPOL">   -100.00000000   -100.00000000   -100.00000000</v>
    <i name="EFIELD">      0.00000000</i>
   </separator>
  </separator>
  <separator name="grids" >
   <i type="int" name="NGX">    48</i>
   <i type="int" name="NGY">    48</i>
   <i type="int" name="NGZ">    42</i>
   <i type="int" name="NGXF">    96</i>
   <i type="int" name="NGYF">    96</i>
   <i type="int" name="NGZF">    84</i>
   <i type="logical" name="ADDGRID"> T  </i>
  </separator>
  <separator name="ionic" >
   <i type="int" name="NSW">     0</i>
   <i type="int" name="IBRION">    -1</i>
   <i type="int" name="MDALGO">     0</i>
   <i type="int" name="ISIF">    -1</i>
   <i name="PSTRESS">      0.00000000</i>
   <i name="EDIFFG">      0.00000001</i>
   <i type="int" name="NFREE">     0</i>
   <i name="POTIM">      0.50000000</i>
   <i name="SMASS">     -3.00000000</i>
   <i name="SCALEE">      1.00000000</i>
  </separator>
  <separator name="ionic md" >
   <i name="TEBEG">      0.00010000</i>
   <i name="TEEND">      0.00010000</i>
   <i type="int" name="NBLOCK">     1</i>
   <i type="int" name="KBLOCK">     1</i>
   <i type="int" name="NPACO">   256</i>
   <i name="APACO">     16.00000000</i>
  </separator>
  <separator name="symmetry" >
   <i type="int" name="ISYM">     2</i>
   <i name="SYMPREC">      0.00001000</i>
  </separator>
  <separator name="dos" >
   <i type="int" name="LORBIT">     0</i>
   <v name="RWIGS">     -1.00000000     -1.00000000</v>
   <i type="int" name="NEDOS">   301</i>
   <i name="EMIN">     10.00000000</i>
   <i name="EMAX">    -10.00000000</i>
   <i name="EFERMI">      0.00000000</i>
  </separator>
  <separator name="writing" >
   <i type="int" name="NWRITE">     2</i>
   <i type="logical" name="LWAVE"> T  </i>
   <i type="logical" name="LDOWNSAMPLE"> F  </i>
   <i type="logical" name="LCHARG"> T  </i>
   <i type="logical" name="LPARD"> F  </i>
   <i type="logical" name="LVTOT"> F  </i>
   <i type="logical" name="LVHAR"> F  </i>
   <i type="logical" name="LELF"> F  </i>
   <i type="logical" name="LOPTICS"> F  </i>
   <v name="STM">      0.00000000      0.00000000      0.00000000      0.00000000      0.00000000      0.00000000      0.00000000</v>
  </separator>
  <separator name="performance" >
   <i type="int" name="NPAR">     6</i>
   <i type="int" name="NSIM">     4</i>
   <i type="int" name="NBLK">    -1</i>
   <i type="logical" name="LPLANE"> T  </i>
   <i type="logical" name="LSCALAPACK"> T  </i>
   <i type="logical" name="LSCAAWARE"> F  </i>
   <i type="logical" name="LSCALU"> F  </i>
   <i type="logical" name="LASYNC"> F  </i>
   <i type="logical" name="LORBITALREAL"> F  </i>
  </separator>
  <separator name="miscellaneous" >
   <i type="int" name="IDIOT">     3</i>
   <i type="int" name="PHON_NSTRUCT">    -1</i>
   <i type="logical" name="LMUSIC"> F  </i>
   <v name="POMASS">     10.81100000     95.94000000</v>
   <v name="DARWINR">      0.00000000      0.00000000</v>
   <v name="DARWINV">      1.00000000      1.00000000</v>
   <i type="logical" name="LCORR"> T  </i>
  </separator>
  <i type="logical" name="GGA_COMPAT"> T  </i>
  <i type="logical" name="LBERRY"> F  </i>
  <i type="int" name="ICORELEVEL">     0</i>
  <i type="logical" name="LDAU"> F  </i>
  <i type="int" name="I_CONSTRAINED_M">     0</i>
  <separator name="electronic exchange-correlation" >
   <i type="string" name="GGA">--</i>
   <i type="int" name="VOSKOWN">     0</i>
   <i type="logical" name="LHFCALC"> F  </i>
   <i type="string" name="PRECFOCK"></i>
   <i type="logical" name="LSYMGRAD"> F  </i>
   <i type="logical" name="LHFONE"> F  </i>
   <i type="logical" name="LRHFCALC"> F  </i>
   <i type="logical" name="LTHOMAS"> F  </i>
   <i type="logical" name="LMODELHF"> F  </i>
   <i type="logical" name="LFOCKACE"> F  </i>
   <i name="ENCUT4O">     -1.00000000</i>
   <i type="int" name="EXXOEP">     0</i>
   <i type="int" name="FOURORBIT">     0</i>
   <i name="AEXX">      0.00000000</i>
   <i name="HFALPHA">      0.00000000</i>
   <i name="MCALPHA">      0.00000000</i>
   <i name="ALDAX">      1.00000000</i>
   <i name="AGGAX">      1.00000000</i>
   <i name="ALDAC">      1.00000000</i>
   <i name="AGGAC">      1.00000000</i>
   <i type="int" name="NKREDX">     1</i>
   <i type="int" name="NKREDY">     1</i>
   <i type="int" name="NKREDZ">     1</i>
   <i type="logical" name="SHIFTRED"> F  </i>
   <i type="logical" name="ODDONLY"> F  </i>
   <i type="logical" name="EVENONLY"> F  </i>
   <i type="int" name="LMAXFOCK">     0</i>
   <i type="int" name="NMAXFOCKAE">     0</i>
   <i type="logical" name="LFOCKAEDFT"> F  </i>
   <i name="HFSCREEN">      0.00000000</i>
   <i name="HFSCREENC">      0.00000000</i>
   <i type="int" name="NBANDSGWLOW">     0</i>
  </separator>
  <separator name="vdW DFT" >
   <i type="logical" name="LUSE_VDW"> F  </i>
   <i name="Zab_VDW">     -0.84910000</i>
   <i name="PARAM1">      0.12340000</i>
   <i name="PARAM2">      1.00000000</i>
   <i name="PARAM3">      0.00000000</i>
  </separator>
  <separator name="model GW" >
   <i type="int" name="MODEL_GW">     0</i>
   <i name="MODEL_EPS0">      5.44619130</i>
   <i name="MODEL_ALPHA">      1.00000000</i>
  </separator>
  <separator name="linear response parameters" >
   <i type="logical" name="LEPSILON"> F  </i>
   <i type="logical" name="LRPA"> F  </i>
   <i type="logical" name="LNABLA"> F  </i>
   <i type="logical" name="LVEL"> F  </i>
   <i type="int" name="KINTER">     0</i>
   <i name="CSHIFT">      0.10000000</i>
   <i name="OMEGAMAX">     -1.00000000</i>
   <i name="DEG_THRESHOLD">      0.00200000</i>
   <i name="RTIME">     -0.10000000</i>
   <i name="WPLASMAI">      0.00000000</i>
   <v name="DFIELD">      0.00000000      0.00000000      0.00000000</v>
   <v name="WPLASMA">      0.00000000      0.00000000      0.00000000      0.00000000      0.00000000      0.00000000      0.00000000      0.00000000      0.00000000</v>
  </separator>
  <separator name="orbital magnetization" >
   <i type="logical" name="NUCIND"> F  </i>
   <v name="MAGPOS">      0.00000000      0.00000000      0.00000000</v>
   <i type="logical" name="LNICSALL"> T  </i>
   <i type="logical" name="ORBITALMAG"> F  </i>
   <i type="logical" name="LMAGBLOCH"> F  </i>
   <i type="logical" name="LCHIMAG"> F  </i>
   <i type="logical" name="LGAUGE"> T  </i>
   <i type="int" name="MAGATOM">     0</i>
   <v name="MAGDIPOL">      0.00000000      0.00000000      0.00000000</v>
   <v name="AVECCONST">      0.00000000      0.00000000      0.00000000</v>
  </separator>
  <separator name="response functions" >
   <i type="logical" name="LFINITE_TEMPERATURE"> F  </i>
   <i type="logical" name="LADDER"> F  </i>
   <i type="logical" name="LRPAFORCE"> F  </i>
   <i type="logical" name="LFXC"> F  </i>
   <i type="logical" name="LHARTREE"> T  </i>
   <i type="int" name="IBSE">     0</i>
   <v type="int" name="KPOINT">    -1     0     0     0</v>
   <i type="logical" name="LTCTC"> F  </i>
   <i type="logical" name="LTCTE"> F  </i>
   <i type="logical" name="LTETE"> F  </i>
   <i type="logical" name="LTRIPLET"> F  </i>
   <i type="logical" name="LFXCEPS"> F  </i>
   <i type="logical" name="LFXHEG"> F  </i>
   <i type="int" name="NATURALO">     2</i>
   <i type="logical" name="LHOLEGF"> F  </i>
   <i type="logical" name="L2ORDER"> F  </i>
   <i type="logical" name="LDMP1"> F  </i>
   <i type="logical" name="LMP2LT"> F  </i>
   <i type="logical" name="LSMP2LT"> F  </i>
   <i type="logical" name="LGWLF"> F  </i>
   <i name="ENCUTGW">     -2.00000000</i>
   <i name="ENCUTGWSOFT">     -2.00000000</i>
   <i name="ENCUTLF">     -1.00000000</i>
   <i type="logical" name="LESF_SPLINES"> F  </i>
   <i type="int" name="LMAXMP2">    -1</i>
   <i name="SCISSOR">      0.00000000</i>
   <i type="int" name="NOMEGA">     0</i>
   <i type="int" name="NOMEGAR">     0</i>
   <i type="int" name="NBANDSGW">    -1</i>
   <i type="int" name="NBANDSO">    -1</i>
   <i type="int" name="NBANDSV">    -1</i>
   <i type="int" name="NELM">   100</i>
   <i type="int" name="NELMHF">     1</i>
   <i type="int" name="DIM">     3</i>
   <i type="int" name="IESPILON">     4</i>
   <i type="int" name="ANTIRES">     0</i>
   <i name="OMEGAMAX">    -30.00000000</i>
   <i name="OMEGAMIN">    -30.00000000</i>
   <i name="OMEGATL">   -200.00000000</i>
   <i type="int" name="OMEGAGRID">     0</i>
   <i name="CSHIFT">     -0.10000000</i>
   <i type="logical" name="LSELFENERGY"> F  </i>
   <i type="logical" name="LSPECTRAL"> F  </i>
   <i type="logical" name="LSPECTRALGW"> F  </i>
   <i type="logical" name="LSINGLES"> F  </i>
   <i type="logical" name="LFERMIGW"> F  </i>
   <i type="logical" name="ODDONLYGW"> F  </i>
   <i type="logical" name="EVENONLYGW"> F  </i>
   <i type="int" name="NKREDLFX">     1</i>
   <i type="int" name="NKREDLFY">     1</i>
   <i type="int" name="NKREDLFZ">     1</i>
   <i type="int" name="MAXMEM">  2800</i>
   <i type="int" name="TELESCOPE">     0</i>
   <i type="int" name="NTAUPAR">    -1</i>
   <i type="int" name="NOMEGAPAR">    -1</i>
   <i name="DAMP_NEWTON">      0.80000001</i>
   <i name="LAMBDA">      1.00000000</i>
  </separator>
  <separator name="External order field" >
   <i name="OFIELD_KAPPA">      0.00000000</i>
   <v name="OFIELD_K">      0.00000000      0.00000000      0.00000000</v>
   <i name="OFIELD_Q6_NEAR">      0.00000000</i>
   <i name="OFIELD_Q6_FAR">      0.00000000</i>
   <i name="OFIELD_A">      0.00000000</i>
  </separator>
 </parameters>
 <atominfo>
  <atoms>      15 </atoms>
  <types>       2 </types>
  <array name="atoms" >
   <dimension dim="1">ion</dimension>
   <field type="string">element</field>
   <field type="int">atomtype</field>
   <set>
    <rc><c>B </c><c>   1</c></rc>
    <rc><c>B </c><c>   1</c></rc>
    <rc><c>B </c><c>   1</c></rc>
    <rc><c>B </c><c>   1</c></rc>
    <rc><c>B </c><c>   1</c></rc>
    <rc><c>B </c><c>   1</c></rc>
    <rc><c>B </c><c>   1</c></rc>
    <rc><c>B </c><c>   1</c></rc>
    <rc><c>B </c><c>   1</c></rc>
    <rc><c>B </c><c>   1</c></rc>
    <rc><c>B </c><c>   1</c></rc>
    <rc><c>B </c><c>   1</c></rc>
    <rc><c>Mo</c><c>   2</c></rc>
    <rc><c>Mo</c><c>   2</c></rc>
    <rc><c>Mo</c><c>   2</c></rc>
   </set>
  </array>
  <array name="atomtypes" >
   <dimension dim="1">type</dimension>
   <field type="int">atomspertype</field>
   <field type="string">element</field>
   <field>mass</field>
   <field>valence</field>
   <field type="string">pseudopotential</field>
   <set>
    <rc><c>  12</c><c>B </c><c>     10.81100000</c><c>      3.00000000</c><c>  PAW_PBE B 06Sep2000                   </c></rc>
    <rc><c>   3</c><c>Mo</c><c>     95.94000000</c><c>     14.00000000</c><c>  PAW_PBE Mo_sv 02Feb2006               </c></rc>
   </set>
  </array>
 </atominfo>
 <structure name="initialpos" >
  <crystal>
   <varray name="basis" >
    <v>       2.75794000      -4.77689200       0.00000000 </v>
    <v>       2.75794000       4.77689200       0.00000000 </v>
    <v>       0.00000000       0.00000000       5.16740700 </v>
   </varray>
   <i name="volume">    136.15478260 </i>
   <varray name="rec_basis" >
    <v>       0.18129473      -0.10467057       0.00000000 </v>
    <v>       0.18129473       0.10467057       0.00000000 </v>
    <v>       0.00000000       0.00000000       0.19352066 </v>
   </varray>
  </crystal>
  <varray name="positions" >
   <v>       0.65992000       0.00000000       0.28546600 </v>
   <v>       0.00000000       0.65992000       0.28546600 </v>
   <v>       0.34008000       0.34008000       0.28546600 </v>
   <v>       0.00000000       0.34008000       0.28546600 </v>
   <v>       0.34008000       0.00000000       0.28546600 </v>
   <v>       0.65992000       0.65992000       0.28546600 </v>
   <v>       0.00000000       0.34008000       0.71453400 </v>
   <v>       0.65992000       0.65992000       0.71453400 </v>
   <v>       0.34008000       0.00000000       0.71453400 </v>
   <v>       0.65992000       0.00000000       0.71453400 </v>
   <v>       0.34008000       0.34008000       0.71453400 </v>
   <v>       0.00000000       0.65992000       0.71453400 </v>
   <v>       0.66666700       0.33333300       0.00000000 </v>
   <v>       0.00000000       0.00000000       0.50000000 </v>
   <v>       0.33333300       0.66666700       0.00000000 </v>
  </varray>
 </structure>
 <calculation>
  <scstep>
   <time name="total">    3.54    3.57</time>
   <energy>
    <i name="alphaZ">    383.87374344 </i>
    <i name="ewald">  -5224.08009819 </i>
    <i name="hartreedc">  -1480.57428841 </i>
    <i name="XCdc">    335.16981037 </i>
    <i name="pawpsdc">   4959.44850262 </i>
    <i name="pawaedc">  -4954.74203603 </i>
    <i name="eentropy">     -0.00134403 </i>
    <i name="bandstr">    129.69817106 </i>
    <i name="atom">   6440.88277134 </i>
    <i name="e_fr_energy">    589.67523217 </i>
    <i name="e_wo_entrp">    589.67657621 </i>
    <i name="e_0_energy">    589.67590419 </i>
   </energy>
  </scstep>
  <scstep>
   <time name="total">    3.06    3.08</time>
   <energy>
    <i name="e_fr_energy">   -162.17579725 </i>
    <i name="e_wo_entrp">   -162.17521603 </i>
    <i name="e_0_energy">   -162.17550664 </i>
   </energy>
  </scstep>
  <scstep>
   <time name="total">    3.33    3.36</time>
   <energy>
    <i name="e_fr_energy">   -196.81399524 </i>
    <i name="e_wo_entrp">   -196.81211336 </i>
    <i name="e_0_energy">   -196.81305430 </i>
   </energy>
  </scstep>
  <scstep>
   <time name="total">    3.18    3.20</time>
   <energy>
    <i name="e_fr_energy">   -197.30770926 </i>
    <i name="e_wo_entrp">   -197.30546912 </i>
    <i name="e_0_energy">   -197.30658919 </i>
   </energy>
  </scstep>
  <scstep>
   <time name="total">    3.73    3.76</time>
   <energy>
    <i name="e_fr_energy">   -197.31593983 </i>
    <i name="e_wo_entrp">   -197.31369817 </i>
    <i name="e_0_energy">   -197.31481900 </i>
   </energy>
  </scstep>
  <scstep>
   <time name="total">    4.63    4.66</time>
   <energy>
    <i name="e_fr_energy">   -141.11813620 </i>
    <i name="e_wo_entrp">   -141.11798438 </i>
    <i name="e_0_energy">   -141.11806029 </i>
   </energy>
  </scstep>
  <scstep>
   <time name="total">    4.60    4.63</time>
   <energy>
    <i name="e_fr_energy">   -161.59740286 </i>
    <i name="e_wo_entrp">   -161.59721453 </i>
    <i name="e_0_energy">   -161.59730870 </i>
   </energy>
  </scstep>
  <scstep>
   <time name="total">    4.60    4.63</time>
   <energy>
    <i name="e_fr_energy">   -164.74781875 </i>
    <i name="e_wo_entrp">   -164.74769513 </i>
    <i name="e_0_energy">   -164.74775694 </i>
   </energy>
  </scstep>
  <scstep>
   <time name="total">    4.60    4.63</time>
   <energy>
    <i name="e_fr_energy">   -165.81102920 </i>
    <i name="e_wo_entrp">   -165.81039555 </i>
    <i name="e_0_energy">   -165.81071237 </i>
   </energy>
  </scstep>
  <scstep>
   <time name="total">    4.58    4.61</time>
   <energy>
    <i name="e_fr_energy">   -166.16930662 </i>
    <i name="e_wo_entrp">   -166.16863057 </i>
    <i name="e_0_energy">   -166.16896859 </i>
   </energy>
  </scstep>
  <scstep>
   <time name="total">    4.59    4.62</time>
   <energy>
    <i name="e_fr_energy">   -166.27921227 </i>
    <i name="e_wo_entrp">   -166.27863137 </i>
    <i name="e_0_energy">   -166.27892182 </i>
   </energy>
  </scstep>
  <scstep>
   <time name="total">    4.60    4.63</time>
   <energy>
    <i name="e_fr_energy">   -166.31300240 </i>
    <i name="e_wo_entrp">   -166.31242910 </i>
    <i name="e_0_energy">   -166.31271575 </i>
   </energy>
  </scstep>
  <scstep>
   <time name="total">    4.58    4.61</time>
   <energy>
    <i name="e_fr_energy">   -166.32681078 </i>
    <i name="e_wo_entrp">   -166.32621173 </i>
    <i name="e_0_energy">   -166.32651125 </i>
   </energy>
  </scstep>
  <scstep>
   <time name="total">    4.60    4.64</time>
   <energy>
    <i name="e_fr_energy">   -166.33273899 </i>
    <i name="e_wo_entrp">   -166.33211387 </i>
    <i name="e_0_energy">   -166.33242643 </i>
   </energy>
  </scstep>
  <scstep>
   <time name="total">    4.61    4.64</time>
   <energy>
    <i name="e_fr_energy">   -166.33528049 </i>
    <i name="e_wo_entrp">   -166.33463865 </i>
    <i name="e_0_energy">   -166.33495957 </i>
   </energy>
  </scstep>
  <scstep>
   <time name="total">    4.59    4.62</time>
   <energy>
    <i name="e_fr_energy">   -166.33620638 </i>
    <i name="e_wo_entrp">   -166.33556286 </i>
    <i name="e_0_energy">   -166.33588462 </i>
   </energy>
  </scstep>
  <scstep>
   <time name="total">    4.61    4.64</time>
   <energy>
    <i name="e_fr_energy">   -166.33648722 </i>
    <i name="e_wo_entrp">   -166.33584936 </i>
    <i name="e_0_energy">   -166.33616829 </i>
   </energy>
  </scstep>
  <scstep>
   <time name="total">    4.64    4.67</time>
   <energy>
    <i name="e_fr_energy">   -166.33658785 </i>
    <i name="e_wo_entrp">   -166.33595492 </i>
    <i name="e_0_energy">   -166.33627139 </i>
   </energy>
  </scstep>
  <scstep>
   <time name="total">    4.56    4.59</time>
   <energy>
    <i name="e_fr_energy">   -166.33662842 </i>
    <i name="e_wo_entrp">   -166.33599971 </i>
    <i name="e_0_energy">   -166.33631407 </i>
   </energy>
  </scstep>
  <scstep>
   <time name="total">    4.58    4.61</time>
   <energy>
    <i name="e_fr_energy">   -166.33664393 </i>
    <i name="e_wo_entrp">   -166.33601744 </i>
    <i name="e_0_energy">   -166.33633068 </i>
   </energy>
  </scstep>
  <scstep>
   <time name="total">    4.60    4.63</time>
   <energy>
    <i name="e_fr_energy">   -166.33664947 </i>
    <i name="e_wo_entrp">   -166.33602448 </i>
    <i name="e_0_energy">   -166.33633698 </i>
   </energy>
  </scstep>
  <scstep>
   <time name="total">    4.62    4.65</time>
   <energy>
    <i name="e_fr_energy">   -166.33665161 </i>
    <i name="e_wo_entrp">   -166.33602707 </i>
    <i name="e_0_energy">   -166.33633934 </i>
   </energy>
  </scstep>
  <scstep>
   <time name="total">    4.58    4.61</time>
   <energy>
    <i name="e_fr_energy">   -166.33665225 </i>
    <i name="e_wo_entrp">   -166.33602792 </i>
    <i name="e_0_energy">   -166.33634008 </i>
   </energy>
  </scstep>
  <scstep>
   <time name="total">    4.59    4.62</time>
   <energy>
    <i name="e_fr_energy">   -166.33665261 </i>
    <i name="e_wo_entrp">   -166.33602823 </i>
    <i name="e_0_energy">   -166.33634042 </i>
   </energy>
  </scstep>
  <scstep>
   <time name="total">    4.57    4.60</time>
   <energy>
    <i name="e_fr_energy">   -166.33665276 </i>
    <i name="e_wo_entrp">   -166.33602831 </i>
    <i name="e_0_energy">   -166.33634053 </i>
   </energy>
  </scstep>
  <scstep>
   <time name="total">    4.57    4.60</time>
   <energy>
    <i name="e_fr_energy">   -166.33665278 </i>
    <i name="e_wo_entrp">   -166.33602828 </i>
    <i name="e_0_energy">   -166.33634053 </i>
   </energy>
  </scstep>
  <scstep>
   <time name="total">    4.57    4.60</time>
   <energy>
    <i name="e_fr_energy">   -166.33665280 </i>
    <i name="e_wo_entrp">   -166.33602825 </i>
    <i name="e_0_energy">   -166.33634052 </i>
   </energy>
  </scstep>
  <scstep>
   <time name="total">    4.49    4.52</time>
   <energy>
    <i name="e_fr_energy">   -166.33665281 </i>
    <i name="e_wo_entrp">   -166.33602823 </i>
    <i name="e_0_energy">   -166.33634052 </i>
   </energy>
  </scstep>
  <scstep>
   <time name="total">    4.58    4.61</time>
   <energy>
    <i name="e_fr_energy">   -166.33665282 </i>
    <i name="e_wo_entrp">   -166.33602822 </i>
    <i name="e_0_energy">   -166.33634052 </i>
   </energy>
  </scstep>
  <scstep>
   <time name="total">    4.58    4.61</time>
   <energy>
    <i name="e_fr_energy">   -166.33665282 </i>
    <i name="e_wo_entrp">   -166.33602821 </i>
    <i name="e_0_energy">   -166.33634051 </i>
   </energy>
  </scstep>
  <scstep>
   <time name="total">    5.05    5.08</time>
   <energy>
    <i name="alphaZ">    383.87374344 </i>
    <i name="ewald">  -5224.08009819 </i>
    <i name="hartreedc">  -1408.76896304 </i>
    <i name="XCdc">    342.67830898 </i>
    <i name="pawpsdc">   8806.94093914 </i>
    <i name="pawaedc">  -8814.90219411 </i>
    <i name="eentropy">     -0.00062462 </i>
    <i name="bandstr">   -692.96053577 </i>
    <i name="atom">   6440.88277134 </i>
    <i name="e_fr_energy">   -166.33665282 </i>
    <i name="e_wo_entrp">   -166.33602820 </i>
    <i name="e_0_energy">   -166.33634051 </i>
   </energy>
  </scstep>
  <structure>
   <crystal>
    <varray name="basis" >
     <v>       2.75794000      -4.77689200       0.00000000 </v>
     <v>       2.75794000       4.77689200       0.00000000 </v>
     <v>       0.00000000       0.00000000       5.16740700 </v>
    </varray>
    <i name="volume">    136.15478260 </i>
    <varray name="rec_basis" >
     <v>       0.18129473      -0.10467057       0.00000000 </v>
     <v>       0.18129473       0.10467057       0.00000000 </v>
     <v>       0.00000000       0.00000000       0.19352066 </v>
    </varray>
   </crystal>
   <varray name="positions" >
    <v>       0.65992000       0.00000000       0.28546600 </v>
    <v>       0.00000000       0.65992000       0.28546600 </v>
    <v>       0.34008000       0.34008000       0.28546600 </v>
    <v>       0.00000000       0.34008000       0.28546600 </v>
    <v>       0.34008000       0.00000000       0.28546600 </v>
    <v>       0.65992000       0.65992000       0.28546600 </v>
    <v>       0.00000000       0.34008000       0.71453400 </v>
    <v>       0.65992000       0.65992000       0.71453400 </v>
    <v>       0.34008000       0.00000000       0.71453400 </v>
    <v>       0.65992000       0.00000000       0.71453400 </v>
    <v>       0.34008000       0.34008000       0.71453400 </v>
    <v>       0.00000000       0.65992000       0.71453400 </v>
    <v>       0.66666700       0.33333300       0.00000000 </v>
    <v>       0.00000000       0.00000000       0.50000000 </v>
    <v>       0.33333300       0.66666700       0.00000000 </v>
   </varray>
  </structure>
  <varray name="forces" >
   <v>       0.00000000       0.00000000       0.00000000 </v>
   <v>       0.00000000       0.00000000       0.00000000 </v>
   <v>       0.00000000       0.00000000       0.00000000 </v>
   <v>       0.00000000       0.00000000       0.00000000 </v>
   <v>       0.00000000       0.00000000       0.00000000 </v>
   <v>       0.00000000       0.00000000       0.00000000 </v>
   <v>       0.00000000       0.00000000       0.00000000 </v>
   <v>       0.00000000       0.00000000       0.00000000 </v>
   <v>       0.00000000       0.00000000       0.00000000 </v>
   <v>       0.00000000       0.00000000       0.00000000 </v>
   <v>       0.00000000       0.00000000       0.00000000 </v>
   <v>       0.00000000       0.00000000       0.00000000 </v>
   <v>       0.00000000       0.00000000       0.00000000 </v>
   <v>       0.00000000       0.00000000       0.00000000 </v>
   <v>       0.00000000       0.00000000       0.00000000 </v>
  </varray>
  <varray name="stress" >
   <v>       0.00000000       0.00000000       0.00000000 </v>
   <v>       0.00000000       0.00000000       0.00000000 </v>
   <v>       0.00000000       0.00000000       0.00000000 </v>
  </varray>
  <energy>
   <i name="e_fr_energy">   -166.33665282 </i>
   <i name="e_wo_entrp">   -166.33602820 </i>
   <i name="e_0_energy">   -166.33634051 </i>
  </energy>
  <time name="totalsc">  138.08  139.05</time>
  <eigenvalues>
   <array>
    <dimension dim="1">band</dimension>
    <dimension dim="2">kpoint</dimension>
    <dimension dim="3">spin</dimension>
    <field>eigene</field>
    <field>occ</field>
    <set>
     <set comment="spin 1">
      <set comment="kpoint 1">
       <r>  -54.7380    1.0000 </r>
       <r>  -54.7054    1.0000 </r>
       <r>  -54.0555    1.0000 </r>
       <r>  -28.2716    1.0000 </r>
       <r>  -28.2473    1.0000 </r>
       <r>  -28.2473    1.0000 </r>
       <r>  -28.2092    1.0000 </r>
       <r>  -28.0527    1.0000 </r>
       <r>  -28.0527    1.0000 </r>
       <r>  -27.7573    1.0000 </r>
       <r>  -27.7573    1.0000 </r>
       <r>  -27.6632    1.0000 </r>
       <r>   -5.9868    1.0000 </r>
       <r>   -1.6087    1.0000 </r>
       <r>   -1.6086    1.0000 </r>
       <r>   -1.5103    1.0000 </r>
       <r>   -0.5798    1.0000 </r>
       <r>   -0.5797    1.0000 </r>
       <r>   -0.0521    1.0000 </r>
       <r>   -0.0520    1.0000 </r>
       <r>    0.1548    1.0000 </r>
       <r>    0.1549    1.0000 </r>
       <r>    0.3503    1.0000 </r>
       <r>    0.8688    1.0000 </r>
       <r>    1.4560    1.0000 </r>
       <r>    2.8453    1.0000 </r>
       <r>    2.8454    1.0000 </r>
       <r>    4.2826    1.0000 </r>
       <r>    4.6087    1.0000 </r>
       <r>    4.8967    1.0000 </r>
       <r>    4.8968    1.0000 </r>
       <r>    6.2859    1.0000 </r>
       <r>    6.2859    1.0000 </r>
       <r>    6.5574    1.0000 </r>
       <r>    6.5575    1.0000 </r>
       <r>    7.1128    1.0000 </r>
       <r>    7.8104    1.0000 </r>
       <r>    7.8104    1.0000 </r>
       <r>    8.1653    1.0000 </r>
       <r>    8.1653    1.0000 </r>
       <r>    9.5373    0.0000 </r>
       <r>    9.9558    0.0000 </r>
       <r>   11.0742    0.0000 </r>
       <r>   11.0743    0.0000 </r>
       <r>   11.1427    0.0000 </r>
       <r>   11.1427    0.0000 </r>
       <r>   11.6679    0.0000 </r>
       <r>   11.8305    0.0000 </r>
      </set>
      <set comment="kpoint 2">
       <r>  -54.7366    1.0000 </r>
       <r>  -54.7068    1.0000 </r>
       <r>  -54.0554    1.0000 </r>
       <r>  -28.2688    1.0000 </r>
       <r>  -28.2506    1.0000 </r>
       <r>  -28.2403    1.0000 </r>
       <r>  -28.2120    1.0000 </r>
       <r>  -28.0598    1.0000 </r>
       <r>  -28.0494    1.0000 </r>
       <r>  -27.7577    1.0000 </r>
       <r>  -27.7574    1.0000 </r>
       <r>  -27.6633    1.0000 </r>
       <r>   -5.8554    1.0000 </r>
       <r>   -2.1221    1.0000 </r>
       <r>   -1.7037    1.0000 </r>
       <r>   -1.4933    1.0000 </r>
       <r>   -0.9198    1.0000 </r>
       <r>   -0.4778    1.0000 </r>
       <r>   -0.4637    1.0000 </r>
       <r>   -0.3499    1.0000 </r>
       <r>    0.5236    1.0000 </r>
       <r>    0.7117    1.0000 </r>
       <r>    0.7235    1.0000 </r>
       <r>    1.3916    1.0000 </r>
       <r>    2.0308    1.0000 </r>
       <r>    2.7357    1.0000 </r>
       <r>    2.8363    1.0000 </r>
       <r>    4.2364    1.0000 </r>
       <r>    4.4670    1.0000 </r>
       <r>    4.5332    1.0000 </r>
       <r>    4.9306    1.0000 </r>
       <r>    5.7523    1.0000 </r>
       <r>    5.8968    1.0000 </r>
       <r>    6.2923    1.0000 </r>
       <r>    6.3272    1.0000 </r>
       <r>    7.3031    1.0000 </r>
       <r>    7.6314    1.0000 </r>
       <r>    7.6585    1.0000 </r>
       <r>    8.5550    0.9914 </r>
       <r>    8.7595    0.0000 </r>
       <r>    9.4582    0.0000 </r>
       <r>    9.6444    0.0000 </r>
       <r>   10.9676    0.0000 </r>
       <r>   11.0085    0.0000 </r>
       <r>   11.0837    0.0000 </r>
       <r>   11.3287    0.0000 </r>
       <r>   11.5389    0.0000 </r>
       <r>   12.1401    0.0000 </r>
      </set>
      <set comment="kpoint 3">
       <r>  -54.7327    1.0000 </r>
       <r>  -54.7107    1.0000 </r>
       <r>  -54.0554    1.0000 </r>
       <r>  -28.2613    1.0000 </r>
       <r>  -28.2575    1.0000 </r>
       <r>  -28.2220    1.0000 </r>
       <r>  -28.2193    1.0000 </r>
       <r>  -28.0784    1.0000 </r>
       <r>  -28.0421    1.0000 </r>
       <r>  -27.7585    1.0000 </r>
       <r>  -27.7577    1.0000 </r>
       <r>  -27.6635    1.0000 </r>
       <r>   -5.4685    1.0000 </r>
       <r>   -3.0760    1.0000 </r>
       <r>   -1.8506    1.0000 </r>
       <r>   -1.4407    1.0000 </r>
       <r>   -1.4020    1.0000 </r>
       <r>   -0.8573    1.0000 </r>
       <r>   -0.8000    1.0000 </r>
       <r>    0.1849    1.0000 </r>
       <r>    0.9816    1.0000 </r>
       <r>    1.4600    1.0000 </r>
       <r>    1.5211    1.0000 </r>
       <r>    2.3596    1.0000 </r>
       <r>    2.3786    1.0000 </r>
       <r>    2.7730    1.0000 </r>
       <r>    3.2274    1.0000 </r>
       <r>    3.7585    1.0000 </r>
       <r>    3.8846    1.0000 </r>
       <r>    4.3340    1.0000 </r>
       <r>    4.7449    1.0000 </r>
       <r>    4.9266    1.0000 </r>
       <r>    5.3089    1.0000 </r>
       <r>    5.7726    1.0000 </r>
       <r>    6.0918    1.0000 </r>
       <r>    7.1132    1.0000 </r>
       <r>    7.2057    1.0000 </r>
       <r>    7.5785    1.0000 </r>
       <r>    8.6071    0.0962 </r>
       <r>    9.1315    0.0000 </r>
       <r>    9.8077    0.0000 </r>
       <r>    9.8418    0.0000 </r>
       <r>   10.5384    0.0000 </r>
       <r>   10.7792    0.0000 </r>
       <r>   11.0826    0.0000 </r>
       <r>   11.1023    0.0000 </r>
       <r>   11.8417    0.0000 </r>
       <r>   12.3506    0.0000 </r>
      </set>
      <set comment="kpoint 4">
       <r>  -54.7281    1.0000 </r>
       <r>  -54.7153    1.0000 </r>
       <r>  -54.0554    1.0000 </r>
       <r>  -28.2627    1.0000 </r>
       <r>  -28.2524    1.0000 </r>
       <r>  -28.2281    1.0000 </r>
       <r>  -28.2024    1.0000 </r>
       <r>  -28.0983    1.0000 </r>
       <r>  -28.0366    1.0000 </r>
       <r>  -27.7590    1.0000 </r>
       <r>  -27.7579    1.0000 </r>
       <r>  -27.6637    1.0000 </r>
       <r>   -4.8484    1.0000 </r>
       <r>   -4.0282    1.0000 </r>
       <r>   -1.9365    1.0000 </r>
       <r>   -1.6752    1.0000 </r>
       <r>   -1.3551    1.0000 </r>
       <r>   -1.1046    1.0000 </r>
       <r>   -0.9701    1.0000 </r>
       <r>    0.8233    1.0000 </r>
       <r>    1.6897    1.0000 </r>
       <r>    1.8186    1.0000 </r>
       <r>    2.2203    1.0000 </r>
       <r>    2.3855    1.0000 </r>
       <r>    2.4749    1.0000 </r>
       <r>    2.6824    1.0000 </r>
       <r>    3.2456    1.0000 </r>
       <r>    3.7307    1.0000 </r>
       <r>    3.8167    1.0000 </r>
       <r>    4.3584    1.0000 </r>
       <r>    4.4485    1.0000 </r>
       <r>    4.8214    1.0000 </r>
       <r>    4.8342    1.0000 </r>
       <r>    5.2342    1.0000 </r>
       <r>    6.1431    1.0000 </r>
       <r>    6.2734    1.0000 </r>
       <r>    6.7170    1.0000 </r>
       <r>    7.5895    1.0000 </r>
       <r>    8.1647    1.0000 </r>
       <r>    9.4718    0.0000 </r>
       <r>   10.0205    0.0000 </r>
       <r>   10.1490    0.0000 </r>
       <r>   10.5365    0.0000 </r>
       <r>   10.6695    0.0000 </r>
       <r>   10.7705    0.0000 </r>
       <r>   11.3118    0.0000 </r>
       <r>   12.3563    0.0000 </r>
       <r>   12.4598    0.0000 </r>
      </set>
      <set comment="kpoint 5">
       <r>  -54.7339    1.0000 </r>
       <r>  -54.7095    1.0000 </r>
       <r>  -54.0554    1.0000 </r>
       <r>  -28.2636    1.0000 </r>
       <r>  -28.2564    1.0000 </r>
       <r>  -28.2264    1.0000 </r>
       <r>  -28.2170    1.0000 </r>
       <r>  -28.0739    1.0000 </r>
       <r>  -28.0432    1.0000 </r>
       <r>  -27.7583    1.0000 </r>
       <r>  -27.7576    1.0000 </r>
       <r>  -27.6634    1.0000 </r>
       <r>   -5.5962    1.0000 </r>
       <r>   -2.6399    1.0000 </r>
       <r>   -2.2666    1.0000 </r>
       <r>   -1.4586    1.0000 </r>
       <r>   -0.7634    1.0000 </r>
       <r>   -0.7612    1.0000 </r>
       <r>   -0.7321    1.0000 </r>
       <r>   -0.2563    1.0000 </r>
       <r>    0.8323    1.0000 </r>
       <r>    1.2556    1.0000 </r>
       <r>    1.2936    1.0000 </r>
       <r>    2.2223    1.0000 </r>
       <r>    2.3782    1.0000 </r>
       <r>    2.8249    1.0000 </r>
       <r>    2.8822    1.0000 </r>
       <r>    4.0639    1.0000 </r>
       <r>    4.1581    1.0000 </r>
       <r>    4.1850    1.0000 </r>
       <r>    4.7849    1.0000 </r>
       <r>    5.2162    1.0000 </r>
       <r>    5.2704    1.0000 </r>
       <r>    5.9469    1.0000 </r>
       <r>    6.1510    1.0000 </r>
       <r>    7.3311    1.0000 </r>
       <r>    7.3579    1.0000 </r>
       <r>    7.5004    1.0000 </r>
       <r>    8.8207    0.0000 </r>
       <r>    9.1077    0.0000 </r>
       <r>    9.4396    0.0000 </r>
       <r>    9.7715    0.0000 </r>
       <r>   10.6601    0.0000 </r>
       <r>   10.7546    0.0000 </r>
       <r>   11.1930    0.0000 </r>
       <r>   11.2938    0.0000 </r>
       <r>   11.5787    0.0000 </r>
       <r>   12.3198    0.0000 </r>
      </set>
      <set comment="kpoint 6">
       <r>  -54.7294    1.0000 </r>
       <r>  -54.7140    1.0000 </r>
       <r>  -54.0554    1.0000 </r>
       <r>  -28.2637    1.0000 </r>
       <r>  -28.2549    1.0000 </r>
       <r>  -28.2256    1.0000 </r>
       <r>  -28.2028    1.0000 </r>
       <r>  -28.0979    1.0000 </r>
       <r>  -28.0356    1.0000 </r>
       <r>  -27.7588    1.0000 </r>
       <r>  -27.7579    1.0000 </r>
       <r>  -27.6636    1.0000 </r>
       <r>   -5.0926    1.0000 </r>
       <r>   -3.4916    1.0000 </r>
       <r>   -2.6857    1.0000 </r>
       <r>   -1.3879    1.0000 </r>
       <r>   -1.0275    1.0000 </r>
       <r>   -0.9452    1.0000 </r>
       <r>   -0.7673    1.0000 </r>
       <r>    0.2732    1.0000 </r>
       <r>    1.4147    1.0000 </r>
       <r>    1.8560    1.0000 </r>
       <r>    1.9749    1.0000 </r>
       <r>    2.0946    1.0000 </r>
       <r>    2.7207    1.0000 </r>
       <r>    3.1596    1.0000 </r>
       <r>    3.5514    1.0000 </r>
       <r>    3.6141    1.0000 </r>
       <r>    3.8574    1.0000 </r>
       <r>    4.0574    1.0000 </r>
       <r>    4.3814    1.0000 </r>
       <r>    4.5126    1.0000 </r>
       <r>    4.7632    1.0000 </r>
       <r>    5.5467    1.0000 </r>
       <r>    6.2443    1.0000 </r>
       <r>    6.6983    1.0000 </r>
       <r>    6.9180    1.0000 </r>
       <r>    7.4308    1.0000 </r>
       <r>    8.2854    1.0000 </r>
       <r>    9.5982    0.0000 </r>
       <r>    9.7826    0.0000 </r>
       <r>   10.2686    0.0000 </r>
       <r>   10.3430    0.0000 </r>
       <r>   10.6779    0.0000 </r>
       <r>   10.8110    0.0000 </r>
       <r>   11.4803    0.0000 </r>
       <r>   12.0433    0.0000 </r>
       <r>   12.4754    0.0000 </r>
      </set>
      <set comment="kpoint 7">
       <r>  -54.7261    1.0000 </r>
       <r>  -54.7173    1.0000 </r>
       <r>  -54.0554    1.0000 </r>
       <r>  -28.2668    1.0000 </r>
       <r>  -28.2485    1.0000 </r>
       <r>  -28.2320    1.0000 </r>
       <r>  -28.1874    1.0000 </r>
       <r>  -28.1136    1.0000 </r>
       <r>  -28.0323    1.0000 </r>
       <r>  -27.7590    1.0000 </r>
       <r>  -27.7581    1.0000 </r>
       <r>  -27.6637    1.0000 </r>
       <r>   -4.4116    1.0000 </r>
       <r>   -4.3331    1.0000 </r>
       <r>   -2.7995    1.0000 </r>
       <r>   -1.3152    1.0000 </r>
       <r>   -1.1674    1.0000 </r>
       <r>   -1.0202    1.0000 </r>
       <r>   -0.8231    1.0000 </r>
       <r>    0.8752    1.0000 </r>
       <r>    1.2796    1.0000 </r>
       <r>    2.1761    1.0000 </r>
       <r>    2.2241    1.0000 </r>
       <r>    2.5276    1.0000 </r>
       <r>    2.7839    1.0000 </r>
       <r>    2.8753    1.0000 </r>
       <r>    3.0982    1.0000 </r>
       <r>    3.4547    1.0000 </r>
       <r>    4.1843    1.0000 </r>
       <r>    4.3318    1.0000 </r>
       <r>    4.4051    1.0000 </r>
       <r>    4.4081    1.0000 </r>
       <r>    4.5546    1.0000 </r>
       <r>    5.3451    1.0000 </r>
       <r>    5.9309    1.0000 </r>
       <r>    6.5156    1.0000 </r>
       <r>    6.5729    1.0000 </r>
       <r>    7.2727    1.0000 </r>
       <r>    8.2044    1.0000 </r>
       <r>    9.6892    0.0000 </r>
       <r>    9.7621    0.0000 </r>
       <r>   10.3573    0.0000 </r>
       <r>   10.6020    0.0000 </r>
       <r>   10.6474    0.0000 </r>
       <r>   10.7001    0.0000 </r>
       <r>   11.5888    0.0000 </r>
       <r>   12.5308    0.0000 </r>
       <r>   12.5379    0.0000 </r>
      </set>
      <set comment="kpoint 8">
       <r>  -54.7247    1.0000 </r>
       <r>  -54.7187    1.0000 </r>
       <r>  -54.0554    1.0000 </r>
       <r>  -28.2698    1.0000 </r>
       <r>  -28.2459    1.0000 </r>
       <r>  -28.2345    1.0000 </r>
       <r>  -28.1719    1.0000 </r>
       <r>  -28.1293    1.0000 </r>
       <r>  -28.0292    1.0000 </r>
       <r>  -27.7587    1.0000 </r>
       <r>  -27.7583    1.0000 </r>
       <r>  -27.6637    1.0000 </r>
       <r>   -4.4937    1.0000 </r>
       <r>   -3.7901    1.0000 </r>
       <r>   -3.5502    1.0000 </r>
       <r>   -1.3046    1.0000 </r>
       <r>   -1.1754    1.0000 </r>
       <r>   -1.0513    1.0000 </r>
       <r>    0.0740    1.0000 </r>
       <r>    0.2700    1.0000 </r>
       <r>    1.0660    1.0000 </r>
       <r>    2.0812    1.0000 </r>
       <r>    2.6021    1.0000 </r>
       <r>    2.6646    1.0000 </r>
       <r>    2.8653    1.0000 </r>
       <r>    2.9489    1.0000 </r>
       <r>    3.2504    1.0000 </r>
       <r>    3.7403    1.0000 </r>
       <r>    3.8340    1.0000 </r>
       <r>    4.0549    1.0000 </r>
       <r>    4.1488    1.0000 </r>
       <r>    4.2724    1.0000 </r>
       <r>    4.5000    1.0000 </r>
       <r>    5.4551    1.0000 </r>
       <r>    6.2908    1.0000 </r>
       <r>    6.5597    1.0000 </r>
       <r>    6.6778    1.0000 </r>
       <r>    6.7347    1.0000 </r>
       <r>    8.2783    1.0000 </r>
       <r>    9.4960    0.0000 </r>
       <r>   10.0430    0.0000 </r>
       <r>   10.4155    0.0000 </r>
       <r>   10.5284    0.0000 </r>
       <r>   10.6725    0.0000 </r>
       <r>   10.7619    0.0000 </r>
       <r>   11.9887    0.0000 </r>
       <r>   12.0426    0.0000 </r>
       <r>   12.7317    0.0000 </r>
      </set>
      <set comment="kpoint 9">
       <r>  -54.7380    1.0000 </r>
       <r>  -54.7054    1.0000 </r>
       <r>  -54.0554    1.0000 </r>
       <r>  -28.2718    1.0000 </r>
       <r>  -28.2473    1.0000 </r>
       <r>  -28.2473    1.0000 </r>
       <r>  -28.2094    1.0000 </r>
       <r>  -28.0526    1.0000 </r>
       <r>  -28.0526    1.0000 </r>
       <r>  -27.7574    1.0000 </r>
       <r>  -27.7574    1.0000 </r>
       <r>  -27.6634    1.0000 </r>
       <r>   -5.8828    1.0000 </r>
       <r>   -2.0974    1.0000 </r>
       <r>   -1.7110    1.0000 </r>
       <r>   -1.7110    1.0000 </r>
       <r>   -0.5631    1.0000 </r>
       <r>   -0.5630    1.0000 </r>
       <r>    0.0896    1.0000 </r>
       <r>    0.0897    1.0000 </r>
       <r>    0.0975    1.0000 </r>
       <r>    0.0976    1.0000 </r>
       <r>    0.9935    1.0000 </r>
       <r>    1.0259    1.0000 </r>
       <r>    1.5645    1.0000 </r>
       <r>    2.9196    1.0000 </r>
       <r>    2.9197    1.0000 </r>
       <r>    4.0385    1.0000 </r>
       <r>    4.4326    1.0000 </r>
       <r>    5.0417    1.0000 </r>
       <r>    5.0418    1.0000 </r>
       <r>    6.3223    1.0000 </r>
       <r>    6.3223    1.0000 </r>
       <r>    6.5044    1.0000 </r>
       <r>    6.5045    1.0000 </r>
       <r>    6.8916    1.0000 </r>
       <r>    7.0437    1.0000 </r>
       <r>    7.0437    1.0000 </r>
       <r>    8.8938    0.0000 </r>
       <r>    8.8938    0.0000 </r>
       <r>    9.5636    0.0000 </r>
       <r>    9.9302    0.0000 </r>
       <r>   11.0861    0.0000 </r>
       <r>   11.0950    0.0000 </r>
       <r>   11.2577    0.0000 </r>
       <r>   11.2640    0.0000 </r>
       <r>   11.5904    0.0000 </r>
       <r>   11.8336    0.0000 </r>
      </set>
      <set comment="kpoint 10">
       <r>  -54.7366    1.0000 </r>
       <r>  -54.7068    1.0000 </r>
       <r>  -54.0554    1.0000 </r>
       <r>  -28.2690    1.0000 </r>
       <r>  -28.2505    1.0000 </r>
       <r>  -28.2403    1.0000 </r>
       <r>  -28.2121    1.0000 </r>
       <r>  -28.0597    1.0000 </r>
       <r>  -28.0492    1.0000 </r>
       <r>  -27.7578    1.0000 </r>
       <r>  -27.7575    1.0000 </r>
       <r>  -27.6635    1.0000 </r>
       <r>   -5.7537    1.0000 </r>
       <r>   -2.1744    1.0000 </r>
       <r>   -2.0267    1.0000 </r>
       <r>   -1.7963    1.0000 </r>
       <r>   -0.8528    1.0000 </r>
       <r>   -0.4957    1.0000 </r>
       <r>   -0.4600    1.0000 </r>
       <r>   -0.2241    1.0000 </r>
       <r>    0.6180    1.0000 </r>
       <r>    0.7055    1.0000 </r>
       <r>    1.1408    1.0000 </r>
       <r>    1.5440    1.0000 </r>
       <r>    2.0895    1.0000 </r>
       <r>    2.8298    1.0000 </r>
       <r>    2.9128    1.0000 </r>
       <r>    4.0402    1.0000 </r>
       <r>    4.1877    1.0000 </r>
       <r>    4.8120    1.0000 </r>
       <r>    5.0674    1.0000 </r>
       <r>    5.7487    1.0000 </r>
       <r>    5.9183    1.0000 </r>
       <r>    6.2697    1.0000 </r>
       <r>    6.3132    1.0000 </r>
       <r>    7.1215    1.0000 </r>
       <r>    7.1425    1.0000 </r>
       <r>    7.2705    1.0000 </r>
       <r>    8.9498    0.0000 </r>
       <r>    9.0376    0.0000 </r>
       <r>    9.4396    0.0000 </r>
       <r>    9.8201    0.0000 </r>
       <r>   10.8634    0.0000 </r>
       <r>   10.9605    0.0000 </r>
       <r>   11.2468    0.0000 </r>
       <r>   11.3229    0.0000 </r>
       <r>   11.6785    0.0000 </r>
       <r>   12.0721    0.0000 </r>
      </set>
      <set comment="kpoint 11">
       <r>  -54.7327    1.0000 </r>
       <r>  -54.7107    1.0000 </r>
       <r>  -54.0554    1.0000 </r>
       <r>  -28.2616    1.0000 </r>
       <r>  -28.2574    1.0000 </r>
       <r>  -28.2219    1.0000 </r>
       <r>  -28.2195    1.0000 </r>
       <r>  -28.0784    1.0000 </r>
       <r>  -28.0420    1.0000 </r>
       <r>  -27.7584    1.0000 </r>
       <r>  -27.7578    1.0000 </r>
       <r>  -27.6636    1.0000 </r>
       <r>   -5.3739    1.0000 </r>
       <r>   -3.0487    1.0000 </r>
       <r>   -1.9364    1.0000 </r>
       <r>   -1.9119    1.0000 </r>
       <r>   -1.2643    1.0000 </r>
       <r>   -0.9346    1.0000 </r>
       <r>   -0.7449    1.0000 </r>
       <r>    0.2216    1.0000 </r>
       <r>    1.2160    1.0000 </r>
       <r>    1.4210    1.0000 </r>
       <r>    1.4836    1.0000 </r>
       <r>    2.3669    1.0000 </r>
       <r>    2.5516    1.0000 </r>
       <r>    2.9637    1.0000 </r>
       <r>    3.1931    1.0000 </r>
       <r>    3.6444    1.0000 </r>
       <r>    3.9244    1.0000 </r>
       <r>    4.4306    1.0000 </r>
       <r>    4.7486    1.0000 </r>
       <r>    5.0293    1.0000 </r>
       <r>    5.4020    1.0000 </r>
       <r>    5.9658    1.0000 </r>
       <r>    6.0443    1.0000 </r>
       <r>    6.9650    1.0000 </r>
       <r>    7.0495    1.0000 </r>
       <r>    7.4323    1.0000 </r>
       <r>    8.6000    0.2119 </r>
       <r>    9.3178    0.0000 </r>
       <r>    9.3328    0.0000 </r>
       <r>   10.1471    0.0000 </r>
       <r>   10.2910    0.0000 </r>
       <r>   10.7275    0.0000 </r>
       <r>   11.2154    0.0000 </r>
       <r>   11.3518    0.0000 </r>
       <r>   11.7261    0.0000 </r>
       <r>   11.8673    0.0000 </r>
      </set>
      <set comment="kpoint 12">
       <r>  -54.7281    1.0000 </r>
       <r>  -54.7153    1.0000 </r>
       <r>  -54.0554    1.0000 </r>
       <r>  -28.2626    1.0000 </r>
       <r>  -28.2528    1.0000 </r>
       <r>  -28.2282    1.0000 </r>
       <r>  -28.2024    1.0000 </r>
       <r>  -28.0983    1.0000 </r>
       <r>  -28.0366    1.0000 </r>
       <r>  -27.7589    1.0000 </r>
       <r>  -27.7580    1.0000 </r>
       <r>  -27.6637    1.0000 </r>
       <r>   -4.7657    1.0000 </r>
       <r>   -3.9677    1.0000 </r>
       <r>   -2.0217    1.0000 </r>
       <r>   -1.7329    1.0000 </r>
       <r>   -1.5398    1.0000 </r>
       <r>   -1.2325    1.0000 </r>
       <r>   -0.8978    1.0000 </r>
       <r>    0.8146    1.0000 </r>
       <r>    1.6872    1.0000 </r>
       <r>    1.7426    1.0000 </r>
       <r>    2.0275    1.0000 </r>
       <r>    2.5281    1.0000 </r>
       <r>    2.6272    1.0000 </r>
       <r>    2.8443    1.0000 </r>
       <r>    3.2737    1.0000 </r>
       <r>    3.7877    1.0000 </r>
       <r>    3.9692    1.0000 </r>
       <r>    4.1234    1.0000 </r>
       <r>    4.4845    1.0000 </r>
       <r>    4.8877    1.0000 </r>
       <r>    5.0557    1.0000 </r>
       <r>    5.6694    1.0000 </r>
       <r>    6.2258    1.0000 </r>
       <r>    6.2323    1.0000 </r>
       <r>    6.6092    1.0000 </r>
       <r>    7.4772    1.0000 </r>
       <r>    8.1624    1.0000 </r>
       <r>    9.5577    0.0000 </r>
       <r>    9.6726    0.0000 </r>
       <r>    9.8199    0.0000 </r>
       <r>    9.9517    0.0000 </r>
       <r>   11.1213    0.0000 </r>
       <r>   11.2255    0.0000 </r>
       <r>   11.3297    0.0000 </r>
       <r>   11.8261    0.0000 </r>
       <r>   12.3578    0.0000 </r>
      </set>
      <set comment="kpoint 13">
       <r>  -54.7339    1.0000 </r>
       <r>  -54.7095    1.0000 </r>
       <r>  -54.0554    1.0000 </r>
       <r>  -28.2639    1.0000 </r>
       <r>  -28.2564    1.0000 </r>
       <r>  -28.2263    1.0000 </r>
       <r>  -28.2172    1.0000 </r>
       <r>  -28.0739    1.0000 </r>
       <r>  -28.0431    1.0000 </r>
       <r>  -27.7583    1.0000 </r>
       <r>  -27.7577    1.0000 </r>
       <r>  -27.6635    1.0000 </r>
       <r>   -5.4992    1.0000 </r>
       <r>   -2.6178    1.0000 </r>
       <r>   -2.3398    1.0000 </r>
       <r>   -1.8827    1.0000 </r>
       <r>   -0.9096    1.0000 </r>
       <r>   -0.8085    1.0000 </r>
       <r>   -0.4982    1.0000 </r>
       <r>   -0.2279    1.0000 </r>
       <r>    1.0966    1.0000 </r>
       <r>    1.1889    1.0000 </r>
       <r>    1.3727    1.0000 </r>
       <r>    2.3145    1.0000 </r>
       <r>    2.4659    1.0000 </r>
       <r>    2.9256    1.0000 </r>
       <r>    2.9509    1.0000 </r>
       <r>    3.8058    1.0000 </r>
       <r>    4.0395    1.0000 </r>
       <r>    4.4577    1.0000 </r>
       <r>    4.9627    1.0000 </r>
       <r>    5.2733    1.0000 </r>
       <r>    5.3008    1.0000 </r>
       <r>    5.9622    1.0000 </r>
       <r>    6.1863    1.0000 </r>
       <r>    7.0827    1.0000 </r>
       <r>    7.2037    1.0000 </r>
       <r>    7.3527    1.0000 </r>
       <r>    8.7958    0.0000 </r>
       <r>    9.1163    0.0000 </r>
       <r>    9.3761    0.0000 </r>
       <r>   10.0925    0.0000 </r>
       <r>   10.4549    0.0000 </r>
       <r>   10.6939    0.0000 </r>
       <r>   11.2758    0.0000 </r>
       <r>   11.2835    0.0000 </r>
       <r>   11.5728    0.0000 </r>
       <r>   12.3625    0.0000 </r>
      </set>
      <set comment="kpoint 14">
       <r>  -54.7294    1.0000 </r>
       <r>  -54.7140    1.0000 </r>
       <r>  -54.0554    1.0000 </r>
       <r>  -28.2637    1.0000 </r>
       <r>  -28.2552    1.0000 </r>
       <r>  -28.2258    1.0000 </r>
       <r>  -28.2028    1.0000 </r>
       <r>  -28.0980    1.0000 </r>
       <r>  -28.0355    1.0000 </r>
       <r>  -27.7587    1.0000 </r>
       <r>  -27.7580    1.0000 </r>
       <r>  -27.6637    1.0000 </r>
       <r>   -5.0049    1.0000 </r>
       <r>   -3.4424    1.0000 </r>
       <r>   -2.6866    1.0000 </r>
       <r>   -1.7335    1.0000 </r>
       <r>   -1.1426    1.0000 </r>
       <r>   -1.0309    1.0000 </r>
       <r>   -0.6209    1.0000 </r>
       <r>    0.3008    1.0000 </r>
       <r>    1.5988    1.0000 </r>
       <r>    1.6833    1.0000 </r>
       <r>    1.8064    1.0000 </r>
       <r>    2.2773    1.0000 </r>
       <r>    2.8043    1.0000 </r>
       <r>    3.1346    1.0000 </r>
       <r>    3.6051    1.0000 </r>
       <r>    3.6648    1.0000 </r>
       <r>    3.8175    1.0000 </r>
       <r>    4.1755    1.0000 </r>
       <r>    4.4587    1.0000 </r>
       <r>    4.6996    1.0000 </r>
       <r>    4.9383    1.0000 </r>
       <r>    5.7653    1.0000 </r>
       <r>    6.2325    1.0000 </r>
       <r>    6.7110    1.0000 </r>
       <r>    6.7813    1.0000 </r>
       <r>    7.3499    1.0000 </r>
       <r>    8.2537    1.0000 </r>
       <r>    9.4193    0.0000 </r>
       <r>    9.6595    0.0000 </r>
       <r>    9.8919    0.0000 </r>
       <r>   10.0502    0.0000 </r>
       <r>   10.9276    0.0000 </r>
       <r>   11.3263    0.0000 </r>
       <r>   11.4561    0.0000 </r>
       <r>   11.7983    0.0000 </r>
       <r>   12.2195    0.0000 </r>
      </set>
      <set comment="kpoint 15">
       <r>  -54.7261    1.0000 </r>
       <r>  -54.7173    1.0000 </r>
       <r>  -54.0554    1.0000 </r>
       <r>  -28.2668    1.0000 </r>
       <r>  -28.2488    1.0000 </r>
       <r>  -28.2322    1.0000 </r>
       <r>  -28.1874    1.0000 </r>
       <r>  -28.1135    1.0000 </r>
       <r>  -28.0323    1.0000 </r>
       <r>  -27.7588    1.0000 </r>
       <r>  -27.7581    1.0000 </r>
       <r>  -27.6637    1.0000 </r>
       <r>   -4.3184    1.0000 </r>
       <r>   -4.2828    1.0000 </r>
       <r>   -2.7840    1.0000 </r>
       <r>   -1.5932    1.0000 </r>
       <r>   -1.3441    1.0000 </r>
       <r>   -1.0914    1.0000 </r>
       <r>   -0.6857    1.0000 </r>
       <r>    0.8499    1.0000 </r>
       <r>    1.3191    1.0000 </r>
       <r>    1.9053    1.0000 </r>
       <r>    2.3066    1.0000 </r>
       <r>    2.4151    1.0000 </r>
       <r>    2.8089    1.0000 </r>
       <r>    3.0315    1.0000 </r>
       <r>    3.3010    1.0000 </r>
       <r>    3.5320    1.0000 </r>
       <r>    4.0556    1.0000 </r>
       <r>    4.3120    1.0000 </r>
       <r>    4.4327    1.0000 </r>
       <r>    4.5597    1.0000 </r>
       <r>    4.9856    1.0000 </r>
       <r>    5.7208    1.0000 </r>
       <r>    6.0333    1.0000 </r>
       <r>    6.4027    1.0000 </r>
       <r>    6.4989    1.0000 </r>
       <r>    7.2208    1.0000 </r>
       <r>    8.1568    1.0000 </r>
       <r>    9.6264    0.0000 </r>
       <r>    9.6988    0.0000 </r>
       <r>    9.7419    0.0000 </r>
       <r>    9.8467    0.0000 </r>
       <r>   11.2375    0.0000 </r>
       <r>   11.3573    0.0000 </r>
       <r>   11.4547    0.0000 </r>
       <r>   11.9942    0.0000 </r>
       <r>   12.4882    0.0000 </r>
      </set>
      <set comment="kpoint 16">
       <r>  -54.7247    1.0000 </r>
       <r>  -54.7187    1.0000 </r>
       <r>  -54.0554    1.0000 </r>
       <r>  -28.2699    1.0000 </r>
       <r>  -28.2462    1.0000 </r>
       <r>  -28.2347    1.0000 </r>
       <r>  -28.1718    1.0000 </r>
       <r>  -28.1292    1.0000 </r>
       <r>  -28.0292    1.0000 </r>
       <r>  -27.7586    1.0000 </r>
       <r>  -27.7583    1.0000 </r>
       <r>  -27.6637    1.0000 </r>
       <r>   -4.4152    1.0000 </r>
       <r>   -3.7123    1.0000 </r>
       <r>   -3.5331    1.0000 </r>
       <r>   -1.5644    1.0000 </r>
       <r>   -1.3451    1.0000 </r>
       <r>   -1.0917    1.0000 </r>
       <r>    0.1486    1.0000 </r>
       <r>    0.2863    1.0000 </r>
       <r>    1.0843    1.0000 </r>
       <r>    2.0714    1.0000 </r>
       <r>    2.2198    1.0000 </r>
       <r>    2.4140    1.0000 </r>
       <r>    3.0605    1.0000 </r>
       <r>    3.0993    1.0000 </r>
       <r>    3.5156    1.0000 </r>
       <r>    3.7287    1.0000 </r>
       <r>    3.8992    1.0000 </r>
       <r>    3.9788    1.0000 </r>
       <r>    4.3004    1.0000 </r>
       <r>    4.4788    1.0000 </r>
       <r>    4.9083    1.0000 </r>
       <r>    5.7943    1.0000 </r>
       <r>    6.3641    1.0000 </r>
       <r>    6.4555    1.0000 </r>
       <r>    6.5389    1.0000 </r>
       <r>    6.7498    1.0000 </r>
       <r>    8.1900    1.0000 </r>
       <r>    9.5267    0.0000 </r>
       <r>    9.5923    0.0000 </r>
       <r>    9.7121    0.0000 </r>
       <r>   10.0605    0.0000 </r>
       <r>   11.2177    0.0000 </r>
       <r>   11.4421    0.0000 </r>
       <r>   11.9617    0.0000 </r>
       <r>   12.0608    0.0000 </r>
       <r>   12.3856    0.0000 </r>
      </set>
      <set comment="kpoint 17">
       <r>  -54.7380    1.0000 </r>
       <r>  -54.7054    1.0000 </r>
       <r>  -54.0554    1.0000 </r>
       <r>  -28.2721    1.0000 </r>
       <r>  -28.2472    1.0000 </r>
       <r>  -28.2472    1.0000 </r>
       <r>  -28.2097    1.0000 </r>
       <r>  -28.0522    1.0000 </r>
       <r>  -28.0522    1.0000 </r>
       <r>  -27.7578    1.0000 </r>
       <r>  -27.7578    1.0000 </r>
       <r>  -27.6640    1.0000 </r>
       <r>   -5.5895    1.0000 </r>
       <r>   -3.0162    1.0000 </r>
       <r>   -1.8956    1.0000 </r>
       <r>   -1.8955    1.0000 </r>
       <r>   -0.5090    1.0000 </r>
       <r>   -0.5089    1.0000 </r>
       <r>   -0.0676    1.0000 </r>
       <r>   -0.0676    1.0000 </r>
       <r>    0.3882    1.0000 </r>
       <r>    0.3883    1.0000 </r>
       <r>    1.3570    1.0000 </r>
       <r>    1.8061    1.0000 </r>
       <r>    2.2579    1.0000 </r>
       <r>    3.1292    1.0000 </r>
       <r>    3.1293    1.0000 </r>
       <r>    3.4265    1.0000 </r>
       <r>    3.9986    1.0000 </r>
       <r>    5.3918    1.0000 </r>
       <r>    5.3918    1.0000 </r>
       <r>    6.1629    1.0000 </r>
       <r>    6.1629    1.0000 </r>
       <r>    6.2414    1.0000 </r>
       <r>    6.3958    1.0000 </r>
       <r>    6.3958    1.0000 </r>
       <r>    6.4289    1.0000 </r>
       <r>    6.4289    1.0000 </r>
       <r>    9.6161    0.0000 </r>
       <r>    9.6389    0.0000 </r>
       <r>    9.6390    0.0000 </r>
       <r>    9.8873    0.0000 </r>
       <r>   10.9274    0.0000 </r>
       <r>   10.9279    0.0000 </r>
       <r>   11.4248    0.0000 </r>
       <r>   11.4299    0.0000 </r>
       <r>   11.5731    0.0000 </r>
       <r>   11.8398    0.0000 </r>
      </set>
      <set comment="kpoint 18">
       <r>  -54.7366    1.0000 </r>
       <r>  -54.7068    1.0000 </r>
       <r>  -54.0554    1.0000 </r>
       <r>  -28.2694    1.0000 </r>
       <r>  -28.2504    1.0000 </r>
       <r>  -28.2402    1.0000 </r>
       <r>  -28.2125    1.0000 </r>
       <r>  -28.0595    1.0000 </r>
       <r>  -28.0489    1.0000 </r>
       <r>  -27.7580    1.0000 </r>
       <r>  -27.7579    1.0000 </r>
       <r>  -27.6639    1.0000 </r>
       <r>   -5.4676    1.0000 </r>
       <r>   -2.9463    1.0000 </r>
       <r>   -2.1970    1.0000 </r>
       <r>   -1.9670    1.0000 </r>
       <r>   -0.7507    1.0000 </r>
       <r>   -0.4936    1.0000 </r>
       <r>   -0.4227    1.0000 </r>
       <r>   -0.1050    1.0000 </r>
       <r>    0.4642    1.0000 </r>
       <r>    0.7278    1.0000 </r>
       <r>    1.8526    1.0000 </r>
       <r>    2.2110    1.0000 </r>
       <r>    2.3262    1.0000 </r>
       <r>    3.0675    1.0000 </r>
       <r>    3.0767    1.0000 </r>
       <r>    3.6706    1.0000 </r>
       <r>    3.8008    1.0000 </r>
       <r>    5.1309    1.0000 </r>
       <r>    5.3919    1.0000 </r>
       <r>    5.6343    1.0000 </r>
       <r>    5.8758    1.0000 </r>
       <r>    6.1390    1.0000 </r>
       <r>    6.2774    1.0000 </r>
       <r>    6.5874    1.0000 </r>
       <r>    6.6433    1.0000 </r>
       <r>    6.7633    1.0000 </r>
       <r>    9.0073    0.0000 </r>
       <r>    9.3762    0.0000 </r>
       <r>    9.6294    0.0000 </r>
       <r>   10.1767    0.0000 </r>
       <r>   10.6779    0.0000 </r>
       <r>   10.7911    0.0000 </r>
       <r>   11.3292    0.0000 </r>
       <r>   11.5390    0.0000 </r>
       <r>   11.6830    0.0000 </r>
       <r>   12.2183    0.0000 </r>
      </set>
      <set comment="kpoint 19">
       <r>  -54.7327    1.0000 </r>
       <r>  -54.7107    1.0000 </r>
       <r>  -54.0554    1.0000 </r>
       <r>  -28.2622    1.0000 </r>
       <r>  -28.2572    1.0000 </r>
       <r>  -28.2219    1.0000 </r>
       <r>  -28.2198    1.0000 </r>
       <r>  -28.0785    1.0000 </r>
       <r>  -28.0419    1.0000 </r>
       <r>  -27.7583    1.0000 </r>
       <r>  -27.7580    1.0000 </r>
       <r>  -27.6638    1.0000 </r>
       <r>   -5.1101    1.0000 </r>
       <r>   -3.0260    1.0000 </r>
       <r>   -2.6172    1.0000 </r>
       <r>   -2.0942    1.0000 </r>
       <r>   -1.1061    1.0000 </r>
       <r>   -1.0328    1.0000 </r>
       <r>   -0.6615    1.0000 </r>
       <r>    0.2895    1.0000 </r>
       <r>    0.7433    1.0000 </r>
       <r>    1.2943    1.0000 </r>
       <r>    2.2849    1.0000 </r>
       <r>    2.4747    1.0000 </r>
       <r>    2.8983    1.0000 </r>
       <r>    3.0551    1.0000 </r>
       <r>    3.2904    1.0000 </r>
       <r>    3.5618    1.0000 </r>
       <r>    4.0501    1.0000 </r>
       <r>    4.7243    1.0000 </r>
       <r>    4.7270    1.0000 </r>
       <r>    5.2443    1.0000 </r>
       <r>    5.6219    1.0000 </r>
       <r>    5.9638    1.0000 </r>
       <r>    6.2052    1.0000 </r>
       <r>    6.5430    1.0000 </r>
       <r>    6.8555    1.0000 </r>
       <r>    7.0998    1.0000 </r>
       <r>    8.4428    1.0000 </r>
       <r>    8.9512    0.0000 </r>
       <r>    9.5701    0.0000 </r>
       <r>    9.7176    0.0000 </r>
       <r>   10.1949    0.0000 </r>
       <r>   10.9412    0.0000 </r>
       <r>   11.3284    0.0000 </r>
       <r>   11.5118    0.0000 </r>
       <r>   11.6137    0.0000 </r>
       <r>   11.8500    0.0000 </r>
      </set>
      <set comment="kpoint 20">
       <r>  -54.7281    1.0000 </r>
       <r>  -54.7153    1.0000 </r>
       <r>  -54.0554    1.0000 </r>
       <r>  -28.2624    1.0000 </r>
       <r>  -28.2535    1.0000 </r>
       <r>  -28.2286    1.0000 </r>
       <r>  -28.2026    1.0000 </r>
       <r>  -28.0983    1.0000 </r>
       <r>  -28.0365    1.0000 </r>
       <r>  -27.7585    1.0000 </r>
       <r>  -27.7582    1.0000 </r>
       <r>  -27.6637    1.0000 </r>
       <r>   -4.5438    1.0000 </r>
       <r>   -3.7987    1.0000 </r>
       <r>   -2.3388    1.0000 </r>
       <r>   -2.1760    1.0000 </r>
       <r>   -1.6288    1.0000 </r>
       <r>   -1.2340    1.0000 </r>
       <r>   -0.7785    1.0000 </r>
       <r>    0.7872    1.0000 </r>
       <r>    0.9464    1.0000 </r>
       <r>    1.6689    1.0000 </r>
       <r>    2.3863    1.0000 </r>
       <r>    2.7736    1.0000 </r>
       <r>    2.8229    1.0000 </r>
       <r>    2.8942    1.0000 </r>
       <r>    3.4926    1.0000 </r>
       <r>    3.9258    1.0000 </r>
       <r>    4.1104    1.0000 </r>
       <r>    4.4867    1.0000 </r>
       <r>    4.5654    1.0000 </r>
       <r>    4.9959    1.0000 </r>
       <r>    5.4427    1.0000 </r>
       <r>    6.1160    1.0000 </r>
       <r>    6.3227    1.0000 </r>
       <r>    6.3940    1.0000 </r>
       <r>    6.4270    1.0000 </r>
       <r>    7.1071    1.0000 </r>
       <r>    8.0891    1.0000 </r>
       <r>    8.9619    0.0000 </r>
       <r>    9.3458    0.0000 </r>
       <r>    9.4243    0.0000 </r>
       <r>    9.8422    0.0000 </r>
       <r>   11.1483    0.0000 </r>
       <r>   11.3323    0.0000 </r>
       <r>   11.4063    0.0000 </r>
       <r>   12.0237    0.0000 </r>
       <r>   12.1736    0.0000 </r>
      </set>
      <set comment="kpoint 21">
       <r>  -54.7339    1.0000 </r>
       <r>  -54.7095    1.0000 </r>
       <r>  -54.0554    1.0000 </r>
       <r>  -28.2644    1.0000 </r>
       <r>  -28.2563    1.0000 </r>
       <r>  -28.2262    1.0000 </r>
       <r>  -28.2176    1.0000 </r>
       <r>  -28.0740    1.0000 </r>
       <r>  -28.0429    1.0000 </r>
       <r>  -27.7582    1.0000 </r>
       <r>  -27.7580    1.0000 </r>
       <r>  -27.6638    1.0000 </r>
       <r>   -5.2278    1.0000 </r>
       <r>   -2.8390    1.0000 </r>
       <r>   -2.5691    1.0000 </r>
       <r>   -2.2578    1.0000 </r>
       <r>   -0.9051    1.0000 </r>
       <r>   -0.8971    1.0000 </r>
       <r>   -0.3741    1.0000 </r>
       <r>   -0.1346    1.0000 </r>
       <r>    0.7842    1.0000 </r>
       <r>    1.0604    1.0000 </r>
       <r>    2.3609    1.0000 </r>
       <r>    2.3627    1.0000 </r>
       <r>    2.6216    1.0000 </r>
       <r>    3.1001    1.0000 </r>
       <r>    3.2910    1.0000 </r>
       <r>    3.5349    1.0000 </r>
       <r>    3.9125    1.0000 </r>
       <r>    4.7721    1.0000 </r>
       <r>    5.2610    1.0000 </r>
       <r>    5.2921    1.0000 </r>
       <r>    5.4857    1.0000 </r>
       <r>    5.8518    1.0000 </r>
       <r>    6.2195    1.0000 </r>
       <r>    6.7985    1.0000 </r>
       <r>    6.8008    1.0000 </r>
       <r>    7.0119    1.0000 </r>
       <r>    8.7028    0.0000 </r>
       <r>    8.7673    0.0000 </r>
       <r>    9.5606    0.0000 </r>
       <r>   10.1038    0.0000 </r>
       <r>   10.1968    0.0000 </r>
       <r>   10.9254    0.0000 </r>
       <r>   11.3349    0.0000 </r>
       <r>   11.4489    0.0000 </r>
       <r>   11.7519    0.0000 </r>
       <r>   12.1945    0.0000 </r>
      </set>
      <set comment="kpoint 22">
       <r>  -54.7294    1.0000 </r>
       <r>  -54.7140    1.0000 </r>
       <r>  -54.0554    1.0000 </r>
       <r>  -28.2636    1.0000 </r>
       <r>  -28.2559    1.0000 </r>
       <r>  -28.2263    1.0000 </r>
       <r>  -28.2026    1.0000 </r>
       <r>  -28.0980    1.0000 </r>
       <r>  -28.0355    1.0000 </r>
       <r>  -27.7584    1.0000 </r>
       <r>  -27.7582    1.0000 </r>
       <r>  -27.6637    1.0000 </r>
       <r>   -4.7638    1.0000 </r>
       <r>   -3.3225    1.0000 </r>
       <r>   -2.7148    1.0000 </r>
       <r>   -2.3610    1.0000 </r>
       <r>   -1.3991    1.0000 </r>
       <r>   -1.0313    1.0000 </r>
       <r>   -0.4781    1.0000 </r>
       <r>    0.3482    1.0000 </r>
       <r>    1.0760    1.0000 </r>
       <r>    1.4661    1.0000 </r>
       <r>    2.1824    1.0000 </r>
       <r>    2.6947    1.0000 </r>
       <r>    2.7780    1.0000 </r>
       <r>    3.0500    1.0000 </r>
       <r>    3.6416    1.0000 </r>
       <r>    3.9684    1.0000 </r>
       <r>    4.1578    1.0000 </r>
       <r>    4.3378    1.0000 </r>
       <r>    4.6577    1.0000 </r>
       <r>    5.1340    1.0000 </r>
       <r>    5.2368    1.0000 </r>
       <r>    5.9459    1.0000 </r>
       <r>    6.2109    1.0000 </r>
       <r>    6.6630    1.0000 </r>
       <r>    6.7171    1.0000 </r>
       <r>    7.1377    1.0000 </r>
       <r>    8.1652    1.0000 </r>
       <r>    8.6459    0.0000 </r>
       <r>    9.1847    0.0000 </r>
       <r>    9.7853    0.0000 </r>
       <r>    9.9398    0.0000 </r>
       <r>   11.0885    0.0000 </r>
       <r>   11.4076    0.0000 </r>
       <r>   11.6121    0.0000 </r>
       <r>   11.8373    0.0000 </r>
       <r>   12.1597    0.0000 </r>
      </set>
      <set comment="kpoint 23">
       <r>  -54.7261    1.0000 </r>
       <r>  -54.7173    1.0000 </r>
       <r>  -54.0554    1.0000 </r>
       <r>  -28.2668    1.0000 </r>
       <r>  -28.2496    1.0000 </r>
       <r>  -28.2326    1.0000 </r>
       <r>  -28.1874    1.0000 </r>
       <r>  -28.1134    1.0000 </r>
       <r>  -28.0323    1.0000 </r>
       <r>  -27.7585    1.0000 </r>
       <r>  -27.7582    1.0000 </r>
       <r>  -27.6637    1.0000 </r>
       <r>   -4.1592    1.0000 </r>
       <r>   -4.0512    1.0000 </r>
       <r>   -2.7419    1.0000 </r>
       <r>   -2.1895    1.0000 </r>
       <r>   -1.7149    1.0000 </r>
       <r>   -1.0837    1.0000 </r>
       <r>   -0.5321    1.0000 </r>
       <r>    0.7916    1.0000 </r>
       <r>    1.1674    1.0000 </r>
       <r>    1.4840    1.0000 </r>
       <r>    2.1084    1.0000 </r>
       <r>    2.5438    1.0000 </r>
       <r>    3.0683    1.0000 </r>
       <r>    3.1024    1.0000 </r>
       <r>    3.6637    1.0000 </r>
       <r>    3.8684    1.0000 </r>
       <r>    4.0835    1.0000 </r>
       <r>    4.4764    1.0000 </r>
       <r>    4.8121    1.0000 </r>
       <r>    4.8837    1.0000 </r>
       <r>    5.4226    1.0000 </r>
       <r>    6.1563    1.0000 </r>
       <r>    6.1868    1.0000 </r>
       <r>    6.3147    1.0000 </r>
       <r>    6.5613    1.0000 </r>
       <r>    6.9940    1.0000 </r>
       <r>    8.0255    1.0000 </r>
       <r>    8.7722    0.0000 </r>
       <r>    8.9136    0.0000 </r>
       <r>    9.6294    0.0000 </r>
       <r>    9.8700    0.0000 </r>
       <r>   11.2290    0.0000 </r>
       <r>   11.3466    0.0000 </r>
       <r>   11.7635    0.0000 </r>
       <r>   12.3809    0.0000 </r>
       <r>   12.5074    0.0000 </r>
      </set>
      <set comment="kpoint 24">
       <r>  -54.7247    1.0000 </r>
       <r>  -54.7187    1.0000 </r>
       <r>  -54.0554    1.0000 </r>
       <r>  -28.2700    1.0000 </r>
       <r>  -28.2469    1.0000 </r>
       <r>  -28.2353    1.0000 </r>
       <r>  -28.1716    1.0000 </r>
       <r>  -28.1291    1.0000 </r>
       <r>  -28.0291    1.0000 </r>
       <r>  -27.7584    1.0000 </r>
       <r>  -27.7583    1.0000 </r>
       <r>  -27.6637    1.0000 </r>
       <r>   -4.2099    1.0000 </r>
       <r>   -3.4998    1.0000 </r>
       <r>   -3.4735    1.0000 </r>
       <r>   -2.1244    1.0000 </r>
       <r>   -1.7363    1.0000 </r>
       <r>   -1.1383    1.0000 </r>
       <r>    0.2435    1.0000 </r>
       <r>    0.3249    1.0000 </r>
       <r>    1.1511    1.0000 </r>
       <r>    1.5708    1.0000 </r>
       <r>    1.8687    1.0000 </r>
       <r>    2.2405    1.0000 </r>
       <r>    3.2727    1.0000 </r>
       <r>    3.3414    1.0000 </r>
       <r>    3.7993    1.0000 </r>
       <r>    3.8579    1.0000 </r>
       <r>    4.0900    1.0000 </r>
       <r>    4.3218    1.0000 </r>
       <r>    4.8795    1.0000 </r>
       <r>    4.8852    1.0000 </r>
       <r>    5.4192    1.0000 </r>
       <r>    6.0603    1.0000 </r>
       <r>    6.2132    1.0000 </r>
       <r>    6.5155    1.0000 </r>
       <r>    6.6499    1.0000 </r>
       <r>    6.7917    1.0000 </r>
       <r>    8.0099    1.0000 </r>
       <r>    8.5263    1.0000 </r>
       <r>    8.7521    0.0000 </r>
       <r>    9.6578    0.0000 </r>
       <r>    9.9278    0.0000 </r>
       <r>   11.3173    0.0000 </r>
       <r>   11.6238    0.0000 </r>
       <r>   11.6399    0.0000 </r>
       <r>   12.3176    0.0000 </r>
       <r>   12.5970    0.0000 </r>
      </set>
      <set comment="kpoint 25">
       <r>  -54.7380    1.0000 </r>
       <r>  -54.7054    1.0000 </r>
       <r>  -54.0554    1.0000 </r>
       <r>  -28.2723    1.0000 </r>
       <r>  -28.2472    1.0000 </r>
       <r>  -28.2472    1.0000 </r>
       <r>  -28.2100    1.0000 </r>
       <r>  -28.0519    1.0000 </r>
       <r>  -28.0519    1.0000 </r>
       <r>  -27.7581    1.0000 </r>
       <r>  -27.7581    1.0000 </r>
       <r>  -27.6645    1.0000 </r>
       <r>   -5.2183    1.0000 </r>
       <r>   -3.7330    1.0000 </r>
       <r>   -2.0162    1.0000 </r>
       <r>   -2.0161    1.0000 </r>
       <r>   -0.4135    1.0000 </r>
       <r>   -0.4134    1.0000 </r>
       <r>   -0.2409    1.0000 </r>
       <r>   -0.2408    1.0000 </r>
       <r>    0.5931    1.0000 </r>
       <r>    0.5932    1.0000 </r>
       <r>    1.9178    1.0000 </r>
       <r>    2.1453    1.0000 </r>
       <r>    2.6828    1.0000 </r>
       <r>    3.2891    1.0000 </r>
       <r>    3.3716    1.0000 </r>
       <r>    3.3717    1.0000 </r>
       <r>    3.6484    1.0000 </r>
       <r>    5.3644    1.0000 </r>
       <r>    5.5877    1.0000 </r>
       <r>    5.5877    1.0000 </r>
       <r>    5.7172    1.0000 </r>
       <r>    5.7172    1.0000 </r>
       <r>    6.3311    1.0000 </r>
       <r>    6.3311    1.0000 </r>
       <r>    6.4312    1.0000 </r>
       <r>    6.4312    1.0000 </r>
       <r>    9.6535    0.0000 </r>
       <r>    9.8680    0.0000 </r>
       <r>   10.1413    0.0000 </r>
       <r>   10.1413    0.0000 </r>
       <r>   10.7406    0.0000 </r>
       <r>   10.7406    0.0000 </r>
       <r>   11.0332    0.0000 </r>
       <r>   11.0334    0.0000 </r>
       <r>   11.8460    0.0000 </r>
       <r>   11.9701    0.0000 </r>
      </set>
      <set comment="kpoint 26">
       <r>  -54.7366    1.0000 </r>
       <r>  -54.7068    1.0000 </r>
       <r>  -54.0554    1.0000 </r>
       <r>  -28.2697    1.0000 </r>
       <r>  -28.2503    1.0000 </r>
       <r>  -28.2401    1.0000 </r>
       <r>  -28.2127    1.0000 </r>
       <r>  -28.0593    1.0000 </r>
       <r>  -28.0486    1.0000 </r>
       <r>  -27.7581    1.0000 </r>
       <r>  -27.7581    1.0000 </r>
       <r>  -27.6643    1.0000 </r>
       <r>   -5.1081    1.0000 </r>
       <r>   -3.6360    1.0000 </r>
       <r>   -2.2478    1.0000 </r>
       <r>   -2.0804    1.0000 </r>
       <r>   -0.6293    1.0000 </r>
       <r>   -0.4714    1.0000 </r>
       <r>   -0.4435    1.0000 </r>
       <r>   -0.1050    1.0000 </r>
       <r>    0.3930    1.0000 </r>
       <r>    0.8050    1.0000 </r>
       <r>    2.1106    1.0000 </r>
       <r>    2.4673    1.0000 </r>
       <r>    2.9667    1.0000 </r>
       <r>    3.2680    1.0000 </r>
       <r>    3.3445    1.0000 </r>
       <r>    3.5410    1.0000 </r>
       <r>    3.6751    1.0000 </r>
       <r>    4.9878    1.0000 </r>
       <r>    5.2818    1.0000 </r>
[...]
       <r>  -27.6637    1.0000 </r>
       <r>   -4.0465    1.0000 </r>
       <r>   -3.6830    1.0000 </r>
       <r>   -2.7700    1.0000 </r>
       <r>   -2.6792    1.0000 </r>
       <r>   -2.0329    1.0000 </r>
       <r>   -0.9801    1.0000 </r>
       <r>   -0.4631    1.0000 </r>
       <r>    0.7120    1.0000 </r>
       <r>    0.7470    1.0000 </r>
       <r>    1.6235    1.0000 </r>
       <r>    1.8497    1.0000 </r>
       <r>    2.4514    1.0000 </r>
       <r>    3.0405    1.0000 </r>
       <r>    3.3439    1.0000 </r>
       <r>    3.9369    1.0000 </r>
       <r>    4.1789    1.0000 </r>
       <r>    4.6166    1.0000 </r>
       <r>    4.6717    1.0000 </r>
       <r>    5.0509    1.0000 </r>
       <r>    5.2559    1.0000 </r>
       <r>    5.6893    1.0000 </r>
       <r>    6.0011    1.0000 </r>
       <r>    6.0944    1.0000 </r>
       <r>    6.5236    1.0000 </r>
       <r>    6.5791    1.0000 </r>
       <r>    6.9918    1.0000 </r>
       <r>    7.8521    1.0000 </r>
       <r>    8.1753    1.0000 </r>
       <r>    8.3533    1.0000 </r>
       <r>    9.6432    0.0000 </r>
       <r>    9.7773    0.0000 </r>
       <r>   11.2172    0.0000 </r>
       <r>   11.2597    0.0000 </r>
       <r>   11.6542    0.0000 </r>
       <r>   11.7344    0.0000 </r>
       <r>   12.1496    0.0000 </r>
      </set>
      <set comment="kpoint 32">
       <r>  -54.7247    1.0000 </r>
       <r>  -54.7187    1.0000 </r>
       <r>  -54.0554    1.0000 </r>
       <r>  -28.2702    1.0000 </r>
       <r>  -28.2475    1.0000 </r>
       <r>  -28.2357    1.0000 </r>
       <r>  -28.1715    1.0000 </r>
       <r>  -28.1291    1.0000 </r>
       <r>  -28.0291    1.0000 </r>
       <r>  -27.7583    1.0000 </r>
       <r>  -27.7583    1.0000 </r>
       <r>  -27.6638    1.0000 </r>
       <r>   -4.0074    1.0000 </r>
       <r>   -3.3280    1.0000 </r>
       <r>   -3.2520    1.0000 </r>
       <r>   -2.6643    1.0000 </r>
       <r>   -2.1076    1.0000 </r>
       <r>   -1.1396    1.0000 </r>
       <r>    0.2525    1.0000 </r>
       <r>    0.3708    1.0000 </r>
       <r>    1.2598    1.0000 </r>
       <r>    1.2724    1.0000 </r>
       <r>    1.5155    1.0000 </r>
       <r>    2.0946    1.0000 </r>
       <r>    3.2091    1.0000 </r>
       <r>    3.6868    1.0000 </r>
       <r>    4.0319    1.0000 </r>
       <r>    4.0632    1.0000 </r>
       <r>    4.5188    1.0000 </r>
       <r>    4.5568    1.0000 </r>
       <r>    5.2023    1.0000 </r>
       <r>    5.6270    1.0000 </r>
       <r>    5.7216    1.0000 </r>
       <r>    5.7349    1.0000 </r>
       <r>    6.1092    1.0000 </r>
       <r>    6.5918    1.0000 </r>
       <r>    6.7432    1.0000 </r>
       <r>    7.3533    1.0000 </r>
       <r>    7.5483    1.0000 </r>
       <r>    7.8454    1.0000 </r>
       <r>    7.9616    1.0000 </r>
       <r>    9.7097    0.0000 </r>
       <r>    9.8387    0.0000 </r>
       <r>   11.0023    0.0000 </r>
       <r>   11.4686    0.0000 </r>
       <r>   11.5281    0.0000 </r>
       <r>   12.1182    0.0000 </r>
       <r>   12.5980    0.0000 </r>
      </set>
     </set>
    </set>
   </array>
  </eigenvalues>
  <separator name="orbital magnetization" >
   <v name="MAGDIPOLOUT">      0.00000000      0.00000000      0.00000000</v>
  </separator>
  <dos>
   <i name="efermi">      8.58864228 </i>
   <total>
    <array>
     <dimension dim="1">gridpoints</dimension>
     <dimension dim="2">spin</dimension>
     <field>energy</field>
     <field>total</field>
     <field>integrated</field>
     <set>
      <set comment="spin 1">
       <r>   -58.1115     0.0000     0.0000 </r>
       <r>   -57.8641     0.0000     0.0000 </r>
       <r>   -57.6167     0.0000     0.0000 </r>
       <r>   -57.3693     0.0000     0.0000 </r>
       <r>   -57.1219     0.0000     0.0000 </r>
       <r>   -56.8745     0.0000     0.0000 </r>
       <r>   -56.6271     0.0000     0.0000 </r>
       <r>   -56.3798     0.0000     0.0000 </r>
       <r>   -56.1324     0.0000     0.0000 </r>
       <r>   -55.8850     0.0000     0.0000 </r>
       <r>   -55.6376     0.0000     0.0000 </r>
       <r>   -55.3902     0.0000     0.0000 </r>
       <r>   -55.1428     0.0000     0.0000 </r>
       <r>   -54.8954     0.0000     0.0000 </r>
       <r>   -54.6480    16.1688     4.0000 </r>
       <r>   -54.4006     0.0000     4.0000 </r>
       <r>   -54.1533     0.0000     4.0000 </r>
       <r>   -53.9059     8.0844     6.0000 </r>
       <r>   -53.6585     0.0000     6.0000 </r>
       <r>   -53.4111     0.0000     6.0000 </r>
       <r>   -53.1637     0.0000     6.0000 </r>
       <r>   -52.9163     0.0000     6.0000 </r>
       <r>   -52.6689     0.0000     6.0000 </r>
       <r>   -52.4215     0.0000     6.0000 </r>
       <r>   -52.1741     0.0000     6.0000 </r>
       <r>   -51.9268     0.0000     6.0000 </r>
       <r>   -51.6794     0.0000     6.0000 </r>
       <r>   -51.4320     0.0000     6.0000 </r>
       <r>   -51.1846     0.0000     6.0000 </r>
       <r>   -50.9372     0.0000     6.0000 </r>
       <r>   -50.6898     0.0000     6.0000 </r>
       <r>   -50.4424     0.0000     6.0000 </r>
       <r>   -50.1950     0.0000     6.0000 </r>
       <r>   -49.9476     0.0000     6.0000 </r>
       <r>   -49.7003     0.0000     6.0000 </r>
       <r>   -49.4529     0.0000     6.0000 </r>
       <r>   -49.2055     0.0000     6.0000 </r>
       <r>   -48.9581     0.0000     6.0000 </r>
       <r>   -48.7107     0.0000     6.0000 </r>
       <r>   -48.4633     0.0000     6.0000 </r>
       <r>   -48.2159     0.0000     6.0000 </r>
       <r>   -47.9685     0.0000     6.0000 </r>
       <r>   -47.7211     0.0000     6.0000 </r>
       <r>   -47.4738     0.0000     6.0000 </r>
       <r>   -47.2264     0.0000     6.0000 </r>
       <r>   -46.9790     0.0000     6.0000 </r>
       <r>   -46.7316     0.0000     6.0000 </r>
       <r>   -46.4842     0.0000     6.0000 </r>
       <r>   -46.2368     0.0000     6.0000 </r>
       <r>   -45.9894     0.0000     6.0000 </r>
       <r>   -45.7420     0.0000     6.0000 </r>
       <r>   -45.4946     0.0000     6.0000 </r>
       <r>   -45.2473     0.0000     6.0000 </r>
       <r>   -44.9999     0.0000     6.0000 </r>
       <r>   -44.7525     0.0000     6.0000 </r>
       <r>   -44.5051     0.0000     6.0000 </r>
       <r>   -44.2577     0.0000     6.0000 </r>
       <r>   -44.0103     0.0000     6.0000 </r>
       <r>   -43.7629     0.0000     6.0000 </r>
       <r>   -43.5155     0.0000     6.0000 </r>
       <r>   -43.2681     0.0000     6.0000 </r>
       <r>   -43.0208     0.0000     6.0000 </r>
       <r>   -42.7734     0.0000     6.0000 </r>
       <r>   -42.5260     0.0000     6.0000 </r>
       <r>   -42.2786     0.0000     6.0000 </r>
       <r>   -42.0312     0.0000     6.0000 </r>
       <r>   -41.7838     0.0000     6.0000 </r>
       <r>   -41.5364     0.0000     6.0000 </r>
       <r>   -41.2890     0.0000     6.0000 </r>
       <r>   -41.0416     0.0000     6.0000 </r>
       <r>   -40.7943     0.0000     6.0000 </r>
       <r>   -40.5469     0.0000     6.0000 </r>
       <r>   -40.2995     0.0000     6.0000 </r>
       <r>   -40.0521     0.0000     6.0000 </r>
       <r>   -39.8047     0.0000     6.0000 </r>
       <r>   -39.5573     0.0000     6.0000 </r>
       <r>   -39.3099     0.0000     6.0000 </r>
       <r>   -39.0625     0.0000     6.0000 </r>
       <r>   -38.8151     0.0000     6.0000 </r>
       <r>   -38.5678     0.0000     6.0000 </r>
       <r>   -38.3204     0.0000     6.0000 </r>
       <r>   -38.0730     0.0000     6.0000 </r>
       <r>   -37.8256     0.0000     6.0000 </r>
       <r>   -37.5782     0.0000     6.0000 </r>
       <r>   -37.3308     0.0000     6.0000 </r>
       <r>   -37.0834     0.0000     6.0000 </r>
       <r>   -36.8360     0.0000     6.0000 </r>
       <r>   -36.5886     0.0000     6.0000 </r>
       <r>   -36.3413     0.0000     6.0000 </r>
       <r>   -36.0939     0.0000     6.0000 </r>
       <r>   -35.8465     0.0000     6.0000 </r>
       <r>   -35.5991     0.0000     6.0000 </r>
       <r>   -35.3517     0.0000     6.0000 </r>
       <r>   -35.1043     0.0000     6.0000 </r>
       <r>   -34.8569     0.0000     6.0000 </r>
       <r>   -34.6095     0.0000     6.0000 </r>
       <r>   -34.3621     0.0000     6.0000 </r>
       <r>   -34.1148     0.0000     6.0000 </r>
       <r>   -33.8674     0.0000     6.0000 </r>
       <r>   -33.6200     0.0000     6.0000 </r>
       <r>   -33.3726     0.0000     6.0000 </r>
       <r>   -33.1252     0.0000     6.0000 </r>
       <r>   -32.8778     0.0000     6.0000 </r>
       <r>   -32.6304     0.0000     6.0000 </r>
       <r>   -32.3830     0.0000     6.0000 </r>
       <r>   -32.1356     0.0000     6.0000 </r>
       <r>   -31.8883     0.0000     6.0000 </r>
       <r>   -31.6409     0.0000     6.0000 </r>
       <r>   -31.3935     0.0000     6.0000 </r>
       <r>   -31.1461     0.0000     6.0000 </r>
       <r>   -30.8987     0.0000     6.0000 </r>
       <r>   -30.6513     0.0000     6.0000 </r>
       <r>   -30.4039     0.0000     6.0000 </r>
       <r>   -30.1565     0.0000     6.0000 </r>
       <r>   -29.9091     0.0000     6.0000 </r>
       <r>   -29.6618     0.0000     6.0000 </r>
       <r>   -29.4144     0.0000     6.0000 </r>
       <r>   -29.1670     0.0000     6.0000 </r>
       <r>   -28.9196     0.0000     6.0000 </r>
       <r>   -28.6722     0.0000     6.0000 </r>
       <r>   -28.4248     0.0000     6.0000 </r>
       <r>   -28.1774    31.3252    13.7495 </r>
       <r>   -27.9300    11.2192    18.0000 </r>
       <r>   -27.6826    16.9021    22.1814 </r>
       <r>   -27.4353     0.0000    24.0000 </r>
       <r>   -27.1879     0.0000    24.0000 </r>
       <r>   -26.9405     0.0000    24.0000 </r>
       <r>   -26.6931     0.0000    24.0000 </r>
       <r>   -26.4457     0.0000    24.0000 </r>
       <r>   -26.1983     0.0000    24.0000 </r>
       <r>   -25.9509     0.0000    24.0000 </r>
       <r>   -25.7035     0.0000    24.0000 </r>
       <r>   -25.4561     0.0000    24.0000 </r>
       <r>   -25.2088     0.0000    24.0000 </r>
       <r>   -24.9614     0.0000    24.0000 </r>
       <r>   -24.7140     0.0000    24.0000 </r>
       <r>   -24.4666     0.0000    24.0000 </r>
       <r>   -24.2192     0.0000    24.0000 </r>
       <r>   -23.9718     0.0000    24.0000 </r>
       <r>   -23.7244     0.0000    24.0000 </r>
       <r>   -23.4770     0.0000    24.0000 </r>
       <r>   -23.2296     0.0000    24.0000 </r>
       <r>   -22.9823     0.0000    24.0000 </r>
       <r>   -22.7349     0.0000    24.0000 </r>
       <r>   -22.4875     0.0000    24.0000 </r>
       <r>   -22.2401     0.0000    24.0000 </r>
       <r>   -21.9927     0.0000    24.0000 </r>
       <r>   -21.7453     0.0000    24.0000 </r>
       <r>   -21.4979     0.0000    24.0000 </r>
       <r>   -21.2505     0.0000    24.0000 </r>
       <r>   -21.0031     0.0000    24.0000 </r>
       <r>   -20.7558     0.0000    24.0000 </r>
       <r>   -20.5084     0.0000    24.0000 </r>
       <r>   -20.2610     0.0000    24.0000 </r>
       <r>   -20.0136     0.0000    24.0000 </r>
       <r>   -19.7662     0.0000    24.0000 </r>
       <r>   -19.5188     0.0000    24.0000 </r>
       <r>   -19.2714     0.0000    24.0000 </r>
       <r>   -19.0240     0.0000    24.0000 </r>
       <r>   -18.7766     0.0000    24.0000 </r>
       <r>   -18.5292     0.0000    24.0000 </r>
       <r>   -18.2819     0.0000    24.0000 </r>
       <r>   -18.0345     0.0000    24.0000 </r>
       <r>   -17.7871     0.0000    24.0000 </r>
       <r>   -17.5397     0.0000    24.0000 </r>
       <r>   -17.2923     0.0000    24.0000 </r>
       <r>   -17.0449     0.0000    24.0000 </r>
       <r>   -16.7975     0.0000    24.0000 </r>
       <r>   -16.5501     0.0000    24.0000 </r>
       <r>   -16.3027     0.0000    24.0000 </r>
       <r>   -16.0554     0.0000    24.0000 </r>
       <r>   -15.8080     0.0000    24.0000 </r>
       <r>   -15.5606     0.0000    24.0000 </r>
       <r>   -15.3132     0.0000    24.0000 </r>
       <r>   -15.0658     0.0000    24.0000 </r>
       <r>   -14.8184     0.0000    24.0000 </r>
       <r>   -14.5710     0.0000    24.0000 </r>
       <r>   -14.3236     0.0000    24.0000 </r>
       <r>   -14.0762     0.0000    24.0000 </r>
       <r>   -13.8289     0.0000    24.0000 </r>
       <r>   -13.5815     0.0000    24.0000 </r>
       <r>   -13.3341     0.0000    24.0000 </r>
       <r>   -13.0867     0.0000    24.0000 </r>
       <r>   -12.8393     0.0000    24.0000 </r>
       <r>   -12.5919     0.0000    24.0000 </r>
       <r>   -12.3445     0.0000    24.0000 </r>
       <r>   -12.0971     0.0000    24.0000 </r>
       <r>   -11.8497     0.0000    24.0000 </r>
       <r>   -11.6024     0.0000    24.0000 </r>
       <r>   -11.3550     0.0000    24.0000 </r>
       <r>   -11.1076     0.0000    24.0000 </r>
       <r>   -10.8602     0.0000    24.0000 </r>
       <r>   -10.6128     0.0000    24.0000 </r>
       <r>   -10.3654     0.0000    24.0000 </r>
       <r>   -10.1180     0.0000    24.0000 </r>
       <r>    -9.8706     0.0000    24.0000 </r>
       <r>    -9.6232     0.0000    24.0000 </r>
       <r>    -9.3759     0.0000    24.0000 </r>
       <r>    -9.1285     0.0000    24.0000 </r>
       <r>    -8.8811     0.0000    24.0000 </r>
       <r>    -8.6337     0.0000    24.0000 </r>
       <r>    -8.3863     0.0000    24.0000 </r>
       <r>    -8.1389     0.0000    24.0000 </r>
       <r>    -7.8915     0.0000    24.0000 </r>
       <r>    -7.6441     0.0000    24.0000 </r>
       <r>    -7.3967     0.0000    24.0000 </r>
       <r>    -7.1494     0.0000    24.0000 </r>
       <r>    -6.9020     0.0000    24.0000 </r>
       <r>    -6.6546     0.0000    24.0000 </r>
       <r>    -6.4072     0.0000    24.0000 </r>
       <r>    -6.1598     0.0000    24.0000 </r>
       <r>    -5.9124     0.0244    24.0060 </r>
       <r>    -5.6650     0.2828    24.1224 </r>
       <r>    -5.4176     0.7073    24.3441 </r>
       <r>    -5.1702     0.3300    24.4956 </r>
       <r>    -4.9229     0.5698    24.8465 </r>
       <r>    -4.6755     1.1313    25.2303 </r>
       <r>    -4.4281     1.0587    25.4922 </r>
       <r>    -4.1807     1.2854    25.8982 </r>
       <r>    -3.9333     1.2707    26.2794 </r>
       <r>    -3.6859     0.8636    26.4935 </r>
       <r>    -3.4385     2.1203    27.1310 </r>
       <r>    -3.1911     1.6708    27.6845 </r>
       <r>    -2.9437     1.5952    28.0856 </r>
       <r>    -2.6964     2.3051    28.7277 </r>
       <r>    -2.4490     1.1313    29.4869 </r>
       <r>    -2.2016     2.7057    30.1562 </r>
       <r>    -1.9542     2.1145    31.0595 </r>
       <r>    -1.7068     2.1281    31.8559 </r>
       <r>    -1.4594     1.7059    32.4395 </r>
       <r>    -1.2120     2.0384    33.2390 </r>
       <r>    -0.9646     3.7150    34.5284 </r>
       <r>    -0.7172     3.1726    36.0385 </r>
       <r>    -0.4699     3.3598    37.0644 </r>
       <r>    -0.2225     0.9875    37.8886 </r>
       <r>     0.0249     1.2124    38.2474 </r>
       <r>     0.2723     1.5957    38.7388 </r>
       <r>     0.5197     1.8326    39.9344 </r>
       <r>     0.7671     2.7885    40.6724 </r>
       <r>     1.0145     0.6626    41.3359 </r>
       <r>     1.2619     1.9400    42.2759 </r>
       <r>     1.5093     3.0017    43.3432 </r>
       <r>     1.7566     2.6419    44.2279 </r>
       <r>     2.0040     1.7564    44.8602 </r>
       <r>     2.2514     3.9445    46.1129 </r>
       <r>     2.4988     3.8015    47.5702 </r>
       <r>     2.7462     2.7195    48.5620 </r>
       <r>     2.9936     3.9474    50.3818 </r>
       <r>     3.2410     3.2807    51.8962 </r>
       <r>     3.4884     1.2541    52.6892 </r>
       <r>     3.7358     4.0701    54.5054 </r>
       <r>     3.9831     4.4628    56.2236 </r>
       <r>     4.2305     3.4631    57.8188 </r>
       <r>     4.4779     4.5358    59.3495 </r>
       <r>     4.7253     2.5718    60.7645 </r>
       <r>     4.9727     4.6439    62.4025 </r>
       <r>     5.2201     1.8576    63.3575 </r>
       <r>     5.4675     3.0607    64.8097 </r>
       <r>     5.7149     2.9505    65.7620 </r>
       <r>     5.9623     2.9825    67.1460 </r>
       <r>     6.2096     4.8070    68.9618 </r>
       <r>     6.4570     4.1510    70.9453 </r>
       <r>     6.7044     4.7791    72.5700 </r>
       <r>     6.9518     1.6651    73.8055 </r>
       <r>     7.1992     2.9745    74.8408 </r>
       <r>     7.4466     2.6097    75.7243 </r>
       <r>     7.6940     0.8477    76.0581 </r>
       <r>     7.9414     1.4828    76.4251 </r>
       <r>     8.1888     2.2228    77.1796 </r>
       <r>     8.4361     1.0803    77.8183 </r>
       <r>     8.6835     2.2809    78.4302 </r>
       <r>     8.9309     1.4323    79.0948 </r>
       <r>     9.1783     1.0329    79.7541 </r>
       <r>     9.4257     3.0726    80.6085 </r>
       <r>     9.6731     4.3883    81.9836 </r>
       <r>     9.9205     5.3168    83.7468 </r>
       <r>    10.1679     2.7587    84.8341 </r>
       <r>    10.4153     1.3432    85.4518 </r>
       <r>    10.6626     0.9305    85.7695 </r>
       <r>    10.9100     2.0943    86.6755 </r>
       <r>    11.1574     2.9007    87.8430 </r>
       <r>    11.4048     5.5217    89.9958 </r>
       <r>    11.6522     4.2983    92.0138 </r>
       <r>    11.8996     3.6972    93.4686 </r>
       <r>    12.1470     2.5879    94.1912 </r>
       <r>    12.3944     2.2751    95.4083 </r>
       <r>    12.6418     1.6965    95.9649 </r>
       <r>    12.8891     0.1414    96.0000 </r>
       <r>    13.1365     0.0000    96.0000 </r>
       <r>    13.3839     0.0000    96.0000 </r>
       <r>    13.6313     0.0000    96.0000 </r>
       <r>    13.8787     0.0000    96.0000 </r>
       <r>    14.1261     0.0000    96.0000 </r>
       <r>    14.3735     0.0000    96.0000 </r>
       <r>    14.6209     0.0000    96.0000 </r>
       <r>    14.8683     0.0000    96.0000 </r>
       <r>    15.1156     0.0000    96.0000 </r>
       <r>    15.3630     0.0000    96.0000 </r>
       <r>    15.6104     0.0000    96.0000 </r>
       <r>    15.8578     0.0000    96.0000 </r>
       <r>    16.1052     0.0000    96.0000 </r>
      </set>
     </set>
    </array>
   </total>
  </dos>
 </calculation>
 <structure name="finalpos" >
  <crystal>
   <varray name="basis" >
    <v>       2.75794000      -4.77689200       0.00000000 </v>
    <v>       2.75794000       4.77689200       0.00000000 </v>
    <v>       0.00000000       0.00000000       5.16740700 </v>
   </varray>
   <i name="volume">    136.15478260 </i>
   <varray name="rec_basis" >
    <v>       0.18129473      -0.10467057       0.00000000 </v>
    <v>       0.18129473       0.10467057       0.00000000 </v>
    <v>       0.00000000       0.00000000       0.19352066 </v>
   </varray>
  </crystal>
  <varray name="positions" >
   <v>       0.65992000       0.00000000       0.28546600 </v>
   <v>       0.00000000       0.65992000       0.28546600 </v>
   <v>       0.34008000       0.34008000       0.28546600 </v>
   <v>       0.00000000       0.34008000       0.28546600 </v>
   <v>       0.34008000       0.00000000       0.28546600 </v>
   <v>       0.65992000       0.65992000       0.28546600 </v>
   <v>       0.00000000       0.34008000       0.71453400 </v>
   <v>       0.65992000       0.65992000       0.71453400 </v>
   <v>       0.34008000       0.00000000       0.71453400 </v>
   <v>       0.65992000       0.00000000       0.71453400 </v>
   <v>       0.34008000       0.34008000       0.71453400 </v>
   <v>       0.00000000       0.65992000       0.71453400 </v>
   <v>       0.66666700       0.33333300       0.00000000 </v>
   <v>       0.00000000       0.00000000       0.50000000 </v>
   <v>       0.33333300       0.66666700       0.00000000 </v>
  </varray>
 </structure>
</modeling>
