<?xml version="1.0" encoding="ISO-8859-1"?>
<modeling>
 <generator>
  <i name="program" type="string">vasp </i>
  <i name="version" type="string">6.2.0  </i>
  <i name="subversion" type="string">18Jan21 (build Jan 05 2022 15:41:44) complex                          parallel </i>
  <i name="platform" type="string">LinuxIFC </i>
  <i name="date" type="string">2025 05 07 </i>
  <i name="time" type="string">15:26:21 </i>
 </generator>
 <incar>
  <i type="string" name="SYSTEM">routine with relax: pwdword</i>
  <i type="string" name="PREC">Acc</i>
  <i type="int" name="IALGO">    38</i>
  <i type="string" name="ALGO">A</i>
  <i type="logical" name="ADDGRID"> T  </i>
  <i type="int" name="ICHARG">     2</i>
  <i type="int" name="NELM">   100</i>
  <i type="int" name="NELMIN">     6</i>
  <i name="EDIFF">      0.00000000</i>
  <i type="int" name="NSW">     0</i>
  <i type="int" name="ISIF">    -1</i>
  <i name="ENCUT">    600.00000000</i>
  <i type="logical" name="LREAL"> F  </i>
  <i type="int" name="ISMEAR">     0</i>
  <i name="SIGMA">      0.02000000</i>
  <i type="logical" name="LASPH"> T  </i>
  <i type="string" name="METAGGA">R2SCAN</i>
  <i type="logical" name="LMIXTAU"> F  </i>
 </incar>
 <primitive_cell>
  <structure name="primitive_cell" >
   <crystal>
    <varray name="basis" >
     <v>       5.89988881       0.00000000      -3.00977617 </v>
     <v>      -2.21323272       5.46902998      -3.00977617 </v>
     <v>       0.00000000       0.00000000       6.62325000 </v>
    </varray>
    <i name="volume">    213.71021401 </i>
    <varray name="rec_basis" >
     <v>       0.16949472       0.06859192       0.00000000 </v>
     <v>       0.00000000       0.18284778       0.00000000 </v>
     <v>       0.07702279       0.11426071       0.15098328 </v>
    </varray>
   </crystal>
   <varray name="positions" >
    <v>       0.25000000       0.75000000       0.50000000 </v>
    <v>       0.75000000       0.25000000       0.50000000 </v>
    <v>       0.37704000       0.87704000       0.25408000 </v>
    <v>       0.00000000       0.00000000       0.50000000 </v>
    <v>       0.62296000       0.12296000       0.74592000 </v>
    <v>       0.87704000       0.62296000       0.50000000 </v>
    <v>       1.00000000       0.50000000       0.00000000 </v>
    <v>       0.12296000       0.37704000       0.50000000 </v>
    <v>       0.50000000       0.50000000       0.50000000 </v>
    <v>       0.50000000       0.00000000       1.00000000 </v>
    <v>       0.25000000       0.25000000       1.00000000 </v>
    <v>       0.75000000       0.75000000       1.00000000 </v>
   </varray>
  </structure>
  <varray name="primitive_index" >
   <v type="int" >        1 </v>
   <v type="int" >        2 </v>
   <v type="int" >        3 </v>
   <v type="int" >        4 </v>
   <v type="int" >        5 </v>
   <v type="int" >        6 </v>
   <v type="int" >        7 </v>
   <v type="int" >        8 </v>
   <v type="int" >        9 </v>
   <v type="int" >       10 </v>
   <v type="int" >       11 </v>
   <v type="int" >       12 </v>
  </varray>
 </primitive_cell>
 <kpoints>
  <generation param="Gamma">
   <v type="int" name="divisions">       7        7        7 </v>
   <v name="usershift">      0.00000000       0.00000000       0.00000000 </v>
   <v name="genvec1">      0.14285714      -0.00000000       0.00000000 </v>
   <v name="genvec2">      0.00000000       0.14285714       0.00000000 </v>
   <v name="genvec3">     -0.00000000       0.00000000       0.14285714 </v>
   <v name="shift">      0.00000000       0.00000000       0.00000000 </v>
  </generation>
  <varray name="kpointlist" >
   <v>       0.00000000       0.00000000       0.00000000 </v>
   <v>       0.14285714      -0.00000000       0.00000000 </v>
   <v>       0.28571429      -0.00000000       0.00000000 </v>
   <v>       0.42857143      -0.00000000       0.00000000 </v>
   <v>       0.14285714       0.14285714       0.00000000 </v>
   <v>       0.28571429       0.14285714       0.00000000 </v>
   <v>       0.42857143       0.14285714       0.00000000 </v>
   <v>      -0.42857143       0.14285714       0.00000000 </v>
   <v>      -0.28571429       0.14285714       0.00000000 </v>
   <v>      -0.14285714       0.14285714       0.00000000 </v>
   <v>       0.28571429       0.28571429       0.00000000 </v>
   <v>       0.42857143       0.28571429       0.00000000 </v>
   <v>      -0.42857143       0.28571429       0.00000000 </v>
   <v>      -0.28571429       0.28571429       0.00000000 </v>
   <v>       0.42857143       0.42857143       0.00000000 </v>
   <v>      -0.42857143       0.42857143       0.00000000 </v>
   <v>      -0.00000000      -0.00000000       0.14285714 </v>
   <v>       0.14285714      -0.00000000       0.14285714 </v>
   <v>       0.28571429       0.00000000       0.14285714 </v>
   <v>       0.42857143      -0.00000000       0.14285714 </v>
   <v>      -0.42857143      -0.00000000       0.14285714 </v>
   <v>      -0.28571429      -0.00000000       0.14285714 </v>
   <v>      -0.14285714      -0.00000000       0.14285714 </v>
   <v>       0.14285714       0.14285714       0.14285714 </v>
   <v>       0.28571429       0.14285714       0.14285714 </v>
   <v>       0.42857143       0.14285714       0.14285714 </v>
   <v>      -0.42857143       0.14285714       0.14285714 </v>
   <v>      -0.28571429       0.14285714       0.14285714 </v>
   <v>      -0.14285714       0.14285714       0.14285714 </v>
   <v>       0.28571429       0.28571429       0.14285714 </v>
   <v>       0.42857143       0.28571429       0.14285714 </v>
   <v>      -0.42857143       0.28571429       0.14285714 </v>
   <v>      -0.28571429       0.28571429       0.14285714 </v>
   <v>      -0.14285714       0.28571429       0.14285714 </v>
   <v>       0.42857143       0.42857143       0.14285714 </v>
   <v>      -0.42857143       0.42857143       0.14285714 </v>
   <v>      -0.28571429       0.42857143       0.14285714 </v>
   <v>      -0.14285714       0.42857143       0.14285714 </v>
   <v>      -0.42857143      -0.42857143       0.14285714 </v>
   <v>      -0.28571429      -0.42857143       0.14285714 </v>
   <v>      -0.14285714      -0.42857143       0.14285714 </v>
   <v>      -0.28571429      -0.28571429       0.14285714 </v>
   <v>      -0.14285714      -0.28571429       0.14285714 </v>
   <v>      -0.14285714      -0.14285714       0.14285714 </v>
   <v>       0.00000000       0.00000000       0.28571429 </v>
   <v>       0.14285714      -0.00000000       0.28571429 </v>
   <v>       0.28571429      -0.00000000       0.28571429 </v>
   <v>       0.42857143      -0.00000000       0.28571429 </v>
   <v>      -0.42857143       0.00000000       0.28571429 </v>
   <v>      -0.28571429      -0.00000000       0.28571429 </v>
   <v>      -0.14285714      -0.00000000       0.28571429 </v>
   <v>       0.14285714       0.14285714       0.28571429 </v>
   <v>       0.28571429       0.14285714       0.28571429 </v>
   <v>       0.42857143       0.14285714       0.28571429 </v>
   <v>      -0.42857143       0.14285714       0.28571429 </v>
   <v>      -0.28571429       0.14285714       0.28571429 </v>
   <v>      -0.14285714       0.14285714       0.28571429 </v>
   <v>       0.28571429       0.28571429       0.28571429 </v>
   <v>       0.42857143       0.28571429       0.28571429 </v>
   <v>      -0.42857143       0.28571429       0.28571429 </v>
   <v>      -0.28571429       0.28571429       0.28571429 </v>
   <v>      -0.14285714       0.28571429       0.28571429 </v>
   <v>       0.42857143       0.42857143       0.28571429 </v>
   <v>      -0.42857143       0.42857143       0.28571429 </v>
   <v>      -0.28571429       0.42857143       0.28571429 </v>
   <v>      -0.14285714       0.42857143       0.28571429 </v>
   <v>      -0.42857143      -0.42857143       0.28571429 </v>
   <v>      -0.28571429      -0.42857143       0.28571429 </v>
   <v>      -0.14285714      -0.42857143       0.28571429 </v>
   <v>      -0.28571429      -0.28571429       0.28571429 </v>
   <v>      -0.14285714      -0.28571429       0.28571429 </v>
   <v>      -0.14285714      -0.14285714       0.28571429 </v>
   <v>       0.00000000       0.00000000       0.42857143 </v>
   <v>       0.14285714       0.00000000       0.42857143 </v>
   <v>       0.28571429      -0.00000000       0.42857143 </v>
   <v>       0.42857143      -0.00000000       0.42857143 </v>
   <v>      -0.42857143       0.00000000       0.42857143 </v>
   <v>      -0.28571429       0.00000000       0.42857143 </v>
   <v>      -0.14285714       0.00000000       0.42857143 </v>
   <v>       0.14285714       0.14285714       0.42857143 </v>
   <v>       0.28571429       0.14285714       0.42857143 </v>
   <v>       0.42857143       0.14285714       0.42857143 </v>
   <v>      -0.42857143       0.14285714       0.42857143 </v>
   <v>      -0.28571429       0.14285714       0.42857143 </v>
   <v>      -0.14285714       0.14285714       0.42857143 </v>
   <v>       0.28571429       0.28571429       0.42857143 </v>
   <v>       0.42857143       0.28571429       0.42857143 </v>
   <v>      -0.42857143       0.28571429       0.42857143 </v>
   <v>      -0.28571429       0.28571429       0.42857143 </v>
   <v>      -0.14285714       0.28571429       0.42857143 </v>
   <v>       0.42857143       0.42857143       0.42857143 </v>
   <v>      -0.42857143       0.42857143       0.42857143 </v>
   <v>      -0.28571429       0.42857143       0.42857143 </v>
   <v>      -0.14285714       0.42857143       0.42857143 </v>
   <v>      -0.42857143      -0.42857143       0.42857143 </v>
   <v>      -0.28571429      -0.42857143       0.42857143 </v>
   <v>      -0.14285714      -0.42857143       0.42857143 </v>
   <v>      -0.28571429      -0.28571429       0.42857143 </v>
   <v>      -0.14285714      -0.28571429       0.42857143 </v>
   <v>      -0.14285714      -0.14285714       0.42857143 </v>
  </varray>
  <varray name="weights" >
   <v>       0.00291545 </v>
   <v>       0.01166181 </v>
   <v>       0.01166181 </v>
   <v>       0.01166181 </v>
   <v>       0.00583090 </v>
   <v>       0.01166181 </v>
   <v>       0.01166181 </v>
   <v>       0.01166181 </v>
   <v>       0.01166181 </v>
   <v>       0.00583090 </v>
   <v>       0.00583090 </v>
   <v>       0.01166181 </v>
   <v>       0.01166181 </v>
   <v>       0.00583090 </v>
   <v>       0.00583090 </v>
   <v>       0.00583090 </v>
   <v>       0.00583090 </v>
   <v>       0.01166181 </v>
   <v>       0.01166181 </v>
   <v>       0.01166181 </v>
   <v>       0.01166181 </v>
   <v>       0.01166181 </v>
   <v>       0.01166181 </v>
   <v>       0.00583090 </v>
   <v>       0.01166181 </v>
   <v>       0.01166181 </v>
   <v>       0.01166181 </v>
   <v>       0.01166181 </v>
   <v>       0.01166181 </v>
   <v>       0.00583090 </v>
   <v>       0.01166181 </v>
   <v>       0.01166181 </v>
   <v>       0.01166181 </v>
   <v>       0.01166181 </v>
   <v>       0.00583090 </v>
   <v>       0.01166181 </v>
   <v>       0.01166181 </v>
   <v>       0.01166181 </v>
   <v>       0.00583090 </v>
   <v>       0.01166181 </v>
   <v>       0.01166181 </v>
   <v>       0.00583090 </v>
   <v>       0.01166181 </v>
   <v>       0.00583090 </v>
   <v>       0.00583090 </v>
   <v>       0.01166181 </v>
   <v>       0.01166181 </v>
   <v>       0.01166181 </v>
   <v>       0.01166181 </v>
   <v>       0.01166181 </v>
   <v>       0.01166181 </v>
   <v>       0.00583090 </v>
   <v>       0.01166181 </v>
   <v>       0.01166181 </v>
   <v>       0.01166181 </v>
   <v>       0.01166181 </v>
   <v>       0.01166181 </v>
   <v>       0.00583090 </v>
   <v>       0.01166181 </v>
   <v>       0.01166181 </v>
   <v>       0.01166181 </v>
   <v>       0.01166181 </v>
   <v>       0.00583090 </v>
   <v>       0.01166181 </v>
   <v>       0.01166181 </v>
   <v>       0.01166181 </v>
   <v>       0.00583090 </v>
   <v>       0.01166181 </v>
   <v>       0.01166181 </v>
   <v>       0.00583090 </v>
   <v>       0.01166181 </v>
   <v>       0.00583090 </v>
   <v>       0.00583090 </v>
   <v>       0.01166181 </v>
   <v>       0.01166181 </v>
   <v>       0.01166181 </v>
   <v>       0.01166181 </v>
   <v>       0.01166181 </v>
   <v>       0.01166181 </v>
   <v>       0.00583090 </v>
   <v>       0.01166181 </v>
   <v>       0.01166181 </v>
   <v>       0.01166181 </v>
   <v>       0.01166181 </v>
   <v>       0.01166181 </v>
   <v>       0.00583090 </v>
   <v>       0.01166181 </v>
   <v>       0.01166181 </v>
   <v>       0.01166181 </v>
   <v>       0.01166181 </v>
   <v>       0.00583090 </v>
   <v>       0.01166181 </v>
   <v>       0.01166181 </v>
   <v>       0.01166181 </v>
   <v>       0.00583090 </v>
   <v>       0.01166181 </v>
   <v>       0.01166181 </v>
   <v>       0.00583090 </v>
   <v>       0.01166181 </v>
   <v>       0.00583090 </v>
  </varray>
 </kpoints>
 <parameters>
  <separator name="general" >
   <i type="string" name="SYSTEM">routine with relax: pwdword</i>
   <i type="logical" name="LCOMPAT"> F  </i>
  </separator>
  <separator name="electronic" >
   <i type="string" name="PREC">acc</i>
   <i name="ENMAX">    600.00000000</i>
   <i name="ENAUG">    535.51400000</i>
   <i name="EDIFF">      0.00000000</i>
   <i type="int" name="IALGO">    58</i>
   <i type="int" name="IWAVPR">    10</i>
   <i type="int" name="NBANDS">    78</i>
   <i type="int" name="NBANDSLOW">    -1</i>
   <i type="int" name="NBANDSHIGH">    -1</i>
   <i name="NELECT">    126.00000000</i>
   <i type="int" name="TURBO">     0</i>
   <i type="int" name="IRESTART">     0</i>
   <i type="int" name="NREBOOT">     0</i>
   <i type="int" name="NMIN">     0</i>
   <i name="EREF">      0.00000000</i>
   <separator name="electronic smearing" >
    <i type="int" name="ISMEAR">     0</i>
    <i name="SIGMA">      0.02000000</i>
    <i name="KSPACING">      0.50000000</i>
    <i type="logical" name="KGAMMA"> T  </i>
    <i type="logical" name="KBLOWUP"> T  </i>
   </separator>
   <separator name="electronic projectors" >
    <i type="logical" name="LREAL"> F  </i>
    <v name="ROPT">      0.00000000      0.00000000      0.00000000</v>
    <i type="int" name="LMAXPAW">  -100</i>
    <i type="int" name="LMAXMIX">     2</i>
    <i type="logical" name="NLSPLINE"> F  </i>
   </separator>
   <separator name="electronic startup" >
    <i type="int" name="ISTART">     0</i>
    <i type="int" name="ICHARG">     2</i>
    <i type="int" name="INIWAV">     1</i>
   </separator>
   <separator name="electronic spin" >
    <i type="int" name="ISPIN">     1</i>
    <i type="logical" name="LNONCOLLINEAR"> F  </i>
    <v name="MAGMOM">      1.00000000      1.00000000      1.00000000      1.00000000      1.00000000      1.00000000      1.00000000      1.00000000      1.00000000      1.00000000      1.00000000      1.00000000</v>
    <i name="NUPDOWN">     -1.00000000</i>
    <i type="logical" name="LSORBIT"> F  </i>
    <v name="SAXIS">      0.00000000      0.00000000      1.00000000</v>
    <i type="logical" name="LSPIRAL"> F  </i>
    <v name="QSPIRAL">      0.00000000      0.00000000      0.00000000</v>
    <i type="logical" name="LZEROZ"> F  </i>
   </separator>
   <separator name="electronic exchange-correlation" >
    <i type="logical" name="LASPH"> T  </i>
    <i type="logical" name="LMETAGGA"> F  </i>
   </separator>
   <separator name="electronic convergence" >
    <i type="int" name="NELM">   100</i>
    <i type="int" name="NELMDL">    -5</i>
    <i type="int" name="NELMIN">     6</i>
    <i name="ENINI">    600.00000000</i>
    <separator name="electronic convergence detail" >
     <i type="logical" name="LDIAG"> T  </i>
     <i type="logical" name="LSUBROT"> F  </i>
     <i name="WEIMIN">      0.00000000</i>
     <i name="EBREAK">      0.00000000</i>
     <i name="DEPER">      0.30000000</i>
     <i type="int" name="NRMM">     4</i>
     <i name="TIME">      0.40000000</i>
    </separator>
   </separator>
   <separator name="electronic mixer" >
    <i name="AMIX">      0.40000000</i>
    <i name="BMIX">      1.00000000</i>
    <i name="AMIN">      0.10000000</i>
    <i name="AMIX_MAG">      1.60000000</i>
    <i name="BMIX_MAG">      1.00000000</i>
    <separator name="electronic mixer details" >
     <i type="int" name="IMIX">     4</i>
     <i type="logical" name="MIXFIRST"> F  </i>
     <i type="int" name="MAXMIX">   -45</i>
     <i name="WC">    100.00000000</i>
     <i type="int" name="INIMIX">     1</i>
     <i type="int" name="MIXPRE">     1</i>
     <i type="int" name="MREMOVE">     5</i>
    </separator>
   </separator>
   <separator name="electronic dipolcorrection" >
    <i type="logical" name="LDIPOL"> F  </i>
    <i type="logical" name="LMONO"> F  </i>
    <i type="int" name="IDIPOL">     0</i>
    <i name="EPSILON">      1.00000000</i>
    <v name="DIPOL">   -100.00000000   -100.00000000   -100.00000000</v>
    <i name="EFIELD">      0.00000000</i>
   </separator>
  </separator>
  <separator name="grids" >
   <i type="int" name="NGX">    54</i>
   <i type="int" name="NGY">    54</i>
   <i type="int" name="NGZ">    54</i>
   <i type="int" name="NGXF">   108</i>
   <i type="int" name="NGYF">   108</i>
   <i type="int" name="NGZF">   108</i>
   <i type="logical" name="ADDGRID"> T  </i>
  </separator>
  <separator name="ionic" >
   <i type="int" name="NSW">     0</i>
   <i type="int" name="IBRION">    -1</i>
   <i type="int" name="MDALGO">     0</i>
   <i type="int" name="ISIF">    -1</i>
   <i name="PSTRESS">      0.00000000</i>
   <i name="EDIFFG">      0.00000001</i>
   <i type="int" name="NFREE">     0</i>
   <i name="POTIM">      0.50000000</i>
   <i name="SMASS">     -3.00000000</i>
   <i name="SCALEE">      1.00000000</i>
  </separator>
  <separator name="ionic md" >
   <i name="TEBEG">      0.00010000</i>
   <i name="TEEND">      0.00010000</i>
   <i type="int" name="NBLOCK">     1</i>
   <i type="int" name="KBLOCK">     1</i>
   <i type="int" name="NPACO">   256</i>
   <i name="APACO">     16.00000000</i>
  </separator>
  <separator name="symmetry" >
   <i type="int" name="ISYM">     2</i>
   <i name="SYMPREC">      0.00001000</i>
  </separator>
  <separator name="dos" >
   <i type="int" name="LORBIT">     0</i>
   <v name="RWIGS">     -1.00000000     -1.00000000     -1.00000000</v>
   <i type="int" name="NEDOS">   301</i>
   <i name="EMIN">     10.00000000</i>
   <i name="EMAX">    -10.00000000</i>
   <i name="EFERMI">      0.00000000</i>
  </separator>
  <separator name="writing" >
   <i type="int" name="NWRITE">     2</i>
   <i type="logical" name="LWAVE"> T  </i>
   <i type="logical" name="LDOWNSAMPLE"> F  </i>
   <i type="logical" name="LCHARG"> T  </i>
   <i type="logical" name="LPARD"> F  </i>
   <i type="logical" name="LVTOT"> F  </i>
   <i type="logical" name="LVHAR"> F  </i>
   <i type="logical" name="LELF"> F  </i>
   <i type="logical" name="LOPTICS"> F  </i>
   <v name="STM">      0.00000000      0.00000000      0.00000000      0.00000000      0.00000000      0.00000000      0.00000000</v>
  </separator>
  <separator name="performance" >
   <i type="int" name="NPAR">     6</i>
   <i type="int" name="NSIM">     4</i>
   <i type="int" name="NBLK">    -1</i>
   <i type="logical" name="LPLANE"> T  </i>
   <i type="logical" name="LSCALAPACK"> T  </i>
   <i type="logical" name="LSCAAWARE"> F  </i>
   <i type="logical" name="LSCALU"> F  </i>
   <i type="logical" name="LASYNC"> F  </i>
   <i type="logical" name="LORBITALREAL"> F  </i>
  </separator>
  <separator name="miscellaneous" >
   <i type="int" name="IDIOT">     3</i>
   <i type="int" name="PHON_NSTRUCT">    -1</i>
   <i type="logical" name="LMUSIC"> F  </i>
   <v name="POMASS">     10.81100000     95.94000000     28.08500000</v>
   <v name="DARWINR">      0.00000000      0.00000000      0.00000000</v>
   <v name="DARWINV">      1.00000000      1.00000000      1.00000000</v>
   <i type="logical" name="LCORR"> T  </i>
  </separator>
  <i type="logical" name="GGA_COMPAT"> T  </i>
  <i type="logical" name="LBERRY"> F  </i>
  <i type="int" name="ICORELEVEL">     0</i>
  <i type="logical" name="LDAU"> F  </i>
  <i type="int" name="I_CONSTRAINED_M">     0</i>
  <separator name="electronic exchange-correlation" >
   <i type="string" name="GGA">--</i>
   <i type="int" name="VOSKOWN">     0</i>
   <i type="logical" name="LHFCALC"> F  </i>
   <i type="string" name="PRECFOCK"></i>
   <i type="logical" name="LSYMGRAD"> F  </i>
   <i type="logical" name="LHFONE"> F  </i>
   <i type="logical" name="LRHFCALC"> F  </i>
   <i type="logical" name="LTHOMAS"> F  </i>
   <i type="logical" name="LMODELHF"> F  </i>
   <i type="logical" name="LFOCKACE"> F  </i>
   <i name="ENCUT4O">     -1.00000000</i>
   <i type="int" name="EXXOEP">     0</i>
   <i type="int" name="FOURORBIT">     0</i>
   <i name="AEXX">      0.00000000</i>
   <i name="HFALPHA">      0.00000000</i>
   <i name="MCALPHA">      0.00000000</i>
   <i name="ALDAX">      1.00000000</i>
   <i name="AGGAX">      1.00000000</i>
   <i name="ALDAC">      1.00000000</i>
   <i name="AGGAC">      1.00000000</i>
   <i type="int" name="NKREDX">     1</i>
   <i type="int" name="NKREDY">     1</i>
   <i type="int" name="NKREDZ">     1</i>
   <i type="logical" name="SHIFTRED"> F  </i>
   <i type="logical" name="ODDONLY"> F  </i>
   <i type="logical" name="EVENONLY"> F  </i>
   <i type="int" name="LMAXFOCK">     0</i>
   <i type="int" name="NMAXFOCKAE">     0</i>
   <i type="logical" name="LFOCKAEDFT"> F  </i>
   <i name="HFSCREEN">      0.00000000</i>
   <i name="HFSCREENC">      0.00000000</i>
   <i type="int" name="NBANDSGWLOW">     0</i>
  </separator>
  <separator name="vdW DFT" >
   <i type="logical" name="LUSE_VDW"> F  </i>
   <i name="Zab_VDW">     -0.84910000</i>
   <i name="PARAM1">      0.12340000</i>
   <i name="PARAM2">      1.00000000</i>
   <i name="PARAM3">      0.00000000</i>
  </separator>
  <separator name="model GW" >
   <i type="int" name="MODEL_GW">     0</i>
   <i name="MODEL_EPS0">     10.68551070</i>
   <i name="MODEL_ALPHA">      1.00000000</i>
  </separator>
  <separator name="linear response parameters" >
   <i type="logical" name="LEPSILON"> F  </i>
   <i type="logical" name="LRPA"> F  </i>
   <i type="logical" name="LNABLA"> F  </i>
   <i type="logical" name="LVEL"> F  </i>
   <i type="int" name="KINTER">     0</i>
   <i name="CSHIFT">      0.10000000</i>
   <i name="OMEGAMAX">     -1.00000000</i>
   <i name="DEG_THRESHOLD">      0.00200000</i>
   <i name="RTIME">     -0.10000000</i>
   <i name="WPLASMAI">      0.00000000</i>
   <v name="DFIELD">      0.00000000      0.00000000      0.00000000</v>
   <v name="WPLASMA">      0.00000000      0.00000000      0.00000000      0.00000000      0.00000000      0.00000000      0.00000000      0.00000000      0.00000000</v>
  </separator>
  <separator name="orbital magnetization" >
   <i type="logical" name="NUCIND"> F  </i>
   <v name="MAGPOS">      0.00000000      0.00000000      0.00000000</v>
   <i type="logical" name="LNICSALL"> T  </i>
   <i type="logical" name="ORBITALMAG"> F  </i>
   <i type="logical" name="LMAGBLOCH"> F  </i>
   <i type="logical" name="LCHIMAG"> F  </i>
   <i type="logical" name="LGAUGE"> T  </i>
   <i type="int" name="MAGATOM">     0</i>
   <v name="MAGDIPOL">      0.00000000      0.00000000      0.00000000</v>
   <v name="AVECCONST">      0.00000000      0.00000000      0.00000000</v>
  </separator>
  <separator name="response functions" >
   <i type="logical" name="LFINITE_TEMPERATURE"> F  </i>
   <i type="logical" name="LADDER"> F  </i>
   <i type="logical" name="LRPAFORCE"> F  </i>
   <i type="logical" name="LFXC"> F  </i>
   <i type="logical" name="LHARTREE"> T  </i>
   <i type="int" name="IBSE">     0</i>
   <v type="int" name="KPOINT">    -1     0     0     0</v>
   <i type="logical" name="LTCTC"> F  </i>
   <i type="logical" name="LTCTE"> F  </i>
   <i type="logical" name="LTETE"> F  </i>
   <i type="logical" name="LTRIPLET"> F  </i>
   <i type="logical" name="LFXCEPS"> F  </i>
   <i type="logical" name="LFXHEG"> F  </i>
   <i type="int" name="NATURALO">     2</i>
   <i type="logical" name="LHOLEGF"> F  </i>
   <i type="logical" name="L2ORDER"> F  </i>
   <i type="logical" name="LDMP1"> F  </i>
   <i type="logical" name="LMP2LT"> F  </i>
   <i type="logical" name="LSMP2LT"> F  </i>
   <i type="logical" name="LGWLF"> F  </i>
   <i name="ENCUTGW">     -2.00000000</i>
   <i name="ENCUTGWSOFT">     -2.00000000</i>
   <i name="ENCUTLF">     -1.00000000</i>
   <i type="logical" name="LESF_SPLINES"> F  </i>
   <i type="int" name="LMAXMP2">    -1</i>
   <i name="SCISSOR">      0.00000000</i>
   <i type="int" name="NOMEGA">     0</i>
   <i type="int" name="NOMEGAR">     0</i>
   <i type="int" name="NBANDSGW">    -1</i>
   <i type="int" name="NBANDSO">    -1</i>
   <i type="int" name="NBANDSV">    -1</i>
   <i type="int" name="NELM">   100</i>
   <i type="int" name="NELMHF">     1</i>
   <i type="int" name="DIM">     3</i>
   <i type="int" name="IESPILON">     4</i>
   <i type="int" name="ANTIRES">     0</i>
   <i name="OMEGAMAX">    -30.00000000</i>
   <i name="OMEGAMIN">    -30.00000000</i>
   <i name="OMEGATL">   -200.00000000</i>
   <i type="int" name="OMEGAGRID">     0</i>
   <i name="CSHIFT">     -0.10000000</i>
   <i type="logical" name="LSELFENERGY"> F  </i>
   <i type="logical" name="LSPECTRAL"> F  </i>
   <i type="logical" name="LSPECTRALGW"> F  </i>
   <i type="logical" name="LSINGLES"> F  </i>
   <i type="logical" name="LFERMIGW"> F  </i>
   <i type="logical" name="ODDONLYGW"> F  </i>
   <i type="logical" name="EVENONLYGW"> F  </i>
   <i type="int" name="NKREDLFX">     1</i>
   <i type="int" name="NKREDLFY">     1</i>
   <i type="int" name="NKREDLFZ">     1</i>
   <i type="int" name="MAXMEM">  2800</i>
   <i type="int" name="TELESCOPE">     0</i>
   <i type="int" name="NTAUPAR">    -1</i>
   <i type="int" name="NOMEGAPAR">    -1</i>
   <i name="DAMP_NEWTON">      0.80000001</i>
   <i name="LAMBDA">      1.00000000</i>
  </separator>
  <separator name="External order field" >
   <i name="OFIELD_KAPPA">      0.00000000</i>
   <v name="OFIELD_K">      0.00000000      0.00000000      0.00000000</v>
   <i name="OFIELD_Q6_NEAR">      0.00000000</i>
   <i name="OFIELD_Q6_FAR">      0.00000000</i>
   <i name="OFIELD_A">      0.00000000</i>
  </separator>
 </parameters>
 <atominfo>
  <atoms>      12 </atoms>
  <types>       3 </types>
  <array name="atoms" >
   <dimension dim="1">ion</dimension>
   <field type="string">element</field>
   <field type="int">atomtype</field>
   <set>
    <rc><c>B </c><c>   1</c></rc>
    <rc><c>B </c><c>   1</c></rc>
    <rc><c>Mo</c><c>   2</c></rc>
    <rc><c>Mo</c><c>   2</c></rc>
    <rc><c>Mo</c><c>   2</c></rc>
    <rc><c>Mo</c><c>   2</c></rc>
    <rc><c>Mo</c><c>   2</c></rc>
    <rc><c>Mo</c><c>   2</c></rc>
    <rc><c>Mo</c><c>   2</c></rc>
    <rc><c>Mo</c><c>   2</c></rc>
    <rc><c>Si</c><c>   3</c></rc>
    <rc><c>Si</c><c>   3</c></rc>
   </set>
  </array>
  <array name="atomtypes" >
   <dimension dim="1">type</dimension>
   <field type="int">atomspertype</field>
   <field type="string">element</field>
   <field>mass</field>
   <field>valence</field>
   <field type="string">pseudopotential</field>
   <set>
    <rc><c>   2</c><c>B </c><c>     10.81100000</c><c>      3.00000000</c><c>  PAW_PBE B 06Sep2000                   </c></rc>
    <rc><c>   8</c><c>Mo</c><c>     95.94000000</c><c>     14.00000000</c><c>  PAW_PBE Mo_sv 02Feb2006               </c></rc>
    <rc><c>   2</c><c>Si</c><c>     28.08500000</c><c>      4.00000000</c><c>  PAW_PBE Si 05Jan2001                  </c></rc>
   </set>
  </array>
 </atominfo>
 <structure name="initialpos" >
  <crystal>
   <varray name="basis" >
    <v>       5.89988881       0.00000000      -3.00977617 </v>
    <v>      -2.21323272       5.46902998      -3.00977617 </v>
    <v>       0.00000000       0.00000000       6.62325000 </v>
   </varray>
   <i name="volume">    213.71021401 </i>
   <varray name="rec_basis" >
    <v>       0.16949472       0.06859192       0.00000000 </v>
    <v>       0.00000000       0.18284778       0.00000000 </v>
    <v>       0.07702279       0.11426071       0.15098328 </v>
   </varray>
  </crystal>
  <varray name="positions" >
   <v>       0.25000000       0.75000000       0.50000000 </v>
   <v>       0.75000000       0.25000000       0.50000000 </v>
   <v>       0.37704000       0.87704000       0.25408000 </v>
   <v>       0.00000000       0.00000000       0.50000000 </v>
   <v>       0.62296000       0.12296000       0.74592000 </v>
   <v>       0.87704000       0.62296000       0.50000000 </v>
   <v>       0.00000000       0.50000000       0.00000000 </v>
   <v>       0.12296000       0.37704000       0.50000000 </v>
   <v>       0.50000000       0.50000000       0.50000000 </v>
   <v>       0.50000000       0.00000000       0.00000000 </v>
   <v>       0.25000000       0.25000000       0.00000000 </v>
   <v>       0.75000000       0.75000000       0.00000000 </v>
  </varray>
 </structure>
 <calculation>
  <scstep>
   <time name="total">   35.39   35.69</time>
   <energy>
    <i name="alphaZ">    657.83407630 </i>
    <i name="ewald"> -11316.36515296 </i>
    <i name="hartreedc">  -3722.39098642 </i>
    <i name="XCdc">    612.16655898 </i>
    <i name="pawpsdc">  12139.29562609 </i>
    <i name="pawaedc"> -12091.82663909 </i>
    <i name="eentropy">     -0.00088880 </i>
    <i name="bandstr">   -120.89642079 </i>
    <i name="atom">  15246.73248675 </i>
    <i name="e_fr_energy">   1404.54866005 </i>
    <i name="e_wo_entrp">   1404.54954885 </i>
    <i name="e_0_energy">   1404.54910445 </i>
   </energy>
  </scstep>
  <scstep>
   <time name="total">   41.78   42.71</time>
   <energy>
    <i name="e_fr_energy">   -217.38774446 </i>
    <i name="e_wo_entrp">   -217.38572169 </i>
    <i name="e_0_energy">   -217.38673307 </i>
   </energy>
  </scstep>
  <scstep>
   <time name="total">   46.34   47.15</time>
   <energy>
    <i name="e_fr_energy">   -284.59003238 </i>
    <i name="e_wo_entrp">   -284.58829698 </i>
    <i name="e_0_energy">   -284.58916468 </i>
   </energy>
  </scstep>
  <scstep>
   <time name="total">   45.47   46.25</time>
   <energy>
    <i name="e_fr_energy">   -286.41615208 </i>
    <i name="e_wo_entrp">   -286.41376857 </i>
    <i name="e_0_energy">   -286.41496033 </i>
   </energy>
  </scstep>
  <scstep>
   <time name="total">   48.71   49.57</time>
   <energy>
    <i name="e_fr_energy">   -286.45943120 </i>
    <i name="e_wo_entrp">   -286.45693369 </i>
    <i name="e_0_energy">   -286.45818245 </i>
   </energy>
  </scstep>
  <scstep>
   <time name="total">   47.96   48.80</time>
   <energy>
    <i name="e_fr_energy">   -214.25047321 </i>
    <i name="e_wo_entrp">   -214.24940355 </i>
    <i name="e_0_energy">   -214.24993838 </i>
   </energy>
  </scstep>
  <scstep>
   <time name="total">   54.54   55.35</time>
   <energy>
    <i name="e_fr_energy">   -228.07427561 </i>
    <i name="e_wo_entrp">   -228.07287127 </i>
    <i name="e_0_energy">   -228.07357344 </i>
   </energy>
  </scstep>
  <scstep>
   <time name="total">   57.25   57.95</time>
   <energy>
    <i name="e_fr_energy">   -230.66066201 </i>
    <i name="e_wo_entrp">   -230.65887682 </i>
    <i name="e_0_energy">   -230.65976941 </i>
   </energy>
  </scstep>
  <scstep>
   <time name="total">   55.39   55.89</time>
   <energy>
    <i name="e_fr_energy">   -231.37313053 </i>
    <i name="e_wo_entrp">   -231.37104597 </i>
    <i name="e_0_energy">   -231.37208825 </i>
   </energy>
  </scstep>
  <scstep>
   <time name="total">   56.45   57.25</time>
   <energy>
    <i name="e_fr_energy">   -231.68081059 </i>
    <i name="e_wo_entrp">   -231.67857554 </i>
    <i name="e_0_energy">   -231.67969306 </i>
   </energy>
  </scstep>
  <scstep>
   <time name="total">   53.57   54.47</time>
   <energy>
    <i name="e_fr_energy">   -231.77845733 </i>
    <i name="e_wo_entrp">   -231.77619956 </i>
    <i name="e_0_energy">   -231.77732844 </i>
   </energy>
  </scstep>
  <scstep>
   <time name="total">   54.57   55.03</time>
   <energy>
    <i name="e_fr_energy">   -231.82103083 </i>
    <i name="e_wo_entrp">   -231.81870879 </i>
    <i name="e_0_energy">   -231.81986981 </i>
   </energy>
  </scstep>
  <scstep>
   <time name="total">   58.16   58.74</time>
   <energy>
    <i name="e_fr_energy">   -231.83982524 </i>
    <i name="e_wo_entrp">   -231.83738345 </i>
    <i name="e_0_energy">   -231.83860434 </i>
   </energy>
  </scstep>
  <scstep>
   <time name="total">   55.57   56.13</time>
   <energy>
    <i name="e_fr_energy">   -231.84828985 </i>
    <i name="e_wo_entrp">   -231.84567551 </i>
    <i name="e_0_energy">   -231.84698268 </i>
   </energy>
  </scstep>
  <scstep>
   <time name="total">   52.76   53.29</time>
   <energy>
    <i name="e_fr_energy">   -231.85302763 </i>
    <i name="e_wo_entrp">   -231.85033031 </i>
    <i name="e_0_energy">   -231.85167897 </i>
   </energy>
  </scstep>
  <scstep>
   <time name="total">   54.03   54.69</time>
   <energy>
    <i name="e_fr_energy">   -231.85493210 </i>
    <i name="e_wo_entrp">   -231.85219687 </i>
    <i name="e_0_energy">   -231.85356449 </i>
   </energy>
  </scstep>
  <scstep>
   <time name="total">   58.00   58.94</time>
   <energy>
    <i name="e_fr_energy">   -231.85592007 </i>
    <i name="e_wo_entrp">   -231.85317722 </i>
    <i name="e_0_energy">   -231.85454864 </i>
   </energy>
  </scstep>
  <scstep>
   <time name="total">   51.21   52.10</time>
   <energy>
    <i name="e_fr_energy">   -231.85646825 </i>
    <i name="e_wo_entrp">   -231.85373155 </i>
    <i name="e_0_energy">   -231.85509990 </i>
   </energy>
  </scstep>
  <scstep>
   <time name="total">   59.23   59.72</time>
   <energy>
    <i name="e_fr_energy">   -231.85675042 </i>
    <i name="e_wo_entrp">   -231.85402742 </i>
    <i name="e_0_energy">   -231.85538892 </i>
   </energy>
  </scstep>
  <scstep>
   <time name="total">   54.98   55.50</time>
   <energy>
    <i name="e_fr_energy">   -231.85690921 </i>
    <i name="e_wo_entrp">   -231.85419707 </i>
    <i name="e_0_energy">   -231.85555314 </i>
   </energy>
  </scstep>
  <scstep>
   <time name="total">   59.39   60.17</time>
   <energy>
    <i name="e_fr_energy">   -231.85697570 </i>
    <i name="e_wo_entrp">   -231.85427363 </i>
    <i name="e_0_energy">   -231.85562467 </i>
   </energy>
  </scstep>
  <scstep>
   <time name="total">   56.47   57.24</time>
   <energy>
    <i name="e_fr_energy">   -231.85701921 </i>
    <i name="e_wo_entrp">   -231.85432617 </i>
    <i name="e_0_energy">   -231.85567269 </i>
   </energy>
  </scstep>
  <scstep>
   <time name="total">   56.92   57.45</time>
   <energy>
    <i name="e_fr_energy">   -231.85704702 </i>
    <i name="e_wo_entrp">   -231.85435749 </i>
    <i name="e_0_energy">   -231.85570226 </i>
   </energy>
  </scstep>
  <scstep>
   <time name="total">   56.94   57.45</time>
   <energy>
    <i name="e_fr_energy">   -231.85705767 </i>
    <i name="e_wo_entrp">   -231.85436969 </i>
    <i name="e_0_energy">   -231.85571368 </i>
   </energy>
  </scstep>
  <scstep>
   <time name="total">   54.60   55.16</time>
   <energy>
    <i name="e_fr_energy">   -231.85706380 </i>
    <i name="e_wo_entrp">   -231.85437602 </i>
    <i name="e_0_energy">   -231.85571991 </i>
   </energy>
  </scstep>
  <scstep>
   <time name="total">   54.79   55.74</time>
   <energy>
    <i name="e_fr_energy">   -231.85706692 </i>
    <i name="e_wo_entrp">   -231.85437879 </i>
    <i name="e_0_energy">   -231.85572286 </i>
   </energy>
  </scstep>
  <scstep>
   <time name="total">   56.45   57.18</time>
   <energy>
    <i name="e_fr_energy">   -231.85706881 </i>
    <i name="e_wo_entrp">   -231.85438018 </i>
    <i name="e_0_energy">   -231.85572450 </i>
   </energy>
  </scstep>
  <scstep>
   <time name="total">   55.84   56.51</time>
   <energy>
    <i name="e_fr_energy">   -231.85706975 </i>
    <i name="e_wo_entrp">   -231.85438069 </i>
    <i name="e_0_energy">   -231.85572522 </i>
   </energy>
  </scstep>
  <scstep>
   <time name="total">   55.09   55.77</time>
   <energy>
    <i name="e_fr_energy">   -231.85707024 </i>
    <i name="e_wo_entrp">   -231.85438072 </i>
    <i name="e_0_energy">   -231.85572548 </i>
   </energy>
  </scstep>
  <scstep>
   <time name="total">   53.63   54.09</time>
   <energy>
    <i name="e_fr_energy">   -231.85707057 </i>
    <i name="e_wo_entrp">   -231.85438073 </i>
    <i name="e_0_energy">   -231.85572565 </i>
   </energy>
  </scstep>
  <scstep>
   <time name="total">   56.51   56.99</time>
   <energy>
    <i name="e_fr_energy">   -231.85707071 </i>
    <i name="e_wo_entrp">   -231.85438063 </i>
    <i name="e_0_energy">   -231.85572567 </i>
   </energy>
  </scstep>
  <scstep>
   <time name="total">   55.90   56.72</time>
   <energy>
    <i name="e_fr_energy">   -231.85707081 </i>
    <i name="e_wo_entrp">   -231.85438066 </i>
    <i name="e_0_energy">   -231.85572573 </i>
   </energy>
  </scstep>
  <scstep>
   <time name="total">   54.79   55.78</time>
   <energy>
    <i name="e_fr_energy">   -231.85707085 </i>
    <i name="e_wo_entrp">   -231.85438069 </i>
    <i name="e_0_energy">   -231.85572577 </i>
   </energy>
  </scstep>
  <scstep>
   <time name="total">   55.83   56.76</time>
   <energy>
    <i name="e_fr_energy">   -231.85707088 </i>
    <i name="e_wo_entrp">   -231.85438073 </i>
    <i name="e_0_energy">   -231.85572580 </i>
   </energy>
  </scstep>
  <scstep>
   <time name="total">   54.29   54.77</time>
   <energy>
    <i name="e_fr_energy">   -231.85707090 </i>
    <i name="e_wo_entrp">   -231.85438075 </i>
    <i name="e_0_energy">   -231.85572582 </i>
   </energy>
  </scstep>
  <scstep>
   <time name="total">   53.91   54.75</time>
   <energy>
    <i name="e_fr_energy">   -231.85707086 </i>
    <i name="e_wo_entrp">   -231.85438070 </i>
    <i name="e_0_energy">   -231.85572578 </i>
   </energy>
  </scstep>
  <scstep>
   <time name="total">   51.47   52.08</time>
   <energy>
    <i name="e_fr_energy">   -231.85707089 </i>
    <i name="e_wo_entrp">   -231.85438071 </i>
    <i name="e_0_energy">   -231.85572580 </i>
   </energy>
  </scstep>
  <scstep>
   <time name="total">   54.82   55.80</time>
   <energy>
    <i name="e_fr_energy">   -231.85707090 </i>
    <i name="e_wo_entrp">   -231.85438071 </i>
    <i name="e_0_energy">   -231.85572580 </i>
   </energy>
  </scstep>
  <scstep>
   <time name="total">   52.98   53.43</time>
   <energy>
    <i name="e_fr_energy">   -231.85707091 </i>
    <i name="e_wo_entrp">   -231.85438070 </i>
    <i name="e_0_energy">   -231.85572581 </i>
   </energy>
  </scstep>
  <scstep>
   <time name="total">   53.08   53.53</time>
   <energy>
    <i name="e_fr_energy">   -231.85707092 </i>
    <i name="e_wo_entrp">   -231.85438071 </i>
    <i name="e_0_energy">   -231.85572581 </i>
   </energy>
  </scstep>
  <scstep>
   <time name="total">   60.00   60.58</time>
   <energy>
    <i name="alphaZ">    657.83407630 </i>
    <i name="ewald"> -11316.36515296 </i>
    <i name="hartreedc">  -3561.49044803 </i>
    <i name="XCdc">    622.85278005 </i>
    <i name="pawpsdc">  14345.70062910 </i>
    <i name="pawaedc"> -14320.99502036 </i>
    <i name="eentropy">     -0.00269021 </i>
    <i name="bandstr">  -1906.12373155 </i>
    <i name="atom">  15246.73248675 </i>
    <i name="e_fr_energy">   -231.85707092 </i>
    <i name="e_wo_entrp">   -231.85438071 </i>
    <i name="e_0_energy">   -231.85572581 </i>
   </energy>
  </scstep>
  <structure>
   <crystal>
    <varray name="basis" >
     <v>       5.89988881       0.00000000      -3.00977617 </v>
     <v>      -2.21323272       5.46902998      -3.00977617 </v>
     <v>       0.00000000       0.00000000       6.62325000 </v>
    </varray>
    <i name="volume">    213.71021401 </i>
    <varray name="rec_basis" >
     <v>       0.16949472       0.06859192       0.00000000 </v>
     <v>       0.00000000       0.18284778       0.00000000 </v>
     <v>       0.07702279       0.11426071       0.15098328 </v>
    </varray>
   </crystal>
   <varray name="positions" >
    <v>       0.25000000       0.75000000       0.50000000 </v>
    <v>       0.75000000       0.25000000       0.50000000 </v>
    <v>       0.37704000       0.87704000       0.25408000 </v>
    <v>       0.00000000       0.00000000       0.50000000 </v>
    <v>       0.62296000       0.12296000       0.74592000 </v>
    <v>       0.87704000       0.62296000       0.50000000 </v>
    <v>       0.00000000       0.50000000       0.00000000 </v>
    <v>       0.12296000       0.37704000       0.50000000 </v>
    <v>       0.50000000       0.50000000       0.50000000 </v>
    <v>       0.50000000       0.00000000       0.00000000 </v>
    <v>       0.25000000       0.25000000       0.00000000 </v>
    <v>       0.75000000       0.75000000       0.00000000 </v>
   </varray>
  </structure>
  <varray name="forces" >
   <v>       0.00000000       0.00000000       0.00000000 </v>
   <v>       0.00000000       0.00000000       0.00000000 </v>
   <v>       0.00000000       0.00000000       0.00000000 </v>
   <v>       0.00000000       0.00000000       0.00000000 </v>
   <v>       0.00000000       0.00000000       0.00000000 </v>
   <v>       0.00000000       0.00000000       0.00000000 </v>
   <v>       0.00000000       0.00000000       0.00000000 </v>
   <v>       0.00000000       0.00000000       0.00000000 </v>
   <v>       0.00000000       0.00000000       0.00000000 </v>
   <v>       0.00000000       0.00000000       0.00000000 </v>
   <v>       0.00000000       0.00000000       0.00000000 </v>
   <v>       0.00000000       0.00000000       0.00000000 </v>
  </varray>
  <varray name="stress" >
   <v>       0.00000000       0.00000000       0.00000000 </v>
   <v>       0.00000000       0.00000000       0.00000000 </v>
   <v>       0.00000000       0.00000000       0.00000000 </v>
  </varray>
  <energy>
   <i name="e_fr_energy">   -231.85707092 </i>
   <i name="e_wo_entrp">   -231.85438071 </i>
   <i name="e_0_energy">   -231.85572581 </i>
  </energy>
  <time name="totalsc"> 2214.85 2243.10</time>
  <eigenvalues>
   <array>
    <dimension dim="1">band</dimension>
    <dimension dim="2">kpoint</dimension>
    <dimension dim="3">spin</dimension>
    <field>eigene</field>
    <field>occ</field>
    <set>
     <set comment="spin 1">
      <set comment="kpoint 1">
       <r>  -54.7619    1.0000 </r>
       <r>  -54.7493    1.0000 </r>
       <r>  -54.5147    1.0000 </r>
       <r>  -54.5147    1.0000 </r>
       <r>  -54.4627    1.0000 </r>
       <r>  -54.4627    1.0000 </r>
       <r>  -54.4504    1.0000 </r>
       <r>  -54.4467    1.0000 </r>
       <r>  -28.7609    1.0000 </r>
       <r>  -28.7354    1.0000 </r>
       <r>  -28.6078    1.0000 </r>
       <r>  -28.5928    1.0000 </r>
       <r>  -28.1968    1.0000 </r>
       <r>  -28.1968    1.0000 </r>
       <r>  -28.1126    1.0000 </r>
       <r>  -28.1126    1.0000 </r>
       <r>  -28.0866    1.0000 </r>
       <r>  -27.9491    1.0000 </r>
       <r>  -27.9426    1.0000 </r>
       <r>  -27.9406    1.0000 </r>
       <r>  -27.9406    1.0000 </r>
       <r>  -27.9337    1.0000 </r>
       <r>  -27.9156    1.0000 </r>
       <r>  -27.8917    1.0000 </r>
       <r>  -27.8917    1.0000 </r>
       <r>  -27.8877    1.0000 </r>
       <r>  -27.8877    1.0000 </r>
       <r>  -27.8507    1.0000 </r>
       <r>  -27.2077    1.0000 </r>
       <r>  -27.1894    1.0000 </r>
       <r>  -26.9878    1.0000 </r>
       <r>  -26.9878    1.0000 </r>
       <r>   -1.7814    1.0000 </r>
       <r>    0.0236    1.0000 </r>
       <r>    0.9571    1.0000 </r>
       <r>    1.1333    1.0000 </r>
       <r>    2.7874    1.0000 </r>
       <r>    2.7874    1.0000 </r>
       <r>    3.2724    1.0000 </r>
       <r>    3.9424    1.0000 </r>
       <r>    4.4904    1.0000 </r>
       <r>    4.8678    1.0000 </r>
       <r>    4.9363    1.0000 </r>
       <r>    4.9364    1.0000 </r>
       <r>    5.1465    1.0000 </r>
       <r>    5.3032    1.0000 </r>
       <r>    5.3033    1.0000 </r>
       <r>    5.5637    1.0000 </r>
       <r>    5.9151    1.0000 </r>
       <r>    5.9151    1.0000 </r>
       <r>    5.9876    1.0000 </r>
       <r>    5.9877    1.0000 </r>
       <r>    6.0626    1.0000 </r>
       <r>    6.0626    1.0000 </r>
       <r>    6.3890    1.0000 </r>
       <r>    6.9147    1.0000 </r>
       <r>    7.2727    1.0000 </r>
       <r>    7.4569    1.0000 </r>
       <r>    7.6369    1.0000 </r>
       <r>    7.6385    1.0000 </r>
       <r>    7.8199    1.0000 </r>
       <r>    7.8199    1.0000 </r>
       <r>    8.2213    1.0000 </r>
       <r>    8.4528    0.1138 </r>
       <r>    8.4529    0.1130 </r>
       <r>    8.5388    0.0000 </r>
       <r>    8.5982    0.0000 </r>
       <r>    9.1461    0.0000 </r>
       <r>    9.1461    0.0000 </r>
       <r>    9.3167    0.0000 </r>
       <r>    9.8542    0.0000 </r>
       <r>    9.9633    0.0000 </r>
       <r>    9.9633    0.0000 </r>
       <r>   10.1553    0.0000 </r>
       <r>   10.1553    0.0000 </r>
       <r>   10.6587    0.0000 </r>
       <r>   10.7649    0.0000 </r>
       <r>   11.4029    0.0000 </r>
      </set>
      <set comment="kpoint 2">
       <r>  -54.7571    1.0000 </r>
       <r>  -54.7455    1.0000 </r>
       <r>  -54.5290    1.0000 </r>
       <r>  -54.5285    1.0000 </r>
       <r>  -54.4727    1.0000 </r>
       <r>  -54.4715    1.0000 </r>
       <r>  -54.4305    1.0000 </r>
       <r>  -54.4282    1.0000 </r>
       <r>  -28.7583    1.0000 </r>
       <r>  -28.7379    1.0000 </r>
       <r>  -28.6057    1.0000 </r>
       <r>  -28.5884    1.0000 </r>
       <r>  -28.1960    1.0000 </r>
       <r>  -28.1926    1.0000 </r>
       <r>  -28.1667    1.0000 </r>
       <r>  -28.1667    1.0000 </r>
       <r>  -28.0885    1.0000 </r>
       <r>  -27.9731    1.0000 </r>
       <r>  -27.9594    1.0000 </r>
       <r>  -27.9445    1.0000 </r>
       <r>  -27.9293    1.0000 </r>
       <r>  -27.9143    1.0000 </r>
       <r>  -27.9135    1.0000 </r>
       <r>  -27.8903    1.0000 </r>
       <r>  -27.8880    1.0000 </r>
       <r>  -27.8542    1.0000 </r>
       <r>  -27.8133    1.0000 </r>
       <r>  -27.8116    1.0000 </r>
       <r>  -27.2179    1.0000 </r>
       <r>  -27.2013    1.0000 </r>
       <r>  -26.9979    1.0000 </r>
       <r>  -26.9978    1.0000 </r>
       <r>   -1.6805    1.0000 </r>
       <r>    0.0700    1.0000 </r>
       <r>    0.7338    1.0000 </r>
       <r>    1.0205    1.0000 </r>
       <r>    2.8698    1.0000 </r>
       <r>    3.0369    1.0000 </r>
       <r>    3.3927    1.0000 </r>
       <r>    3.9916    1.0000 </r>
       <r>    4.3831    1.0000 </r>
       <r>    4.8238    1.0000 </r>
       <r>    4.9060    1.0000 </r>
       <r>    4.9672    1.0000 </r>
       <r>    5.0440    1.0000 </r>
       <r>    5.2302    1.0000 </r>
       <r>    5.3055    1.0000 </r>
       <r>    5.4967    1.0000 </r>
       <r>    5.6977    1.0000 </r>
       <r>    5.7891    1.0000 </r>
       <r>    6.0230    1.0000 </r>
       <r>    6.0539    1.0000 </r>
       <r>    6.0723    1.0000 </r>
       <r>    6.1488    1.0000 </r>
       <r>    6.6127    1.0000 </r>
       <r>    6.6602    1.0000 </r>
       <r>    7.0212    1.0000 </r>
       <r>    7.4215    1.0000 </r>
       <r>    7.4832    1.0000 </r>
       <r>    7.5439    1.0000 </r>
       <r>    7.8373    1.0000 </r>
       <r>    7.9327    1.0000 </r>
       <r>    8.2344    1.0000 </r>
       <r>    8.3215    1.0000 </r>
       <r>    8.4701    0.0076 </r>
       <r>    8.7116    0.0000 </r>
       <r>    8.9882    0.0000 </r>
       <r>    9.0331    0.0000 </r>
       <r>    9.3154    0.0000 </r>
       <r>    9.4245    0.0000 </r>
       <r>    9.8194    0.0000 </r>
       <r>    9.9256    0.0000 </r>
       <r>    9.9802    0.0000 </r>
       <r>   10.0243    0.0000 </r>
       <r>   10.5263    0.0000 </r>
       <r>   10.6263    0.0000 </r>
       <r>   10.7029    0.0000 </r>
       <r>   10.9178    0.0000 </r>
      </set>
      <set comment="kpoint 3">
       <r>  -54.7448    1.0000 </r>
       <r>  -54.7360    1.0000 </r>
       <r>  -54.5576    1.0000 </r>
       <r>  -54.5564    1.0000 </r>
       <r>  -54.4767    1.0000 </r>
       <r>  -54.4758    1.0000 </r>
       <r>  -54.4086    1.0000 </r>
       <r>  -54.4070    1.0000 </r>
       <r>  -28.7553    1.0000 </r>
       <r>  -28.7453    1.0000 </r>
       <r>  -28.5931    1.0000 </r>
       <r>  -28.5739    1.0000 </r>
       <r>  -28.2633    1.0000 </r>
       <r>  -28.2586    1.0000 </r>
       <r>  -28.1784    1.0000 </r>
       <r>  -28.1724    1.0000 </r>
       <r>  -28.0908    1.0000 </r>
       <r>  -28.0129    1.0000 </r>
       <r>  -27.9658    1.0000 </r>
       <r>  -27.9505    1.0000 </r>
       <r>  -27.9169    1.0000 </r>
       <r>  -27.9060    1.0000 </r>
       <r>  -27.9050    1.0000 </r>
       <r>  -27.8857    1.0000 </r>
       <r>  -27.8777    1.0000 </r>
       <r>  -27.8548    1.0000 </r>
       <r>  -27.6875    1.0000 </r>
       <r>  -27.6868    1.0000 </r>
       <r>  -27.2505    1.0000 </r>
       <r>  -27.2385    1.0000 </r>
       <r>  -27.0196    1.0000 </r>
       <r>  -27.0192    1.0000 </r>
       <r>   -1.3894    1.0000 </r>
       <r>    0.1989    1.0000 </r>
       <r>    0.2065    1.0000 </r>
       <r>    0.8234    1.0000 </r>
       <r>    3.1066    1.0000 </r>
       <r>    3.5205    1.0000 </r>
       <r>    3.6734    1.0000 </r>
       <r>    4.1412    1.0000 </r>
       <r>    4.1676    1.0000 </r>
       <r>    4.5599    1.0000 </r>
       <r>    4.8460    1.0000 </r>
       <r>    4.9165    1.0000 </r>
       <r>    5.0225    1.0000 </r>
       <r>    5.1949    1.0000 </r>
       <r>    5.2421    1.0000 </r>
       <r>    5.3528    1.0000 </r>
       <r>    5.3924    1.0000 </r>
       <r>    5.5904    1.0000 </r>
       <r>    5.8677    1.0000 </r>
       <r>    6.0390    1.0000 </r>
       <r>    6.0761    1.0000 </r>
       <r>    6.2312    1.0000 </r>
       <r>    6.5504    1.0000 </r>
       <r>    6.7567    1.0000 </r>
       <r>    6.8250    1.0000 </r>
       <r>    7.0168    1.0000 </r>
       <r>    7.3223    1.0000 </r>
       <r>    7.6384    1.0000 </r>
       <r>    7.8315    1.0000 </r>
       <r>    8.0419    1.0000 </r>
       <r>    8.1177    1.0000 </r>
       <r>    8.4428    0.3098 </r>
       <r>    8.6133    0.0000 </r>
       <r>    8.8744    0.0000 </r>
       <r>    9.1480    0.0000 </r>
       <r>    9.3220    0.0000 </r>
       <r>    9.4681    0.0000 </r>
       <r>    9.5463    0.0000 </r>
       <r>    9.6585    0.0000 </r>
       <r>    9.8033    0.0000 </r>
       <r>   10.0349    0.0000 </r>
       <r>   10.1180    0.0000 </r>
       <r>   10.5262    0.0000 </r>
       <r>   10.5846    0.0000 </r>
       <r>   10.7853    0.0000 </r>
       <r>   11.0110    0.0000 </r>
      </set>
      <set comment="kpoint 4">
       <r>  -54.7317    1.0000 </r>
       <r>  -54.7282    1.0000 </r>
       <r>  -54.5789    1.0000 </r>
       <r>  -54.5780    1.0000 </r>
       <r>  -54.4775    1.0000 </r>
       <r>  -54.4772    1.0000 </r>
       <r>  -54.3960    1.0000 </r>
       <r>  -54.3955    1.0000 </r>
       <r>  -28.7555    1.0000 </r>
       <r>  -28.7530    1.0000 </r>
       <r>  -28.5689    1.0000 </r>
       <r>  -28.5593    1.0000 </r>
       <r>  -28.3232    1.0000 </r>
       <r>  -28.3199    1.0000 </r>
       <r>  -28.1668    1.0000 </r>
       <r>  -28.1620    1.0000 </r>
       <r>  -28.0814    1.0000 </r>
       <r>  -28.0521    1.0000 </r>
       <r>  -27.9647    1.0000 </r>
       <r>  -27.9584    1.0000 </r>
       <r>  -27.9120    1.0000 </r>
       <r>  -27.9080    1.0000 </r>
       <r>  -27.8915    1.0000 </r>
       <r>  -27.8842    1.0000 </r>
       <r>  -27.8660    1.0000 </r>
       <r>  -27.8581    1.0000 </r>
       <r>  -27.5857    1.0000 </r>
       <r>  -27.5846    1.0000 </r>
       <r>  -27.2944    1.0000 </r>
       <r>  -27.2896    1.0000 </r>
       <r>  -27.0354    1.0000 </r>
       <r>  -27.0351    1.0000 </r>
       <r>   -0.9412    1.0000 </r>
       <r>   -0.3872    1.0000 </r>
       <r>    0.3853    1.0000 </r>
       <r>    0.6014    1.0000 </r>
       <r>    3.4617    1.0000 </r>
       <r>    3.7892    1.0000 </r>
       <r>    3.9189    1.0000 </r>
       <r>    4.0291    1.0000 </r>
       <r>    4.3333    1.0000 </r>
       <r>    4.4028    1.0000 </r>
       <r>    4.6487    1.0000 </r>
       <r>    4.7616    1.0000 </r>
       <r>    4.9614    1.0000 </r>
       <r>    5.0142    1.0000 </r>
       <r>    5.0867    1.0000 </r>
       <r>    5.2790    1.0000 </r>
       <r>    5.5107    1.0000 </r>
       <r>    5.5859    1.0000 </r>
       <r>    5.7730    1.0000 </r>
       <r>    5.9101    1.0000 </r>
       <r>    5.9739    1.0000 </r>
       <r>    6.0391    1.0000 </r>
       <r>    6.6340    1.0000 </r>
       <r>    6.6518    1.0000 </r>
       <r>    6.8344    1.0000 </r>
       <r>    6.9382    1.0000 </r>
       <r>    7.2964    1.0000 </r>
       <r>    7.4272    1.0000 </r>
       <r>    7.9119    1.0000 </r>
       <r>    7.9694    1.0000 </r>
       <r>    8.4727    0.0045 </r>
       <r>    8.6443    0.0000 </r>
       <r>    8.6833    0.0000 </r>
       <r>    8.9797    0.0000 </r>
       <r>    9.1595    0.0000 </r>
       <r>    9.2495    0.0000 </r>
       <r>    9.2750    0.0000 </r>
       <r>    9.4820    0.0000 </r>
       <r>    9.7383    0.0000 </r>
       <r>    9.7923    0.0000 </r>
       <r>   10.2594    0.0000 </r>
       <r>   10.3104    0.0000 </r>
       <r>   10.4803    0.0000 </r>
       <r>   10.5310    0.0000 </r>
       <r>   10.7272    0.0000 </r>
       <r>   10.9343    0.0000 </r>
      </set>
      <set comment="kpoint 5">
       <r>  -54.7489    1.0000 </r>
       <r>  -54.7374    1.0000 </r>
       <r>  -54.5570    1.0000 </r>
       <r>  -54.5495    1.0000 </r>
       <r>  -54.4764    1.0000 </r>
       <r>  -54.4587    1.0000 </r>
       <r>  -54.4273    1.0000 </r>
       <r>  -54.4078    1.0000 </r>
       <r>  -28.7626    1.0000 </r>
       <r>  -28.7468    1.0000 </r>
       <r>  -28.5868    1.0000 </r>
       <r>  -28.5314    1.0000 </r>
       <r>  -28.3061    1.0000 </r>
       <r>  -28.2613    1.0000 </r>
       <r>  -28.1798    1.0000 </r>
       <r>  -28.1798    1.0000 </r>
       <r>  -28.0982    1.0000 </r>
       <r>  -27.9970    1.0000 </r>
       <r>  -27.9558    1.0000 </r>
       <r>  -27.9551    1.0000 </r>
       <r>  -27.9210    1.0000 </r>
       <r>  -27.9095    1.0000 </r>
       <r>  -27.9034    1.0000 </r>
       <r>  -27.8854    1.0000 </r>
       <r>  -27.8841    1.0000 </r>
       <r>  -27.8532    1.0000 </r>
       <r>  -27.6870    1.0000 </r>
       <r>  -27.6787    1.0000 </r>
       <r>  -27.2646    1.0000 </r>
       <r>  -27.2422    1.0000 </r>
       <r>  -27.0194    1.0000 </r>
       <r>  -26.9990    1.0000 </r>
       <r>   -1.5367    1.0000 </r>
       <r>    0.1335    1.0000 </r>
       <r>    0.5870    1.0000 </r>
       <r>    0.8173    1.0000 </r>
       <r>    2.9986    1.0000 </r>
       <r>    3.1446    1.0000 </r>
       <r>    3.6376    1.0000 </r>
       <r>    4.0839    1.0000 </r>
       <r>    4.1384    1.0000 </r>
       <r>    4.7177    1.0000 </r>
       <r>    4.8921    1.0000 </r>
       <r>    4.8971    1.0000 </r>
       <r>    5.0521    1.0000 </r>
       <r>    5.2383    1.0000 </r>
       <r>    5.3260    1.0000 </r>
       <r>    5.4349    1.0000 </r>
       <r>    5.4540    1.0000 </r>
       <r>    5.6372    1.0000 </r>
       <r>    5.8761    1.0000 </r>
       <r>    5.9954    1.0000 </r>
       <r>    6.0622    1.0000 </r>
       <r>    6.2509    1.0000 </r>
       <r>    6.5101    1.0000 </r>
       <r>    6.7357    1.0000 </r>
       <r>    7.0390    1.0000 </r>
       <r>    7.1972    1.0000 </r>
       <r>    7.3878    1.0000 </r>
       <r>    7.7288    1.0000 </r>
       <r>    7.8403    1.0000 </r>
       <r>    7.8495    1.0000 </r>
       <r>    8.3304    1.0000 </r>
       <r>    8.3954    0.9979 </r>
       <r>    8.7499    0.0000 </r>
       <r>    8.9262    0.0000 </r>
       <r>    9.1134    0.0000 </r>
       <r>    9.1868    0.0000 </r>
       <r>    9.3170    0.0000 </r>
       <r>    9.4484    0.0000 </r>
       <r>    9.8054    0.0000 </r>
       <r>    9.9674    0.0000 </r>
       <r>   10.0043    0.0000 </r>
       <r>   10.1617    0.0000 </r>
       <r>   10.3106    0.0000 </r>
       <r>   10.6335    0.0000 </r>
       <r>   10.7336    0.0000 </r>
       <r>   10.9483    0.0000 </r>
      </set>
      <set comment="kpoint 6">
       <r>  -54.7358    1.0000 </r>
       <r>  -54.7283    1.0000 </r>
       <r>  -54.5784    1.0000 </r>
       <r>  -54.5725    1.0000 </r>
       <r>  -54.4778    1.0000 </r>
       <r>  -54.4711    1.0000 </r>
       <r>  -54.4033    1.0000 </r>
       <r>  -54.3957    1.0000 </r>
       <r>  -28.7667    1.0000 </r>
       <r>  -28.7529    1.0000 </r>
       <r>  -28.5656    1.0000 </r>
       <r>  -28.4936    1.0000 </r>
       <r>  -28.3863    1.0000 </r>
       <r>  -28.3211    1.0000 </r>
       <r>  -28.1683    1.0000 </r>
       <r>  -28.1661    1.0000 </r>
       <r>  -28.0987    1.0000 </r>
       <r>  -28.0274    1.0000 </r>
       <r>  -27.9680    1.0000 </r>
       <r>  -27.9586    1.0000 </r>
       <r>  -27.9103    1.0000 </r>
       <r>  -27.9027    1.0000 </r>
       <r>  -27.8987    1.0000 </r>
       <r>  -27.8810    1.0000 </r>
       <r>  -27.8753    1.0000 </r>
       <r>  -27.8563    1.0000 </r>
       <r>  -27.5849    1.0000 </r>
       <r>  -27.5570    1.0000 </r>
       <r>  -27.3267    1.0000 </r>
       <r>  -27.2917    1.0000 </r>
       <r>  -27.0353    1.0000 </r>
       <r>  -27.0164    1.0000 </r>
       <r>   -1.2223    1.0000 </r>
       <r>    0.1282    1.0000 </r>
       <r>    0.2561    1.0000 </r>
       <r>    0.6192    1.0000 </r>
       <r>    3.1942    1.0000 </r>
       <r>    3.5428    1.0000 </r>
       <r>    3.9098    1.0000 </r>
       <r>    3.9678    1.0000 </r>
       <r>    4.2646    1.0000 </r>
       <r>    4.4463    1.0000 </r>
       <r>    4.8245    1.0000 </r>
       <r>    4.8878    1.0000 </r>
       <r>    5.0032    1.0000 </r>
       <r>    5.0900    1.0000 </r>
       <r>    5.1851    1.0000 </r>
       <r>    5.3538    1.0000 </r>
       <r>    5.4078    1.0000 </r>
       <r>    5.6030    1.0000 </r>
       <r>    5.6900    1.0000 </r>
       <r>    5.9378    1.0000 </r>
       <r>    5.9877    1.0000 </r>
       <r>    6.1718    1.0000 </r>
       <r>    6.4780    1.0000 </r>
       <r>    6.5820    1.0000 </r>
       <r>    6.9674    1.0000 </r>
       <r>    7.0713    1.0000 </r>
       <r>    7.2478    1.0000 </r>
       <r>    7.6081    1.0000 </r>
       <r>    7.8121    1.0000 </r>
       <r>    8.0194    1.0000 </r>
       <r>    8.4053    0.9845 </r>
       <r>    8.6594    0.0000 </r>
       <r>    8.8636    0.0000 </r>
       <r>    9.1415    0.0000 </r>
       <r>    9.1820    0.0000 </r>
       <r>    9.3134    0.0000 </r>
       <r>    9.4681    0.0000 </r>
       <r>    9.5258    0.0000 </r>
       <r>    9.6583    0.0000 </r>
       <r>    9.8751    0.0000 </r>
       <r>   10.0959    0.0000 </r>
       <r>   10.1708    0.0000 </r>
       <r>   10.3358    0.0000 </r>
       <r>   10.5027    0.0000 </r>
       <r>   10.6773    0.0000 </r>
       <r>   10.9179    0.0000 </r>
      </set>
      <set comment="kpoint 7">
       <r>  -54.7299    1.0000 </r>
       <r>  -54.7240    1.0000 </r>
       <r>  -54.5867    1.0000 </r>
       <r>  -54.5784    1.0000 </r>
       <r>  -54.4830    1.0000 </r>
       <r>  -54.4771    1.0000 </r>
       <r>  -54.3957    1.0000 </r>
       <r>  -54.3880    1.0000 </r>
       <r>  -28.7652    1.0000 </r>
       <r>  -28.7540    1.0000 </r>
       <r>  -28.5637    1.0000 </r>
       <r>  -28.5533    1.0000 </r>
       <r>  -28.3348    1.0000 </r>
       <r>  -28.3159    1.0000 </r>
       <r>  -28.1662    1.0000 </r>
       <r>  -28.1569    1.0000 </r>
       <r>  -28.0790    1.0000 </r>
       <r>  -28.0558    1.0000 </r>
       <r>  -27.9734    1.0000 </r>
       <r>  -27.9628    1.0000 </r>
       <r>  -27.9085    1.0000 </r>
       <r>  -27.9051    1.0000 </r>
       <r>  -27.8883    1.0000 </r>
       <r>  -27.8831    1.0000 </r>
       <r>  -27.8656    1.0000 </r>
       <r>  -27.8633    1.0000 </r>
       <r>  -27.5855    1.0000 </r>
       <r>  -27.5384    1.0000 </r>
       <r>  -27.3260    1.0000 </r>
       <r>  -27.2917    1.0000 </r>
       <r>  -27.0385    1.0000 </r>
       <r>  -27.0353    1.0000 </r>
       <r>   -0.7795    1.0000 </r>
       <r>   -0.4452    1.0000 </r>
       <r>    0.4146    1.0000 </r>
       <r>    0.4592    1.0000 </r>
       <r>    3.4705    1.0000 </r>
       <r>    3.7640    1.0000 </r>
       <r>    3.9266    1.0000 </r>
       <r>    4.0842    1.0000 </r>
       <r>    4.3346    1.0000 </r>
       <r>    4.5300    1.0000 </r>
       <r>    4.5895    1.0000 </r>
       <r>    4.6614    1.0000 </r>
       <r>    4.9211    1.0000 </r>
       <r>    5.0039    1.0000 </r>
       <r>    5.1638    1.0000 </r>
       <r>    5.2460    1.0000 </r>
       <r>    5.4543    1.0000 </r>
       <r>    5.5666    1.0000 </r>
       <r>    5.8250    1.0000 </r>
       <r>    5.8639    1.0000 </r>
       <r>    5.9597    1.0000 </r>
       <r>    6.0335    1.0000 </r>
       <r>    6.4546    1.0000 </r>
       <r>    6.6548    1.0000 </r>
       <r>    6.7391    1.0000 </r>
       <r>    6.9518    1.0000 </r>
       <r>    7.3090    1.0000 </r>
       <r>    7.3833    1.0000 </r>
       <r>    7.8203    1.0000 </r>
       <r>    7.8983    1.0000 </r>
       <r>    8.6922    0.0000 </r>
       <r>    8.8129    0.0000 </r>
       <r>    8.8579    0.0000 </r>
       <r>    8.9329    0.0000 </r>
       <r>    9.1393    0.0000 </r>
       <r>    9.3125    0.0000 </r>
       <r>    9.4350    0.0000 </r>
       <r>    9.5610    0.0000 </r>
       <r>    9.6947    0.0000 </r>
       <r>    9.8261    0.0000 </r>
       <r>   10.2086    0.0000 </r>
       <r>   10.3404    0.0000 </r>
       <r>   10.4052    0.0000 </r>
       <r>   10.5218    0.0000 </r>
       <r>   10.7566    0.0000 </r>
       <r>   10.8580    0.0000 </r>
      </set>
      <set comment="kpoint 8">
       <r>  -54.7409    1.0000 </r>
       <r>  -54.7252    1.0000 </r>
       <r>  -54.5787    1.0000 </r>
       <r>  -54.5570    1.0000 </r>
       <r>  -54.4924    1.0000 </r>
       <r>  -54.4762    1.0000 </r>
       <r>  -54.4078    1.0000 </r>
       <r>  -54.3846    1.0000 </r>
       <r>  -28.7521    1.0000 </r>
       <r>  -28.7504    1.0000 </r>
       <r>  -28.6218    1.0000 </r>
       <r>  -28.5812    1.0000 </r>
       <r>  -28.2617    1.0000 </r>
       <r>  -28.2287    1.0000 </r>
       <r>  -28.1722    1.0000 </r>
       <r>  -28.1598    1.0000 </r>
       <r>  -28.0726    1.0000 </r>
       <r>  -28.0438    1.0000 </r>
       <r>  -27.9753    1.0000 </r>
       <r>  -27.9603    1.0000 </r>
       <r>  -27.9117    1.0000 </r>
       <r>  -27.9074    1.0000 </r>
       <r>  -27.8951    1.0000 </r>
       <r>  -27.8835    1.0000 </r>
       <r>  -27.8731    1.0000 </r>
       <r>  -27.8590    1.0000 </r>
       <r>  -27.6877    1.0000 </r>
       <r>  -27.6531    1.0000 </r>
       <r>  -27.2469    1.0000 </r>
       <r>  -27.2389    1.0000 </r>
       <r>  -27.0543    1.0000 </r>
       <r>  -27.0194    1.0000 </r>
       <r>   -0.9764    1.0000 </r>
       <r>   -0.2642    1.0000 </r>
       <r>    0.3009    1.0000 </r>
       <r>    0.5935    1.0000 </r>
       <r>    3.5455    1.0000 </r>
       <r>    3.6467    1.0000 </r>
       <r>    3.9311    1.0000 </r>
       <r>    4.1711    1.0000 </r>
       <r>    4.2269    1.0000 </r>
       <r>    4.3312    1.0000 </r>
       <r>    4.6999    1.0000 </r>
       <r>    4.8647    1.0000 </r>
       <r>    4.9761    1.0000 </r>
       <r>    5.0442    1.0000 </r>
       <r>    5.1213    1.0000 </r>
       <r>    5.3197    1.0000 </r>
       <r>    5.4394    1.0000 </r>
       <r>    5.4720    1.0000 </r>
       <r>    5.7935    1.0000 </r>
       <r>    5.9875    1.0000 </r>
       <r>    6.0550    1.0000 </r>
       <r>    6.2755    1.0000 </r>
       <r>    6.3683    1.0000 </r>
       <r>    6.5985    1.0000 </r>
       <r>    6.6797    1.0000 </r>
       <r>    7.0516    1.0000 </r>
       <r>    7.2037    1.0000 </r>
       <r>    7.4043    1.0000 </r>
       <r>    7.7096    1.0000 </r>
       <r>    8.1243    1.0000 </r>
       <r>    8.2613    1.0000 </r>
       <r>    8.5152    0.0000 </r>
       <r>    8.6367    0.0000 </r>
       <r>    8.9830    0.0000 </r>
       <r>    9.1127    0.0000 </r>
       <r>    9.2822    0.0000 </r>
       <r>    9.5693    0.0000 </r>
       <r>    9.5843    0.0000 </r>
       <r>    9.7350    0.0000 </r>
       <r>    9.8956    0.0000 </r>
       <r>   10.1255    0.0000 </r>
       <r>   10.3156    0.0000 </r>
       <r>   10.5077    0.0000 </r>
       <r>   10.6344    0.0000 </r>
       <r>   10.8677    0.0000 </r>
       <r>   11.0082    0.0000 </r>
      </set>
      <set comment="kpoint 9">
       <r>  -54.7527    1.0000 </r>
       <r>  -54.7358    1.0000 </r>
       <r>  -54.5496    1.0000 </r>
       <r>  -54.5288    1.0000 </r>
       <r>  -54.5019    1.0000 </r>
       <r>  -54.4721    1.0000 </r>
       <r>  -54.4293    1.0000 </r>
       <r>  -54.3927    1.0000 </r>
       <r>  -28.7498    1.0000 </r>
       <r>  -28.7294    1.0000 </r>
       <r>  -28.6623    1.0000 </r>
       <r>  -28.5966    1.0000 </r>
       <r>  -28.1912    1.0000 </r>
       <r>  -28.1791    1.0000 </r>
       <r>  -28.1664    1.0000 </r>
       <r>  -28.1081    1.0000 </r>
       <r>  -28.0749    1.0000 </r>
       <r>  -28.0109    1.0000 </r>
       <r>  -27.9675    1.0000 </r>
       <r>  -27.9533    1.0000 </r>
       <r>  -27.9246    1.0000 </r>
       <r>  -27.9129    1.0000 </r>
       <r>  -27.9018    1.0000 </r>
       <r>  -27.8912    1.0000 </r>
       <r>  -27.8815    1.0000 </r>
       <r>  -27.8566    1.0000 </r>
       <r>  -27.8128    1.0000 </r>
       <r>  -27.7999    1.0000 </r>
       <r>  -27.2110    1.0000 </r>
       <r>  -27.1803    1.0000 </r>
       <r>  -27.0490    1.0000 </r>
       <r>  -26.9978    1.0000 </r>
       <r>   -1.3880    1.0000 </r>
       <r>    0.1655    1.0000 </r>
       <r>    0.2529    1.0000 </r>
       <r>    0.7688    1.0000 </r>
       <r>    3.2601    1.0000 </r>
       <r>    3.4653    1.0000 </r>
       <r>    3.6305    1.0000 </r>
       <r>    4.0843    1.0000 </r>
       <r>    4.3905    1.0000 </r>
       <r>    4.4363    1.0000 </r>
       <r>    4.7923    1.0000 </r>
       <r>    4.9794    1.0000 </r>
       <r>    4.9963    1.0000 </r>
       <r>    5.1794    1.0000 </r>
       <r>    5.2591    1.0000 </r>
       <r>    5.4029    1.0000 </r>
       <r>    5.5913    1.0000 </r>
       <r>    5.6821    1.0000 </r>
       <r>    5.8432    1.0000 </r>
       <r>    6.0799    1.0000 </r>
       <r>    6.1145    1.0000 </r>
       <r>    6.2067    1.0000 </r>
       <r>    6.3080    1.0000 </r>
       <r>    6.5462    1.0000 </r>
       <r>    6.9658    1.0000 </r>
       <r>    7.2017    1.0000 </r>
       <r>    7.2792    1.0000 </r>
       <r>    7.5418    1.0000 </r>
       <r>    7.6524    1.0000 </r>
       <r>    7.7794    1.0000 </r>
       <r>    8.1103    1.0000 </r>
       <r>    8.3005    1.0000 </r>
       <r>    8.7054    0.0000 </r>
       <r>    8.8122    0.0000 </r>
       <r>    9.0626    0.0000 </r>
       <r>    9.2951    0.0000 </r>
       <r>    9.4598    0.0000 </r>
       <r>    9.4905    0.0000 </r>
       <r>    9.7416    0.0000 </r>
       <r>    9.9185    0.0000 </r>
       <r>   10.0662    0.0000 </r>
       <r>   10.1571    0.0000 </r>
       <r>   10.4873    0.0000 </r>
       <r>   10.7262    0.0000 </r>
       <r>   10.8315    0.0000 </r>
       <r>   11.3072    0.0000 </r>
      </set>
      <set comment="kpoint 10">
       <r>  -54.7586    1.0000 </r>
       <r>  -54.7448    1.0000 </r>
       <r>  -54.5147    1.0000 </r>
       <r>  -54.5147    1.0000 </r>
       <r>  -54.5093    1.0000 </r>
       <r>  -54.4627    1.0000 </r>
       <r>  -54.4486    1.0000 </r>
       <r>  -54.4096    1.0000 </r>
       <r>  -28.7539    1.0000 </r>
       <r>  -28.7265    1.0000 </r>
       <r>  -28.6495    1.0000 </r>
       <r>  -28.6002    1.0000 </r>
       <r>  -28.1943    1.0000 </r>
       <r>  -28.1892    1.0000 </r>
       <r>  -28.1125    1.0000 </r>
       <r>  -28.0792    1.0000 </r>
       <r>  -28.0458    1.0000 </r>
       <r>  -27.9832    1.0000 </r>
       <r>  -27.9499    1.0000 </r>
       <r>  -27.9434    1.0000 </r>
       <r>  -27.9388    1.0000 </r>
       <r>  -27.9320    1.0000 </r>
       <r>  -27.9081    1.0000 </r>
       <r>  -27.9076    1.0000 </r>
       <r>  -27.8885    1.0000 </r>
       <r>  -27.8869    1.0000 </r>
       <r>  -27.8842    1.0000 </r>
       <r>  -27.8499    1.0000 </r>
       <r>  -27.2014    1.0000 </r>
       <r>  -27.1756    1.0000 </r>
       <r>  -27.0192    1.0000 </r>
       <r>  -26.9878    1.0000 </r>
       <r>   -1.6309    1.0000 </r>
       <r>    0.0813    1.0000 </r>
       <r>    0.6419    1.0000 </r>
       <r>    0.9327    1.0000 </r>
       <r>    3.0381    1.0000 </r>
       <r>    3.1805    1.0000 </r>
       <r>    3.3269    1.0000 </r>
       <r>    3.9925    1.0000 </r>
       <r>    4.5578    1.0000 </r>
       <r>    4.7168    1.0000 </r>
       <r>    4.8295    1.0000 </r>
       <r>    4.9794    1.0000 </r>
       <r>    5.0328    1.0000 </r>
       <r>    5.1960    1.0000 </r>
       <r>    5.2548    1.0000 </r>
       <r>    5.5300    1.0000 </r>
       <r>    5.8577    1.0000 </r>
       <r>    5.9185    1.0000 </r>
       <r>    5.9518    1.0000 </r>
       <r>    6.0587    1.0000 </r>
       <r>    6.0994    1.0000 </r>
       <r>    6.1402    1.0000 </r>
       <r>    6.2469    1.0000 </r>
       <r>    6.5167    1.0000 </r>
       <r>    7.2397    1.0000 </r>
       <r>    7.3527    1.0000 </r>
       <r>    7.4559    1.0000 </r>
       <r>    7.5794    1.0000 </r>
       <r>    7.6981    1.0000 </r>
       <r>    7.8552    1.0000 </r>
       <r>    7.9225    1.0000 </r>
       <r>    8.2358    1.0000 </r>
       <r>    8.6762    0.0000 </r>
       <r>    8.8810    0.0000 </r>
       <r>    8.9377    0.0000 </r>
       <r>    9.0144    0.0000 </r>
       <r>    9.2694    0.0000 </r>
       <r>    9.3780    0.0000 </r>
       <r>    9.7650    0.0000 </r>
       <r>    9.9057    0.0000 </r>
       <r>    9.9633    0.0000 </r>
       <r>   10.2963    0.0000 </r>
       <r>   10.5303    0.0000 </r>
       <r>   10.7053    0.0000 </r>
       <r>   10.8695    0.0000 </r>
       <r>   11.2368    0.0000 </r>
      </set>
      <set comment="kpoint 11">
       <r>  -54.7300    1.0000 </r>
       <r>  -54.7210    1.0000 </r>
       <r>  -54.5907    1.0000 </r>
       <r>  -54.5784    1.0000 </r>
       <r>  -54.4851    1.0000 </r>
       <r>  -54.4769    1.0000 </r>
       <r>  -54.3957    1.0000 </r>
       <r>  -54.3849    1.0000 </r>
       <r>  -28.7771    1.0000 </r>
       <r>  -28.7539    1.0000 </r>
       <r>  -28.5627    1.0000 </r>
       <r>  -28.5191    1.0000 </r>
       <r>  -28.3644    1.0000 </r>
       <r>  -28.3179    1.0000 </r>
       <r>  -28.1673    1.0000 </r>
       <r>  -28.1524    1.0000 </r>
       <r>  -28.0916    1.0000 </r>
       <r>  -28.0401    1.0000 </r>
       <r>  -27.9855    1.0000 </r>
       <r>  -27.9629    1.0000 </r>
       <r>  -27.9062    1.0000 </r>
       <r>  -27.9034    1.0000 </r>
       <r>  -27.8853    1.0000 </r>
       <r>  -27.8770    1.0000 </r>
       <r>  -27.8764    1.0000 </r>
       <r>  -27.8639    1.0000 </r>
       <r>  -27.5857    1.0000 </r>
       <r>  -27.4301    1.0000 </r>
       <r>  -27.4281    1.0000 </r>
       <r>  -27.2917    1.0000 </r>
       <r>  -27.0353    1.0000 </r>
       <r>  -27.0325    1.0000 </r>
       <r>   -0.9205    1.0000 </r>
       <r>   -0.0115    1.0000 </r>
       <r>    0.2817    1.0000 </r>
       <r>    0.3336    1.0000 </r>
       <r>    3.4211    1.0000 </r>
       <r>    3.6442    1.0000 </r>
       <r>    3.8368    1.0000 </r>
       <r>    4.1206    1.0000 </r>
       <r>    4.3202    1.0000 </r>
       <r>    4.4290    1.0000 </r>
       <r>    4.6886    1.0000 </r>
       <r>    4.8657    1.0000 </r>
       <r>    4.8766    1.0000 </r>
       <r>    5.0499    1.0000 </r>
       <r>    5.1921    1.0000 </r>
       <r>    5.2626    1.0000 </r>
       <r>    5.4851    1.0000 </r>
       <r>    5.5075    1.0000 </r>
       <r>    5.8013    1.0000 </r>
       <r>    5.8372    1.0000 </r>
       <r>    5.8631    1.0000 </r>
       <r>    6.1828    1.0000 </r>
       <r>    6.2848    1.0000 </r>
       <r>    6.4856    1.0000 </r>
       <r>    6.9037    1.0000 </r>
       <r>    6.9749    1.0000 </r>
       <r>    7.1120    1.0000 </r>
       <r>    7.5342    1.0000 </r>
       <r>    7.7124    1.0000 </r>
       <r>    7.8680    1.0000 </r>
       <r>    8.7449    0.0000 </r>
       <r>    8.9308    0.0000 </r>
       <r>    8.9704    0.0000 </r>
       <r>    9.0826    0.0000 </r>
       <r>    9.3196    0.0000 </r>
       <r>    9.4594    0.0000 </r>
       <r>    9.4857    0.0000 </r>
       <r>    9.6724    0.0000 </r>
       <r>    9.6832    0.0000 </r>
       <r>    9.9119    0.0000 </r>
       <r>   10.1107    0.0000 </r>
       <r>   10.2802    0.0000 </r>
       <r>   10.3784    0.0000 </r>
       <r>   10.5443    0.0000 </r>
       <r>   10.7032    0.0000 </r>
       <r>   11.0210    0.0000 </r>
      </set>
      <set comment="kpoint 12">
       <r>  -54.7404    1.0000 </r>
       <r>  -54.7100    1.0000 </r>
       <r>  -54.6013    1.0000 </r>
       <r>  -54.5571    1.0000 </r>
       <r>  -54.4985    1.0000 </r>
       <r>  -54.4762    1.0000 </r>
       <r>  -54.4078    1.0000 </r>
       <r>  -54.3715    1.0000 </r>
       <r>  -28.7786    1.0000 </r>
       <r>  -28.7499    1.0000 </r>
       <r>  -28.5988    1.0000 </r>
       <r>  -28.5808    1.0000 </r>
       <r>  -28.2645    1.0000 </r>
       <r>  -28.2406    1.0000 </r>
       <r>  -28.1737    1.0000 </r>
       <r>  -28.1441    1.0000 </r>
       <r>  -28.0790    1.0000 </r>
       <r>  -28.0422    1.0000 </r>
       <r>  -27.9952    1.0000 </r>
       <r>  -27.9645    1.0000 </r>
       <r>  -27.9110    1.0000 </r>
       <r>  -27.9078    1.0000 </r>
       <r>  -27.8866    1.0000 </r>
       <r>  -27.8787    1.0000 </r>
       <r>  -27.8717    1.0000 </r>
       <r>  -27.8698    1.0000 </r>
       <r>  -27.6880    1.0000 </r>
       <r>  -27.5558    1.0000 </r>
       <r>  -27.3070    1.0000 </r>
       <r>  -27.2441    1.0000 </r>
       <r>  -27.0589    1.0000 </r>
       <r>  -27.0195    1.0000 </r>
       <r>   -0.5368    1.0000 </r>
       <r>   -0.4169    1.0000 </r>
       <r>    0.1734    1.0000 </r>
       <r>    0.4100    1.0000 </r>
       <r>    3.5610    1.0000 </r>
       <r>    3.7206    1.0000 </r>
       <r>    3.9150    1.0000 </r>
       <r>    4.1816    1.0000 </r>
       <r>    4.3322    1.0000 </r>
       <r>    4.4547    1.0000 </r>
       <r>    4.5415    1.0000 </r>
       <r>    4.7252    1.0000 </r>
       <r>    4.9156    1.0000 </r>
       <r>    5.0784    1.0000 </r>
       <r>    5.1540    1.0000 </r>
       <r>    5.2560    1.0000 </r>
       <r>    5.3082    1.0000 </r>
       <r>    5.5713    1.0000 </r>
       <r>    5.7614    1.0000 </r>
       <r>    5.8847    1.0000 </r>
       <r>    5.9765    1.0000 </r>
       <r>    6.1132    1.0000 </r>
       <r>    6.3636    1.0000 </r>
       <r>    6.4758    1.0000 </r>
       <r>    6.6716    1.0000 </r>
       <r>    7.0103    1.0000 </r>
       <r>    7.0911    1.0000 </r>
       <r>    7.4072    1.0000 </r>
       <r>    7.7205    1.0000 </r>
       <r>    7.8619    1.0000 </r>
       <r>    8.4661    0.0159 </r>
       <r>    8.7777    0.0000 </r>
       <r>    8.9389    0.0000 </r>
       <r>    9.1523    0.0000 </r>
       <r>    9.1736    0.0000 </r>
       <r>    9.4135    0.0000 </r>
       <r>    9.5378    0.0000 </r>
       <r>    9.7100    0.0000 </r>
       <r>    9.8281    0.0000 </r>
       <r>   10.0050    0.0000 </r>
       <r>   10.1235    0.0000 </r>
       <r>   10.4221    0.0000 </r>
       <r>   10.4752    0.0000 </r>
       <r>   10.5844    0.0000 </r>
       <r>   10.8943    0.0000 </r>
       <r>   11.1698    0.0000 </r>
      </set>
      <set comment="kpoint 13">
       <r>  -54.7515    1.0000 </r>
       <r>  -54.7129    1.0000 </r>
       <r>  -54.5903    1.0000 </r>
       <r>  -54.5289    1.0000 </r>
       <r>  -54.5091    1.0000 </r>
       <r>  -54.4721    1.0000 </r>
       <r>  -54.4293    1.0000 </r>
       <r>  -54.3688    1.0000 </r>
       <r>  -28.7638    1.0000 </r>
       <r>  -28.7463    1.0000 </r>
       <r>  -28.6572    1.0000 </r>
       <r>  -28.5966    1.0000 </r>
       <r>  -28.1846    1.0000 </r>
       <r>  -28.1691    1.0000 </r>
       <r>  -28.1524    1.0000 </r>
       <r>  -28.1191    1.0000 </r>
       <r>  -28.0639    1.0000 </r>
       <r>  -28.0405    1.0000 </r>
       <r>  -27.9861    1.0000 </r>
       <r>  -27.9600    1.0000 </r>
       <r>  -27.9268    1.0000 </r>
       <r>  -27.9183    1.0000 </r>
       <r>  -27.8952    1.0000 </r>
       <r>  -27.8925    1.0000 </r>
       <r>  -27.8692    1.0000 </r>
       <r>  -27.8636    1.0000 </r>
       <r>  -27.8130    1.0000 </r>
       <r>  -27.6946    1.0000 </r>
       <r>  -27.2103    1.0000 </r>
       <r>  -27.1992    1.0000 </r>
       <r>  -27.0904    1.0000 </r>
       <r>  -26.9979    1.0000 </r>
       <r>   -0.8662    1.0000 </r>
       <r>   -0.1399    1.0000 </r>
       <r>    0.1590    1.0000 </r>
       <r>    0.4923    1.0000 </r>
       <r>    3.5550    1.0000 </r>
       <r>    3.7187    1.0000 </r>
       <r>    3.9264    1.0000 </r>
       <r>    4.2068    1.0000 </r>
       <r>    4.2710    1.0000 </r>
       <r>    4.3017    1.0000 </r>
       <r>    4.6409    1.0000 </r>
       <r>    4.7636    1.0000 </r>
       <r>    4.9506    1.0000 </r>
       <r>    4.9712    1.0000 </r>
       <r>    5.2164    1.0000 </r>
       <r>    5.2488    1.0000 </r>
       <r>    5.3619    1.0000 </r>
       <r>    5.6901    1.0000 </r>
       <r>    5.8207    1.0000 </r>
       <r>    6.0042    1.0000 </r>
       <r>    6.0983    1.0000 </r>
       <r>    6.1841    1.0000 </r>
       <r>    6.3900    1.0000 </r>
       <r>    6.4497    1.0000 </r>
       <r>    6.6022    1.0000 </r>
       <r>    7.0911    1.0000 </r>
       <r>    7.1679    1.0000 </r>
       <r>    7.3050    1.0000 </r>
       <r>    7.7566    1.0000 </r>
       <r>    8.0886    1.0000 </r>
       <r>    8.1349    1.0000 </r>
       <r>    8.3089    1.0000 </r>
       <r>    8.4839    0.0003 </r>
       <r>    9.1854    0.0000 </r>
       <r>    9.1999    0.0000 </r>
       <r>    9.3485    0.0000 </r>
       <r>    9.4941    0.0000 </r>
       <r>    9.7492    0.0000 </r>
       <r>    9.8486    0.0000 </r>
       <r>   10.0199    0.0000 </r>
       <r>   10.1213    0.0000 </r>
       <r>   10.2681    0.0000 </r>
       <r>   10.5317    0.0000 </r>
       <r>   10.7411    0.0000 </r>
       <r>   10.9355    0.0000 </r>
       <r>   11.2050    0.0000 </r>
      </set>
      <set comment="kpoint 14">
       <r>  -54.7562    1.0000 </r>
       <r>  -54.7256    1.0000 </r>
       <r>  -54.5637    1.0000 </r>
       <r>  -54.5148    1.0000 </r>
       <r>  -54.5147    1.0000 </r>
       <r>  -54.4627    1.0000 </r>
       <r>  -54.4485    1.0000 </r>
       <r>  -54.3768    1.0000 </r>
       <r>  -28.7470    1.0000 </r>
       <r>  -28.7305    1.0000 </r>
       <r>  -28.6936    1.0000 </r>
       <r>  -28.6011    1.0000 </r>
       <r>  -28.1886    1.0000 </r>
       <r>  -28.1678    1.0000 </r>
       <r>  -28.1121    1.0000 </r>
[...]
       <r>    9.1819    0.0000 </r>
       <r>    9.3134    0.0000 </r>
       <r>    9.4681    0.0000 </r>
       <r>    9.5258    0.0000 </r>
       <r>    9.6583    0.0000 </r>
       <r>    9.8762    0.0000 </r>
       <r>   10.0963    0.0000 </r>
       <r>   10.1715    0.0000 </r>
       <r>   10.3485    0.0000 </r>
       <r>   10.4905    0.0000 </r>
       <r>   10.6898    0.0000 </r>
       <r>   10.9096    0.0000 </r>
      </set>
      <set comment="kpoint 100">
       <r>  -54.7464    1.0000 </r>
       <r>  -54.7252    1.0000 </r>
       <r>  -54.5788    1.0000 </r>
       <r>  -54.5495    1.0000 </r>
       <r>  -54.4923    1.0000 </r>
       <r>  -54.4587    1.0000 </r>
       <r>  -54.4274    1.0000 </r>
       <r>  -54.3846    1.0000 </r>
       <r>  -28.7592    1.0000 </r>
       <r>  -28.7518    1.0000 </r>
       <r>  -28.6217    1.0000 </r>
       <r>  -28.5322    1.0000 </r>
       <r>  -28.3051    1.0000 </r>
       <r>  -28.2300    1.0000 </r>
       <r>  -28.1729    1.0000 </r>
       <r>  -28.1652    1.0000 </r>
       <r>  -28.0787    1.0000 </r>
       <r>  -28.0307    1.0000 </r>
       <r>  -27.9699    1.0000 </r>
       <r>  -27.9583    1.0000 </r>
       <r>  -27.9170    1.0000 </r>
       <r>  -27.9055    1.0000 </r>
       <r>  -27.8990    1.0000 </r>
       <r>  -27.8883    1.0000 </r>
       <r>  -27.8775    1.0000 </r>
       <r>  -27.8592    1.0000 </r>
       <r>  -27.6785    1.0000 </r>
       <r>  -27.6526    1.0000 </r>
       <r>  -27.2629    1.0000 </r>
       <r>  -27.2407    1.0000 </r>
       <r>  -27.0542    1.0000 </r>
       <r>  -26.9990    1.0000 </r>
       <r>   -1.1217    1.0000 </r>
       <r>    0.1069    1.0000 </r>
       <r>    0.2090    1.0000 </r>
       <r>    0.4920    1.0000 </r>
       <r>    3.4674    1.0000 </r>
       <r>    3.6813    1.0000 </r>
       <r>    3.8066    1.0000 </r>
       <r>    4.1498    1.0000 </r>
       <r>    4.2293    1.0000 </r>
       <r>    4.2351    1.0000 </r>
       <r>    4.8676    1.0000 </r>
       <r>    4.9170    1.0000 </r>
       <r>    4.9981    1.0000 </r>
       <r>    5.1656    1.0000 </r>
       <r>    5.2034    1.0000 </r>
       <r>    5.2332    1.0000 </r>
       <r>    5.3797    1.0000 </r>
       <r>    5.5609    1.0000 </r>
       <r>    5.7926    1.0000 </r>
       <r>    6.0331    1.0000 </r>
       <r>    6.0557    1.0000 </r>
       <r>    6.1247    1.0000 </r>
       <r>    6.3445    1.0000 </r>
       <r>    6.4828    1.0000 </r>
       <r>    6.8770    1.0000 </r>
       <r>    7.0636    1.0000 </r>
       <r>    7.1438    1.0000 </r>
       <r>    7.3742    1.0000 </r>
       <r>    7.5998    1.0000 </r>
       <r>    8.1271    1.0000 </r>
       <r>    8.2785    1.0000 </r>
       <r>    8.4479    0.1957 </r>
       <r>    8.8779    0.0000 </r>
       <r>    9.0323    0.0000 </r>
       <r>    9.1888    0.0000 </r>
       <r>    9.4057    0.0000 </r>
       <r>    9.4732    0.0000 </r>
       <r>    9.4994    0.0000 </r>
       <r>    9.7879    0.0000 </r>
       <r>    9.9866    0.0000 </r>
       <r>   10.1275    0.0000 </r>
       <r>   10.3163    0.0000 </r>
       <r>   10.4098    0.0000 </r>
       <r>   10.6838    0.0000 </r>
       <r>   10.9383    0.0000 </r>
       <r>   11.2715    0.0000 </r>
      </set>
     </set>
    </set>
   </array>
  </eigenvalues>
  <separator name="orbital magnetization" >
   <v name="MAGDIPOLOUT">      0.00000000      0.00000000      0.00000000</v>
  </separator>
  <dos>
   <i name="efermi">      8.43575274 </i>
   <total>
    <array>
     <dimension dim="1">gridpoints</dimension>
     <dimension dim="2">spin</dimension>
     <field>energy</field>
     <field>total</field>
     <field>integrated</field>
     <set>
      <set comment="spin 1">
       <r>   -58.0726     0.0000     0.0000 </r>
       <r>   -57.8298     0.0000     0.0000 </r>
       <r>   -57.5870     0.0000     0.0000 </r>
       <r>   -57.3442     0.0000     0.0000 </r>
       <r>   -57.1014     0.0000     0.0000 </r>
       <r>   -56.8587     0.0000     0.0000 </r>
       <r>   -56.6159     0.0000     0.0000 </r>
       <r>   -56.3731     0.0000     0.0000 </r>
       <r>   -56.1303     0.0000     0.0000 </r>
       <r>   -55.8875     0.0000     0.0000 </r>
       <r>   -55.6447     0.0000     0.0000 </r>
       <r>   -55.4019     0.0000     0.0000 </r>
       <r>   -55.1591     0.0000     0.0000 </r>
       <r>   -54.9164     0.0000     0.0000 </r>
       <r>   -54.6736    16.4018     3.9821 </r>
       <r>   -54.4308    31.3020    12.3228 </r>
       <r>   -54.1880     0.0000    16.0000 </r>
       <r>   -53.9452     0.0000    16.0000 </r>
       <r>   -53.7024     0.0000    16.0000 </r>
       <r>   -53.4596     0.0000    16.0000 </r>
       <r>   -53.2169     0.0000    16.0000 </r>
       <r>   -52.9741     0.0000    16.0000 </r>
       <r>   -52.7313     0.0000    16.0000 </r>
       <r>   -52.4885     0.0000    16.0000 </r>
       <r>   -52.2457     0.0000    16.0000 </r>
       <r>   -52.0029     0.0000    16.0000 </r>
       <r>   -51.7601     0.0000    16.0000 </r>
       <r>   -51.5173     0.0000    16.0000 </r>
       <r>   -51.2746     0.0000    16.0000 </r>
       <r>   -51.0318     0.0000    16.0000 </r>
       <r>   -50.7890     0.0000    16.0000 </r>
       <r>   -50.5462     0.0000    16.0000 </r>
       <r>   -50.3034     0.0000    16.0000 </r>
       <r>   -50.0606     0.0000    16.0000 </r>
       <r>   -49.8178     0.0000    16.0000 </r>
       <r>   -49.5750     0.0000    16.0000 </r>
       <r>   -49.3323     0.0000    16.0000 </r>
       <r>   -49.0895     0.0000    16.0000 </r>
       <r>   -48.8467     0.0000    16.0000 </r>
       <r>   -48.6039     0.0000    16.0000 </r>
       <r>   -48.3611     0.0000    16.0000 </r>
       <r>   -48.1183     0.0000    16.0000 </r>
       <r>   -47.8755     0.0000    16.0000 </r>
       <r>   -47.6327     0.0000    16.0000 </r>
       <r>   -47.3900     0.0000    16.0000 </r>
       <r>   -47.1472     0.0000    16.0000 </r>
       <r>   -46.9044     0.0000    16.0000 </r>
       <r>   -46.6616     0.0000    16.0000 </r>
       <r>   -46.4188     0.0000    16.0000 </r>
       <r>   -46.1760     0.0000    16.0000 </r>
       <r>   -45.9332     0.0000    16.0000 </r>
       <r>   -45.6904     0.0000    16.0000 </r>
       <r>   -45.4477     0.0000    16.0000 </r>
       <r>   -45.2049     0.0000    16.0000 </r>
       <r>   -44.9621     0.0000    16.0000 </r>
       <r>   -44.7193     0.0000    16.0000 </r>
       <r>   -44.4765     0.0000    16.0000 </r>
       <r>   -44.2337     0.0000    16.0000 </r>
       <r>   -43.9909     0.0000    16.0000 </r>
       <r>   -43.7481     0.0000    16.0000 </r>
       <r>   -43.5054     0.0000    16.0000 </r>
       <r>   -43.2626     0.0000    16.0000 </r>
       <r>   -43.0198     0.0000    16.0000 </r>
       <r>   -42.7770     0.0000    16.0000 </r>
       <r>   -42.5342     0.0000    16.0000 </r>
       <r>   -42.2914     0.0000    16.0000 </r>
       <r>   -42.0486     0.0000    16.0000 </r>
       <r>   -41.8058     0.0000    16.0000 </r>
       <r>   -41.5631     0.0000    16.0000 </r>
       <r>   -41.3203     0.0000    16.0000 </r>
       <r>   -41.0775     0.0000    16.0000 </r>
       <r>   -40.8347     0.0000    16.0000 </r>
       <r>   -40.5919     0.0000    16.0000 </r>
       <r>   -40.3491     0.0000    16.0000 </r>
       <r>   -40.1063     0.0000    16.0000 </r>
       <r>   -39.8635     0.0000    16.0000 </r>
       <r>   -39.6208     0.0000    16.0000 </r>
       <r>   -39.3780     0.0000    16.0000 </r>
       <r>   -39.1352     0.0000    16.0000 </r>
       <r>   -38.8924     0.0000    16.0000 </r>
       <r>   -38.6496     0.0000    16.0000 </r>
       <r>   -38.4068     0.0000    16.0000 </r>
       <r>   -38.1640     0.0000    16.0000 </r>
       <r>   -37.9212     0.0000    16.0000 </r>
       <r>   -37.6785     0.0000    16.0000 </r>
       <r>   -37.4357     0.0000    16.0000 </r>
       <r>   -37.1929     0.0000    16.0000 </r>
       <r>   -36.9501     0.0000    16.0000 </r>
       <r>   -36.7073     0.0000    16.0000 </r>
       <r>   -36.4645     0.0000    16.0000 </r>
       <r>   -36.2217     0.0000    16.0000 </r>
       <r>   -35.9789     0.0000    16.0000 </r>
       <r>   -35.7362     0.0000    16.0000 </r>
       <r>   -35.4934     0.0000    16.0000 </r>
       <r>   -35.2506     0.0000    16.0000 </r>
       <r>   -35.0078     0.0000    16.0000 </r>
       <r>   -34.7650     0.0000    16.0000 </r>
       <r>   -34.5222     0.0000    16.0000 </r>
       <r>   -34.2794     0.0000    16.0000 </r>
       <r>   -34.0366     0.0000    16.0000 </r>
       <r>   -33.7939     0.0000    16.0000 </r>
       <r>   -33.5511     0.0000    16.0000 </r>
       <r>   -33.3083     0.0000    16.0000 </r>
       <r>   -33.0655     0.0000    16.0000 </r>
       <r>   -32.8227     0.0000    16.0000 </r>
       <r>   -32.5799     0.0000    16.0000 </r>
       <r>   -32.3371     0.0000    16.0000 </r>
       <r>   -32.0944     0.0000    16.0000 </r>
       <r>   -31.8516     0.0000    16.0000 </r>
       <r>   -31.6088     0.0000    16.0000 </r>
       <r>   -31.3660     0.0000    16.0000 </r>
       <r>   -31.1232     0.0000    16.0000 </r>
       <r>   -30.8804     0.0000    16.0000 </r>
       <r>   -30.6376     0.0000    16.0000 </r>
       <r>   -30.3948     0.0000    16.0000 </r>
       <r>   -30.1521     0.0000    16.0000 </r>
       <r>   -29.9093     0.0000    16.0000 </r>
       <r>   -29.6665     0.0000    16.0000 </r>
       <r>   -29.4237     0.0000    16.0000 </r>
       <r>   -29.1809     0.0000    16.0000 </r>
       <r>   -28.9381     0.0000    16.0000 </r>
       <r>   -28.6953    16.7853    20.0752 </r>
       <r>   -28.4525     9.7462    23.9989 </r>
       <r>   -28.2098     7.8249    26.2846 </r>
       <r>   -27.9670    32.1719    38.6564 </r>
       <r>   -27.7242    26.6844    53.0734 </r>
       <r>   -27.4814     6.0523    55.8368 </r>
       <r>   -27.2386     8.2518    58.1667 </r>
       <r>   -26.9958    15.8320    63.6805 </r>
       <r>   -26.7530     0.0000    64.0000 </r>
       <r>   -26.5102     0.0000    64.0000 </r>
       <r>   -26.2675     0.0000    64.0000 </r>
       <r>   -26.0247     0.0000    64.0000 </r>
       <r>   -25.7819     0.0000    64.0000 </r>
       <r>   -25.5391     0.0000    64.0000 </r>
       <r>   -25.2963     0.0000    64.0000 </r>
       <r>   -25.0535     0.0000    64.0000 </r>
       <r>   -24.8107     0.0000    64.0000 </r>
       <r>   -24.5679     0.0000    64.0000 </r>
       <r>   -24.3252     0.0000    64.0000 </r>
       <r>   -24.0824     0.0000    64.0000 </r>
       <r>   -23.8396     0.0000    64.0000 </r>
       <r>   -23.5968     0.0000    64.0000 </r>
       <r>   -23.3540     0.0000    64.0000 </r>
       <r>   -23.1112     0.0000    64.0000 </r>
       <r>   -22.8684     0.0000    64.0000 </r>
       <r>   -22.6256     0.0000    64.0000 </r>
       <r>   -22.3829     0.0000    64.0000 </r>
       <r>   -22.1401     0.0000    64.0000 </r>
       <r>   -21.8973     0.0000    64.0000 </r>
       <r>   -21.6545     0.0000    64.0000 </r>
       <r>   -21.4117     0.0000    64.0000 </r>
       <r>   -21.1689     0.0000    64.0000 </r>
       <r>   -20.9261     0.0000    64.0000 </r>
       <r>   -20.6833     0.0000    64.0000 </r>
       <r>   -20.4406     0.0000    64.0000 </r>
       <r>   -20.1978     0.0000    64.0000 </r>
       <r>   -19.9550     0.0000    64.0000 </r>
       <r>   -19.7122     0.0000    64.0000 </r>
       <r>   -19.4694     0.0000    64.0000 </r>
       <r>   -19.2266     0.0000    64.0000 </r>
       <r>   -18.9838     0.0000    64.0000 </r>
       <r>   -18.7410     0.0000    64.0000 </r>
       <r>   -18.4983     0.0000    64.0000 </r>
       <r>   -18.2555     0.0000    64.0000 </r>
       <r>   -18.0127     0.0000    64.0000 </r>
       <r>   -17.7699     0.0000    64.0000 </r>
       <r>   -17.5271     0.0000    64.0000 </r>
       <r>   -17.2843     0.0000    64.0000 </r>
       <r>   -17.0415     0.0000    64.0000 </r>
       <r>   -16.7987     0.0000    64.0000 </r>
       <r>   -16.5560     0.0000    64.0000 </r>
       <r>   -16.3132     0.0000    64.0000 </r>
       <r>   -16.0704     0.0000    64.0000 </r>
       <r>   -15.8276     0.0000    64.0000 </r>
       <r>   -15.5848     0.0000    64.0000 </r>
       <r>   -15.3420     0.0000    64.0000 </r>
       <r>   -15.0992     0.0000    64.0000 </r>
       <r>   -14.8564     0.0000    64.0000 </r>
       <r>   -14.6137     0.0000    64.0000 </r>
       <r>   -14.3709     0.0000    64.0000 </r>
       <r>   -14.1281     0.0000    64.0000 </r>
       <r>   -13.8853     0.0000    64.0000 </r>
       <r>   -13.6425     0.0000    64.0000 </r>
       <r>   -13.3997     0.0000    64.0000 </r>
       <r>   -13.1569     0.0000    64.0000 </r>
       <r>   -12.9141     0.0000    64.0000 </r>
       <r>   -12.6714     0.0000    64.0000 </r>
       <r>   -12.4286     0.0000    64.0000 </r>
       <r>   -12.1858     0.0000    64.0000 </r>
       <r>   -11.9430     0.0000    64.0000 </r>
       <r>   -11.7002     0.0000    64.0000 </r>
       <r>   -11.4574     0.0000    64.0000 </r>
       <r>   -11.2146     0.0000    64.0000 </r>
       <r>   -10.9718     0.0000    64.0000 </r>
       <r>   -10.7291     0.0000    64.0000 </r>
       <r>   -10.4863     0.0000    64.0000 </r>
       <r>   -10.2435     0.0000    64.0000 </r>
       <r>   -10.0007     0.0000    64.0000 </r>
       <r>    -9.7579     0.0000    64.0000 </r>
       <r>    -9.5151     0.0000    64.0000 </r>
       <r>    -9.2723     0.0000    64.0000 </r>
       <r>    -9.0296     0.0000    64.0000 </r>
       <r>    -8.7868     0.0000    64.0000 </r>
       <r>    -8.5440     0.0000    64.0000 </r>
       <r>    -8.3012     0.0000    64.0000 </r>
       <r>    -8.0584     0.0000    64.0000 </r>
       <r>    -7.8156     0.0000    64.0000 </r>
       <r>    -7.5728     0.0000    64.0000 </r>
       <r>    -7.3300     0.0000    64.0000 </r>
       <r>    -7.0873     0.0000    64.0000 </r>
       <r>    -6.8445     0.0000    64.0000 </r>
       <r>    -6.6017     0.0000    64.0000 </r>
       <r>    -6.3589     0.0000    64.0000 </r>
       <r>    -6.1161     0.0000    64.0000 </r>
       <r>    -5.8733     0.0000    64.0000 </r>
       <r>    -5.6305     0.0000    64.0000 </r>
       <r>    -5.3877     0.0000    64.0000 </r>
       <r>    -5.1450     0.0000    64.0000 </r>
       <r>    -4.9022     0.0000    64.0000 </r>
       <r>    -4.6594     0.0000    64.0000 </r>
       <r>    -4.4166     0.0000    64.0000 </r>
       <r>    -4.1738     0.0000    64.0000 </r>
       <r>    -3.9310     0.0000    64.0000 </r>
       <r>    -3.6882     0.0000    64.0000 </r>
       <r>    -3.4454     0.0000    64.0000 </r>
       <r>    -3.2027     0.0000    64.0000 </r>
       <r>    -2.9599     0.0000    64.0000 </r>
       <r>    -2.7171     0.0000    64.0000 </r>
       <r>    -2.4743     0.0000    64.0000 </r>
       <r>    -2.2315     0.0000    64.0000 </r>
       <r>    -1.9887     0.0000    64.0000 </r>
       <r>    -1.7459     0.0239    64.0058 </r>
       <r>    -1.5031     0.4032    64.1620 </r>
       <r>    -1.2604     0.9685    64.4509 </r>
       <r>    -1.0176     1.1279    64.8511 </r>
       <r>    -0.7748     1.0187    65.3610 </r>
       <r>    -0.5320     1.6798    65.9880 </r>
       <r>    -0.2892     1.5867    66.5018 </r>
       <r>    -0.0464     1.6333    67.1662 </r>
       <r>     0.1964     3.8755    68.2762 </r>
       <r>     0.4392     5.0154    70.0806 </r>
       <r>     0.6819     2.4321    71.3893 </r>
       <r>     0.9247     1.2612    71.9097 </r>
       <r>     1.1675     0.2640    72.0000 </r>
       <r>     1.4103     0.0000    72.0000 </r>
       <r>     1.6531     0.0000    72.0000 </r>
       <r>     1.8959     0.0000    72.0000 </r>
       <r>     2.1387     0.0000    72.0000 </r>
       <r>     2.3815     0.0000    72.0000 </r>
       <r>     2.6242     0.1482    72.0360 </r>
       <r>     2.8670     0.5274    72.2447 </r>
       <r>     3.1098     1.5097    72.8680 </r>
       <r>     3.3526     1.3662    73.3696 </r>
       <r>     3.5954     5.3274    74.8270 </r>
       <r>     3.8382     5.6806    76.8719 </r>
       <r>     4.0810     5.8250    78.8078 </r>
       <r>     4.3238     7.7719    81.4788 </r>
       <r>     4.5665     7.0882    84.2982 </r>
       <r>     4.8093     6.4515    86.5984 </r>
       <r>     5.0521    12.4097    90.6864 </r>
       <r>     5.2949    12.4967    94.9174 </r>
       <r>     5.5377     7.9660    98.0798 </r>
       <r>     5.7805     6.4288   100.3946 </r>
       <r>     6.0233    11.0529   104.2695 </r>
       <r>     6.2661     8.6400   108.0685 </r>
       <r>     6.5088     8.1161   110.8101 </r>
       <r>     6.7516     5.6855   112.9314 </r>
       <r>     6.9944     3.8774   114.2533 </r>
       <r>     7.2372     5.4868   116.3992 </r>
       <r>     7.4800     6.0534   118.5950 </r>
       <r>     7.7228     5.0271   120.2642 </r>
       <r>     7.9656     6.4620   122.4319 </r>
       <r>     8.2084     5.4701   124.4534 </r>
       <r>     8.4511     5.6086   126.1722 </r>
       <r>     8.6939     5.2085   127.8710 </r>
       <r>     8.9367     6.8133   130.2781 </r>
       <r>     9.1795     6.8546   132.7837 </r>
       <r>     9.4223     9.6709   136.0681 </r>
       <r>     9.6651     8.4523   139.4282 </r>
       <r>     9.9079     8.9643   142.7712 </r>
       <r>    10.1507     9.3863   146.1098 </r>
       <r>    10.3934     7.0701   148.5562 </r>
       <r>    10.6362     9.1000   151.7895 </r>
       <r>    10.8790     6.4545   154.2435 </r>
       <r>    11.1218     2.5952   155.4930 </r>
       <r>    11.3646     0.9622   155.9596 </r>
       <r>    11.6074     0.0480   156.0000 </r>
       <r>    11.8502     0.0000   156.0000 </r>
       <r>    12.0930     0.0000   156.0000 </r>
       <r>    12.3357     0.0000   156.0000 </r>
       <r>    12.5785     0.0000   156.0000 </r>
       <r>    12.8213     0.0000   156.0000 </r>
       <r>    13.0641     0.0000   156.0000 </r>
       <r>    13.3069     0.0000   156.0000 </r>
       <r>    13.5497     0.0000   156.0000 </r>
       <r>    13.7925     0.0000   156.0000 </r>
       <r>    14.0352     0.0000   156.0000 </r>
       <r>    14.2780     0.0000   156.0000 </r>
       <r>    14.5208     0.0000   156.0000 </r>
       <r>    14.7636     0.0000   156.0000 </r>
      </set>
     </set>
    </array>
   </total>
  </dos>
 </calculation>
 <structure name="finalpos" >
  <crystal>
   <varray name="basis" >
    <v>       5.89988881       0.00000000      -3.00977617 </v>
    <v>      -2.21323272       5.46902998      -3.00977617 </v>
    <v>       0.00000000       0.00000000       6.62325000 </v>
   </varray>
   <i name="volume">    213.71021401 </i>
   <varray name="rec_basis" >
    <v>       0.16949472       0.06859192       0.00000000 </v>
    <v>       0.00000000       0.18284778       0.00000000 </v>
    <v>       0.07702279       0.11426071       0.15098328 </v>
   </varray>
  </crystal>
  <varray name="positions" >
   <v>       0.25000000       0.75000000       0.50000000 </v>
   <v>       0.75000000       0.25000000       0.50000000 </v>
   <v>       0.37704000       0.87704000       0.25408000 </v>
   <v>       0.00000000       0.00000000       0.50000000 </v>
   <v>       0.62296000       0.12296000       0.74592000 </v>
   <v>       0.87704000       0.62296000       0.50000000 </v>
   <v>       0.00000000       0.50000000       0.00000000 </v>
   <v>       0.12296000       0.37704000       0.50000000 </v>
   <v>       0.50000000       0.50000000       0.50000000 </v>
   <v>       0.50000000       0.00000000       0.00000000 </v>
   <v>       0.25000000       0.25000000       0.00000000 </v>
   <v>       0.75000000       0.75000000       0.00000000 </v>
  </varray>
 </structure>
</modeling>
