<?xml version="1.0" encoding="ISO-8859-1"?>
<modeling>
 <generator>
  <i name="program" type="string">vasp </i>
  <i name="version" type="string">6.2.0  </i>
  <i name="subversion" type="string">18Jan21 (build Jan 05 2022 15:41:44) complex                          parallel </i>
  <i name="platform" type="string">LinuxIFC </i>
  <i name="date" type="string">2025 05 07 </i>
  <i name="time" type="string">19:14:36 </i>
 </generator>
 <incar>
  <i type="string" name="SYSTEM">routine with relax: pwdword</i>
  <i type="string" name="PREC">Acc</i>
  <i type="int" name="IALGO">    38</i>
  <i type="string" name="ALGO">A</i>
  <i type="logical" name="ADDGRID"> T  </i>
  <i type="int" name="ICHARG">     2</i>
  <i type="int" name="NELM">   100</i>
  <i type="int" name="NELMIN">     6</i>
  <i name="EDIFF">      0.00000000</i>
  <i type="int" name="NSW">     0</i>
  <i type="int" name="ISIF">    -1</i>
  <i name="ENCUT">    600.00000000</i>
  <i type="logical" name="LREAL"> F  </i>
  <i type="int" name="ISMEAR">     0</i>
  <i name="SIGMA">      0.02000000</i>
  <i type="logical" name="LASPH"> T  </i>
  <i type="string" name="METAGGA">R2SCAN</i>
  <i type="logical" name="LMIXTAU"> F  </i>
 </incar>
 <primitive_cell>
  <structure name="primitive_cell" >
   <crystal>
    <varray name="basis" >
     <v>       4.96679579       0.00000000      -2.80813278 </v>
     <v>      -1.69041249       4.67028544      -2.80813278 </v>
     <v>       0.00000000       0.00000000       5.70567000 </v>
    </varray>
    <i name="volume">    132.35074143 </i>
    <varray name="rec_basis" >
     <v>       0.20133705       0.07287406       0.00000000 </v>
     <v>       0.00000000       0.21411968       0.00000000 </v>
     <v>       0.09909111       0.14124836       0.17526425 </v>
    </varray>
   </crystal>
   <varray name="positions" >
    <v>       0.25911000       0.24089000       0.50000000 </v>
    <v>       0.74089000       0.75911000       0.50000000 </v>
    <v>       0.24089000       0.74089000       0.98177000 </v>
    <v>       0.75911000       0.25911000       0.01823000 </v>
    <v>       0.00000000       0.50000000       0.50000000 </v>
    <v>       0.00000000       0.50000000       1.00000000 </v>
    <v>       0.50000000       0.00000000       0.50000000 </v>
    <v>       0.50000000       0.50000000       0.50000000 </v>
    <v>       0.50000000       0.00000000       1.00000000 </v>
    <v>       0.00000000       0.00000000       0.50000000 </v>
    <v>       0.00000000       0.00000000       0.00000000 </v>
    <v>       0.50000000       0.50000000       1.00000000 </v>
   </varray>
  </structure>
  <varray name="primitive_index" >
   <v type="int" >        1 </v>
   <v type="int" >        2 </v>
   <v type="int" >        3 </v>
   <v type="int" >        4 </v>
   <v type="int" >        5 </v>
   <v type="int" >        6 </v>
   <v type="int" >        7 </v>
   <v type="int" >        8 </v>
   <v type="int" >        9 </v>
   <v type="int" >       10 </v>
   <v type="int" >       11 </v>
   <v type="int" >       12 </v>
  </varray>
 </primitive_cell>
 <kpoints>
  <generation param="Gamma">
   <v type="int" name="divisions">       8        8        9 </v>
   <v name="usershift">      0.00000000       0.00000000       0.00000000 </v>
   <v name="genvec1">      0.12500000       0.00000000       0.00000000 </v>
   <v name="genvec2">      0.00000000       0.12500000       0.00000000 </v>
   <v name="genvec3">      0.00000000       0.00000000       0.11111111 </v>
   <v name="shift">      0.00000000       0.00000000       0.00000000 </v>
  </generation>
  <varray name="kpointlist" >
   <v>       0.00000000       0.00000000       0.00000000 </v>
   <v>       0.12500000       0.00000000       0.00000000 </v>
   <v>       0.25000000       0.00000000       0.00000000 </v>
   <v>       0.37500000       0.00000000       0.00000000 </v>
   <v>       0.50000000       0.00000000       0.00000000 </v>
   <v>       0.12500000       0.12500000       0.00000000 </v>
   <v>       0.25000000       0.12500000       0.00000000 </v>
   <v>       0.37500000       0.12500000       0.00000000 </v>
   <v>       0.50000000       0.12500000       0.00000000 </v>
   <v>      -0.37500000       0.12500000       0.00000000 </v>
   <v>      -0.25000000       0.12500000       0.00000000 </v>
   <v>      -0.12500000       0.12500000       0.00000000 </v>
   <v>       0.25000000       0.25000000       0.00000000 </v>
   <v>       0.37500000       0.25000000       0.00000000 </v>
   <v>       0.50000000       0.25000000       0.00000000 </v>
   <v>      -0.37500000       0.25000000       0.00000000 </v>
   <v>      -0.25000000       0.25000000       0.00000000 </v>
   <v>       0.37500000       0.37500000       0.00000000 </v>
   <v>       0.50000000       0.37500000       0.00000000 </v>
   <v>      -0.37500000       0.37500000       0.00000000 </v>
   <v>       0.50000000       0.50000000       0.00000000 </v>
   <v>       0.00000000       0.00000000       0.11111111 </v>
   <v>       0.12500000       0.00000000       0.11111111 </v>
   <v>       0.25000000       0.00000000       0.11111111 </v>
   <v>       0.37500000       0.00000000       0.11111111 </v>
   <v>       0.50000000       0.00000000       0.11111111 </v>
   <v>      -0.37500000       0.00000000       0.11111111 </v>
   <v>      -0.25000000       0.00000000       0.11111111 </v>
   <v>      -0.12500000       0.00000000       0.11111111 </v>
   <v>       0.12500000       0.12500000       0.11111111 </v>
   <v>       0.25000000       0.12500000       0.11111111 </v>
   <v>       0.37500000       0.12500000       0.11111111 </v>
   <v>       0.50000000       0.12500000       0.11111111 </v>
   <v>      -0.37500000       0.12500000       0.11111111 </v>
   <v>      -0.25000000       0.12500000       0.11111111 </v>
   <v>      -0.12500000       0.12500000       0.11111111 </v>
   <v>       0.25000000       0.25000000       0.11111111 </v>
   <v>       0.37500000       0.25000000       0.11111111 </v>
   <v>       0.50000000       0.25000000       0.11111111 </v>
   <v>      -0.37500000       0.25000000       0.11111111 </v>
   <v>      -0.25000000       0.25000000       0.11111111 </v>
   <v>      -0.12500000       0.25000000       0.11111111 </v>
   <v>       0.37500000       0.37500000       0.11111111 </v>
   <v>       0.50000000       0.37500000       0.11111111 </v>
   <v>      -0.37500000       0.37500000       0.11111111 </v>
   <v>      -0.25000000       0.37500000       0.11111111 </v>
   <v>      -0.12500000       0.37500000       0.11111111 </v>
   <v>       0.50000000       0.50000000       0.11111111 </v>
   <v>      -0.37500000       0.50000000       0.11111111 </v>
   <v>      -0.25000000       0.50000000       0.11111111 </v>
   <v>      -0.12500000       0.50000000       0.11111111 </v>
   <v>      -0.37500000      -0.37500000       0.11111111 </v>
   <v>      -0.25000000      -0.37500000       0.11111111 </v>
   <v>      -0.12500000      -0.37500000       0.11111111 </v>
   <v>      -0.25000000      -0.25000000       0.11111111 </v>
   <v>      -0.12500000      -0.25000000       0.11111111 </v>
   <v>      -0.12500000      -0.12500000       0.11111111 </v>
   <v>       0.00000000       0.00000000       0.22222222 </v>
   <v>       0.12500000       0.00000000       0.22222222 </v>
   <v>       0.25000000       0.00000000       0.22222222 </v>
   <v>       0.37500000      -0.00000000       0.22222222 </v>
   <v>       0.50000000      -0.00000000       0.22222222 </v>
   <v>      -0.37500000      -0.00000000       0.22222222 </v>
   <v>      -0.25000000      -0.00000000       0.22222222 </v>
   <v>      -0.12500000       0.00000000       0.22222222 </v>
   <v>       0.12500000       0.12500000       0.22222222 </v>
   <v>       0.25000000       0.12500000       0.22222222 </v>
   <v>       0.37500000       0.12500000       0.22222222 </v>
   <v>       0.50000000       0.12500000       0.22222222 </v>
   <v>      -0.37500000       0.12500000       0.22222222 </v>
   <v>      -0.25000000       0.12500000       0.22222222 </v>
   <v>      -0.12500000       0.12500000       0.22222222 </v>
   <v>       0.25000000       0.25000000       0.22222222 </v>
   <v>       0.37500000       0.25000000       0.22222222 </v>
   <v>       0.50000000       0.25000000       0.22222222 </v>
   <v>      -0.37500000       0.25000000       0.22222222 </v>
   <v>      -0.25000000       0.25000000       0.22222222 </v>
   <v>      -0.12500000       0.25000000       0.22222222 </v>
   <v>       0.37500000       0.37500000       0.22222222 </v>
   <v>       0.50000000       0.37500000       0.22222222 </v>
   <v>      -0.37500000       0.37500000       0.22222222 </v>
   <v>      -0.25000000       0.37500000       0.22222222 </v>
   <v>      -0.12500000       0.37500000       0.22222222 </v>
   <v>       0.50000000       0.50000000       0.22222222 </v>
   <v>      -0.37500000       0.50000000       0.22222222 </v>
   <v>      -0.25000000       0.50000000       0.22222222 </v>
   <v>      -0.12500000       0.50000000       0.22222222 </v>
   <v>      -0.37500000      -0.37500000       0.22222222 </v>
   <v>      -0.25000000      -0.37500000       0.22222222 </v>
   <v>      -0.12500000      -0.37500000       0.22222222 </v>
   <v>      -0.25000000      -0.25000000       0.22222222 </v>
   <v>      -0.12500000      -0.25000000       0.22222222 </v>
   <v>      -0.12500000      -0.12500000       0.22222222 </v>
   <v>      -0.00000000       0.00000000       0.33333333 </v>
   <v>       0.12500000       0.00000000       0.33333333 </v>
   <v>       0.25000000       0.00000000       0.33333333 </v>
   <v>       0.37500000       0.00000000       0.33333333 </v>
   <v>       0.50000000      -0.00000000       0.33333333 </v>
   <v>      -0.37500000       0.00000000       0.33333333 </v>
   <v>      -0.25000000       0.00000000       0.33333333 </v>
   <v>      -0.12500000       0.00000000       0.33333333 </v>
   <v>       0.12500000       0.12500000       0.33333333 </v>
   <v>       0.25000000       0.12500000       0.33333333 </v>
   <v>       0.37500000       0.12500000       0.33333333 </v>
   <v>       0.50000000       0.12500000       0.33333333 </v>
   <v>      -0.37500000       0.12500000       0.33333333 </v>
   <v>      -0.25000000       0.12500000       0.33333333 </v>
   <v>      -0.12500000       0.12500000       0.33333333 </v>
   <v>       0.25000000       0.25000000       0.33333333 </v>
   <v>       0.37500000       0.25000000       0.33333333 </v>
   <v>       0.50000000       0.25000000       0.33333333 </v>
   <v>      -0.37500000       0.25000000       0.33333333 </v>
   <v>      -0.25000000       0.25000000       0.33333333 </v>
   <v>      -0.12500000       0.25000000       0.33333333 </v>
   <v>       0.37500000       0.37500000       0.33333333 </v>
   <v>       0.50000000       0.37500000       0.33333333 </v>
   <v>      -0.37500000       0.37500000       0.33333333 </v>
   <v>      -0.25000000       0.37500000       0.33333333 </v>
   <v>      -0.12500000       0.37500000       0.33333333 </v>
   <v>       0.50000000       0.50000000       0.33333333 </v>
   <v>      -0.37500000       0.50000000       0.33333333 </v>
   <v>      -0.25000000       0.50000000       0.33333333 </v>
   <v>      -0.12500000       0.50000000       0.33333333 </v>
   <v>      -0.37500000      -0.37500000       0.33333333 </v>
   <v>      -0.25000000      -0.37500000       0.33333333 </v>
   <v>      -0.12500000      -0.37500000       0.33333333 </v>
   <v>      -0.25000000      -0.25000000       0.33333333 </v>
   <v>      -0.12500000      -0.25000000       0.33333333 </v>
   <v>      -0.12500000      -0.12500000       0.33333333 </v>
   <v>       0.00000000       0.00000000       0.44444444 </v>
   <v>       0.12500000       0.00000000       0.44444444 </v>
   <v>       0.25000000       0.00000000       0.44444444 </v>
   <v>       0.37500000      -0.00000000       0.44444444 </v>
   <v>       0.50000000       0.00000000       0.44444444 </v>
   <v>      -0.37500000      -0.00000000       0.44444444 </v>
   <v>      -0.25000000       0.00000000       0.44444444 </v>
   <v>      -0.12500000       0.00000000       0.44444444 </v>
   <v>       0.12500000       0.12500000       0.44444444 </v>
   <v>       0.25000000       0.12500000       0.44444444 </v>
   <v>       0.37500000       0.12500000       0.44444444 </v>
   <v>       0.50000000       0.12500000       0.44444444 </v>
   <v>      -0.37500000       0.12500000       0.44444444 </v>
   <v>      -0.25000000       0.12500000       0.44444444 </v>
   <v>      -0.12500000       0.12500000       0.44444444 </v>
   <v>       0.25000000       0.25000000       0.44444444 </v>
   <v>       0.37500000       0.25000000       0.44444444 </v>
   <v>       0.50000000       0.25000000       0.44444444 </v>
   <v>      -0.37500000       0.25000000       0.44444444 </v>
   <v>      -0.25000000       0.25000000       0.44444444 </v>
   <v>      -0.12500000       0.25000000       0.44444444 </v>
   <v>       0.37500000       0.37500000       0.44444444 </v>
   <v>       0.50000000       0.37500000       0.44444444 </v>
   <v>      -0.37500000       0.37500000       0.44444444 </v>
   <v>      -0.25000000       0.37500000       0.44444444 </v>
   <v>      -0.12500000       0.37500000       0.44444444 </v>
   <v>       0.50000000       0.50000000       0.44444444 </v>
   <v>      -0.37500000       0.50000000       0.44444444 </v>
   <v>      -0.25000000       0.50000000       0.44444444 </v>
   <v>      -0.12500000       0.50000000       0.44444444 </v>
   <v>      -0.37500000      -0.37500000       0.44444444 </v>
   <v>      -0.25000000      -0.37500000       0.44444444 </v>
   <v>      -0.12500000      -0.37500000       0.44444444 </v>
   <v>      -0.25000000      -0.25000000       0.44444444 </v>
   <v>      -0.12500000      -0.25000000       0.44444444 </v>
   <v>      -0.12500000      -0.12500000       0.44444444 </v>
  </varray>
  <varray name="weights" >
   <v>       0.00173611 </v>
   <v>       0.00694444 </v>
   <v>       0.00694444 </v>
   <v>       0.00694444 </v>
   <v>       0.00347222 </v>
   <v>       0.00347222 </v>
   <v>       0.00694444 </v>
   <v>       0.00694444 </v>
   <v>       0.00694444 </v>
   <v>       0.00694444 </v>
   <v>       0.00694444 </v>
   <v>       0.00347222 </v>
   <v>       0.00347222 </v>
   <v>       0.00694444 </v>
   <v>       0.00694444 </v>
   <v>       0.00694444 </v>
   <v>       0.00347222 </v>
   <v>       0.00347222 </v>
   <v>       0.00694444 </v>
   <v>       0.00347222 </v>
   <v>       0.00173611 </v>
   <v>       0.00347222 </v>
   <v>       0.00694444 </v>
   <v>       0.00694444 </v>
   <v>       0.00694444 </v>
   <v>       0.00694444 </v>
   <v>       0.00694444 </v>
   <v>       0.00694444 </v>
   <v>       0.00694444 </v>
   <v>       0.00347222 </v>
   <v>       0.00694444 </v>
   <v>       0.00694444 </v>
   <v>       0.00694444 </v>
   <v>       0.00694444 </v>
   <v>       0.00694444 </v>
   <v>       0.00694444 </v>
   <v>       0.00347222 </v>
   <v>       0.00694444 </v>
   <v>       0.00694444 </v>
   <v>       0.00694444 </v>
   <v>       0.00694444 </v>
   <v>       0.00694444 </v>
   <v>       0.00347222 </v>
   <v>       0.00694444 </v>
   <v>       0.00694444 </v>
   <v>       0.00694444 </v>
   <v>       0.00694444 </v>
   <v>       0.00347222 </v>
   <v>       0.00694444 </v>
   <v>       0.00694444 </v>
   <v>       0.00694444 </v>
   <v>       0.00347222 </v>
   <v>       0.00694444 </v>
   <v>       0.00694444 </v>
   <v>       0.00347222 </v>
   <v>       0.00694444 </v>
   <v>       0.00347222 </v>
   <v>       0.00347222 </v>
   <v>       0.00694444 </v>
   <v>       0.00694444 </v>
   <v>       0.00694444 </v>
   <v>       0.00694444 </v>
   <v>       0.00694444 </v>
   <v>       0.00694444 </v>
   <v>       0.00694444 </v>
   <v>       0.00347222 </v>
   <v>       0.00694444 </v>
   <v>       0.00694444 </v>
   <v>       0.00694444 </v>
   <v>       0.00694444 </v>
   <v>       0.00694444 </v>
   <v>       0.00694444 </v>
   <v>       0.00347222 </v>
   <v>       0.00694444 </v>
   <v>       0.00694444 </v>
   <v>       0.00694444 </v>
   <v>       0.00694444 </v>
   <v>       0.00694444 </v>
   <v>       0.00347222 </v>
   <v>       0.00694444 </v>
   <v>       0.00694444 </v>
   <v>       0.00694444 </v>
   <v>       0.00694444 </v>
   <v>       0.00347222 </v>
   <v>       0.00694444 </v>
   <v>       0.00694444 </v>
   <v>       0.00694444 </v>
   <v>       0.00347222 </v>
   <v>       0.00694444 </v>
   <v>       0.00694444 </v>
   <v>       0.00347222 </v>
   <v>       0.00694444 </v>
   <v>       0.00347222 </v>
   <v>       0.00347222 </v>
   <v>       0.00694444 </v>
   <v>       0.00694444 </v>
   <v>       0.00694444 </v>
   <v>       0.00694444 </v>
   <v>       0.00694444 </v>
   <v>       0.00694444 </v>
   <v>       0.00694444 </v>
   <v>       0.00347222 </v>
   <v>       0.00694444 </v>
   <v>       0.00694444 </v>
   <v>       0.00694444 </v>
   <v>       0.00694444 </v>
   <v>       0.00694444 </v>
   <v>       0.00694444 </v>
   <v>       0.00347222 </v>
   <v>       0.00694444 </v>
   <v>       0.00694444 </v>
   <v>       0.00694444 </v>
   <v>       0.00694444 </v>
   <v>       0.00694444 </v>
   <v>       0.00347222 </v>
   <v>       0.00694444 </v>
   <v>       0.00694444 </v>
   <v>       0.00694444 </v>
   <v>       0.00694444 </v>
   <v>       0.00347222 </v>
   <v>       0.00694444 </v>
   <v>       0.00694444 </v>
   <v>       0.00694444 </v>
   <v>       0.00347222 </v>
   <v>       0.00694444 </v>
   <v>       0.00694444 </v>
   <v>       0.00347222 </v>
   <v>       0.00694444 </v>
   <v>       0.00347222 </v>
   <v>       0.00347222 </v>
   <v>       0.00694444 </v>
   <v>       0.00694444 </v>
   <v>       0.00694444 </v>
   <v>       0.00694444 </v>
   <v>       0.00694444 </v>
   <v>       0.00694444 </v>
   <v>       0.00694444 </v>
   <v>       0.00347222 </v>
   <v>       0.00694444 </v>
   <v>       0.00694444 </v>
   <v>       0.00694444 </v>
   <v>       0.00694444 </v>
   <v>       0.00694444 </v>
   <v>       0.00694444 </v>
   <v>       0.00347222 </v>
   <v>       0.00694444 </v>
   <v>       0.00694444 </v>
   <v>       0.00694444 </v>
   <v>       0.00694444 </v>
   <v>       0.00694444 </v>
   <v>       0.00347222 </v>
   <v>       0.00694444 </v>
   <v>       0.00694444 </v>
   <v>       0.00694444 </v>
   <v>       0.00694444 </v>
   <v>       0.00347222 </v>
   <v>       0.00694444 </v>
   <v>       0.00694444 </v>
   <v>       0.00694444 </v>
   <v>       0.00347222 </v>
   <v>       0.00694444 </v>
   <v>       0.00694444 </v>
   <v>       0.00347222 </v>
   <v>       0.00694444 </v>
   <v>       0.00347222 </v>
  </varray>
 </kpoints>
 <parameters>
  <separator name="general" >
   <i type="string" name="SYSTEM">routine with relax: pwdword</i>
   <i type="logical" name="LCOMPAT"> F  </i>
  </separator>
  <separator name="electronic" >
   <i type="string" name="PREC">acc</i>
   <i name="ENMAX">    600.00000000</i>
   <i name="ENAUG">    535.51400000</i>
   <i name="EDIFF">      0.00000000</i>
   <i type="int" name="IALGO">    58</i>
   <i type="int" name="IWAVPR">    10</i>
   <i type="int" name="NBANDS">    66</i>
   <i type="int" name="NBANDSLOW">    -1</i>
   <i type="int" name="NBANDSHIGH">    -1</i>
   <i name="NELECT">    104.00000000</i>
   <i type="int" name="TURBO">     0</i>
   <i type="int" name="IRESTART">     0</i>
   <i type="int" name="NREBOOT">     0</i>
   <i type="int" name="NMIN">     0</i>
   <i name="EREF">      0.00000000</i>
   <separator name="electronic smearing" >
    <i type="int" name="ISMEAR">     0</i>
    <i name="SIGMA">      0.02000000</i>
    <i name="KSPACING">      0.50000000</i>
    <i type="logical" name="KGAMMA"> T  </i>
    <i type="logical" name="KBLOWUP"> F  </i>
   </separator>
   <separator name="electronic projectors" >
    <i type="logical" name="LREAL"> F  </i>
    <v name="ROPT">      0.00000000      0.00000000      0.00000000</v>
    <i type="int" name="LMAXPAW">  -100</i>
    <i type="int" name="LMAXMIX">     2</i>
    <i type="logical" name="NLSPLINE"> F  </i>
   </separator>
   <separator name="electronic startup" >
    <i type="int" name="ISTART">     0</i>
    <i type="int" name="ICHARG">     2</i>
    <i type="int" name="INIWAV">     1</i>
   </separator>
   <separator name="electronic spin" >
    <i type="int" name="ISPIN">     1</i>
    <i type="logical" name="LNONCOLLINEAR"> F  </i>
    <v name="MAGMOM">      1.00000000      1.00000000      1.00000000      1.00000000      1.00000000      1.00000000      1.00000000      1.00000000      1.00000000      1.00000000      1.00000000      1.00000000</v>
    <i name="NUPDOWN">     -1.00000000</i>
    <i type="logical" name="LSORBIT"> F  </i>
    <v name="SAXIS">      0.00000000      0.00000000      1.00000000</v>
    <i type="logical" name="LSPIRAL"> F  </i>
    <v name="QSPIRAL">      0.00000000      0.00000000      0.00000000</v>
    <i type="logical" name="LZEROZ"> F  </i>
   </separator>
   <separator name="electronic exchange-correlation" >
    <i type="logical" name="LASPH"> T  </i>
    <i type="logical" name="LMETAGGA"> F  </i>
   </separator>
   <separator name="electronic convergence" >
    <i type="int" name="NELM">   100</i>
    <i type="int" name="NELMDL">    -5</i>
    <i type="int" name="NELMIN">     6</i>
    <i name="ENINI">    600.00000000</i>
    <separator name="electronic convergence detail" >
     <i type="logical" name="LDIAG"> T  </i>
     <i type="logical" name="LSUBROT"> F  </i>
     <i name="WEIMIN">      0.00000000</i>
     <i name="EBREAK">      0.00000000</i>
     <i name="DEPER">      0.30000000</i>
     <i type="int" name="NRMM">     4</i>
     <i name="TIME">      0.40000000</i>
    </separator>
   </separator>
   <separator name="electronic mixer" >
    <i name="AMIX">      0.40000000</i>
    <i name="BMIX">      1.00000000</i>
    <i name="AMIN">      0.10000000</i>
    <i name="AMIX_MAG">      1.60000000</i>
    <i name="BMIX_MAG">      1.00000000</i>
    <separator name="electronic mixer details" >
     <i type="int" name="IMIX">     4</i>
     <i type="logical" name="MIXFIRST"> F  </i>
     <i type="int" name="MAXMIX">   -45</i>
     <i name="WC">    100.00000000</i>
     <i type="int" name="INIMIX">     1</i>
     <i type="int" name="MIXPRE">     1</i>
     <i type="int" name="MREMOVE">     5</i>
    </separator>
   </separator>
   <separator name="electronic dipolcorrection" >
    <i type="logical" name="LDIPOL"> F  </i>
    <i type="logical" name="LMONO"> F  </i>
    <i type="int" name="IDIPOL">     0</i>
    <i name="EPSILON">      1.00000000</i>
    <v name="DIPOL">   -100.00000000   -100.00000000   -100.00000000</v>
    <i name="EFIELD">      0.00000000</i>
   </separator>
  </separator>
  <separator name="grids" >
   <i type="int" name="NGX">    48</i>
   <i type="int" name="NGY">    48</i>
   <i type="int" name="NGZ">    48</i>
   <i type="int" name="NGXF">    96</i>
   <i type="int" name="NGYF">    96</i>
   <i type="int" name="NGZF">    96</i>
   <i type="logical" name="ADDGRID"> T  </i>
  </separator>
  <separator name="ionic" >
   <i type="int" name="NSW">     0</i>
   <i type="int" name="IBRION">    -1</i>
   <i type="int" name="MDALGO">     0</i>
   <i type="int" name="ISIF">    -1</i>
   <i name="PSTRESS">      0.00000000</i>
   <i name="EDIFFG">      0.00000001</i>
   <i type="int" name="NFREE">     0</i>
   <i name="POTIM">      0.50000000</i>
   <i name="SMASS">     -3.00000000</i>
   <i name="SCALEE">      1.00000000</i>
  </separator>
  <separator name="ionic md" >
   <i name="TEBEG">      0.00010000</i>
   <i name="TEEND">      0.00010000</i>
   <i type="int" name="NBLOCK">     1</i>
   <i type="int" name="KBLOCK">     1</i>
   <i type="int" name="NPACO">   256</i>
   <i name="APACO">     16.00000000</i>
  </separator>
  <separator name="symmetry" >
   <i type="int" name="ISYM">     2</i>
   <i name="SYMPREC">      0.00001000</i>
  </separator>
  <separator name="dos" >
   <i type="int" name="LORBIT">     0</i>
   <v name="RWIGS">     -1.00000000     -1.00000000     -1.00000000</v>
   <i type="int" name="NEDOS">   301</i>
   <i name="EMIN">     10.00000000</i>
   <i name="EMAX">    -10.00000000</i>
   <i name="EFERMI">      0.00000000</i>
  </separator>
  <separator name="writing" >
   <i type="int" name="NWRITE">     2</i>
   <i type="logical" name="LWAVE"> T  </i>
   <i type="logical" name="LDOWNSAMPLE"> F  </i>
   <i type="logical" name="LCHARG"> T  </i>
   <i type="logical" name="LPARD"> F  </i>
   <i type="logical" name="LVTOT"> F  </i>
   <i type="logical" name="LVHAR"> F  </i>
   <i type="logical" name="LELF"> F  </i>
   <i type="logical" name="LOPTICS"> F  </i>
   <v name="STM">      0.00000000      0.00000000      0.00000000      0.00000000      0.00000000      0.00000000      0.00000000</v>
  </separator>
  <separator name="performance" >
   <i type="int" name="NPAR">     6</i>
   <i type="int" name="NSIM">     4</i>
   <i type="int" name="NBLK">    -1</i>
   <i type="logical" name="LPLANE"> T  </i>
   <i type="logical" name="LSCALAPACK"> T  </i>
   <i type="logical" name="LSCAAWARE"> F  </i>
   <i type="logical" name="LSCALU"> F  </i>
   <i type="logical" name="LASYNC"> F  </i>
   <i type="logical" name="LORBITALREAL"> F  </i>
  </separator>
  <separator name="miscellaneous" >
   <i type="int" name="IDIOT">     3</i>
   <i type="int" name="PHON_NSTRUCT">    -1</i>
   <i type="logical" name="LMUSIC"> F  </i>
   <v name="POMASS">     10.81100000     95.94000000     28.08500000</v>
   <v name="DARWINR">      0.00000000      0.00000000      0.00000000</v>
   <v name="DARWINV">      1.00000000      1.00000000      1.00000000</v>
   <i type="logical" name="LCORR"> T  </i>
  </separator>
  <i type="logical" name="GGA_COMPAT"> T  </i>
  <i type="logical" name="LBERRY"> F  </i>
  <i type="int" name="ICORELEVEL">     0</i>
  <i type="logical" name="LDAU"> F  </i>
  <i type="int" name="I_CONSTRAINED_M">     0</i>
  <separator name="electronic exchange-correlation" >
   <i type="string" name="GGA">--</i>
   <i type="int" name="VOSKOWN">     0</i>
   <i type="logical" name="LHFCALC"> F  </i>
   <i type="string" name="PRECFOCK"></i>
   <i type="logical" name="LSYMGRAD"> F  </i>
   <i type="logical" name="LHFONE"> F  </i>
   <i type="logical" name="LRHFCALC"> F  </i>
   <i type="logical" name="LTHOMAS"> F  </i>
   <i type="logical" name="LMODELHF"> F  </i>
   <i type="logical" name="LFOCKACE"> F  </i>
   <i name="ENCUT4O">     -1.00000000</i>
   <i type="int" name="EXXOEP">     0</i>
   <i type="int" name="FOURORBIT">     0</i>
   <i name="AEXX">      0.00000000</i>
   <i name="HFALPHA">      0.00000000</i>
   <i name="MCALPHA">      0.00000000</i>
   <i name="ALDAX">      1.00000000</i>
   <i name="AGGAX">      1.00000000</i>
   <i name="ALDAC">      1.00000000</i>
   <i name="AGGAC">      1.00000000</i>
   <i type="int" name="NKREDX">     1</i>
   <i type="int" name="NKREDY">     1</i>
   <i type="int" name="NKREDZ">     1</i>
   <i type="logical" name="SHIFTRED"> F  </i>
   <i type="logical" name="ODDONLY"> F  </i>
   <i type="logical" name="EVENONLY"> F  </i>
   <i type="int" name="LMAXFOCK">     0</i>
   <i type="int" name="NMAXFOCKAE">     0</i>
   <i type="logical" name="LFOCKAEDFT"> F  </i>
   <i name="HFSCREEN">      0.00000000</i>
   <i name="HFSCREENC">      0.00000000</i>
   <i type="int" name="NBANDSGWLOW">     0</i>
  </separator>
  <separator name="vdW DFT" >
   <i type="logical" name="LUSE_VDW"> F  </i>
   <i name="Zab_VDW">     -0.84910000</i>
   <i name="PARAM1">      0.12340000</i>
   <i name="PARAM2">      1.00000000</i>
   <i name="PARAM3">      0.00000000</i>
  </separator>
  <separator name="model GW" >
   <i type="int" name="MODEL_GW">     0</i>
   <i name="MODEL_EPS0">      6.61753707</i>
   <i name="MODEL_ALPHA">      1.00000000</i>
  </separator>
  <separator name="linear response parameters" >
   <i type="logical" name="LEPSILON"> F  </i>
   <i type="logical" name="LRPA"> F  </i>
   <i type="logical" name="LNABLA"> F  </i>
   <i type="logical" name="LVEL"> F  </i>
   <i type="int" name="KINTER">     0</i>
   <i name="CSHIFT">      0.10000000</i>
   <i name="OMEGAMAX">     -1.00000000</i>
   <i name="DEG_THRESHOLD">      0.00200000</i>
   <i name="RTIME">     -0.10000000</i>
   <i name="WPLASMAI">      0.00000000</i>
   <v name="DFIELD">      0.00000000      0.00000000      0.00000000</v>
   <v name="WPLASMA">      0.00000000      0.00000000      0.00000000      0.00000000      0.00000000      0.00000000      0.00000000      0.00000000      0.00000000</v>
  </separator>
  <separator name="orbital magnetization" >
   <i type="logical" name="NUCIND"> F  </i>
   <v name="MAGPOS">      0.00000000      0.00000000      0.00000000</v>
   <i type="logical" name="LNICSALL"> T  </i>
   <i type="logical" name="ORBITALMAG"> F  </i>
   <i type="logical" name="LMAGBLOCH"> F  </i>
   <i type="logical" name="LCHIMAG"> F  </i>
   <i type="logical" name="LGAUGE"> T  </i>
   <i type="int" name="MAGATOM">     0</i>
   <v name="MAGDIPOL">      0.00000000      0.00000000      0.00000000</v>
   <v name="AVECCONST">      0.00000000      0.00000000      0.00000000</v>
  </separator>
  <separator name="response functions" >
   <i type="logical" name="LFINITE_TEMPERATURE"> F  </i>
   <i type="logical" name="LADDER"> F  </i>
   <i type="logical" name="LRPAFORCE"> F  </i>
   <i type="logical" name="LFXC"> F  </i>
   <i type="logical" name="LHARTREE"> T  </i>
   <i type="int" name="IBSE">     0</i>
   <v type="int" name="KPOINT">    -1     0     0     0</v>
   <i type="logical" name="LTCTC"> F  </i>
   <i type="logical" name="LTCTE"> F  </i>
   <i type="logical" name="LTETE"> F  </i>
   <i type="logical" name="LTRIPLET"> F  </i>
   <i type="logical" name="LFXCEPS"> F  </i>
   <i type="logical" name="LFXHEG"> F  </i>
   <i type="int" name="NATURALO">     2</i>
   <i type="logical" name="LHOLEGF"> F  </i>
   <i type="logical" name="L2ORDER"> F  </i>
   <i type="logical" name="LDMP1"> F  </i>
   <i type="logical" name="LMP2LT"> F  </i>
   <i type="logical" name="LSMP2LT"> F  </i>
   <i type="logical" name="LGWLF"> F  </i>
   <i name="ENCUTGW">     -2.00000000</i>
   <i name="ENCUTGWSOFT">     -2.00000000</i>
   <i name="ENCUTLF">     -1.00000000</i>
   <i type="logical" name="LESF_SPLINES"> F  </i>
   <i type="int" name="LMAXMP2">    -1</i>
   <i name="SCISSOR">      0.00000000</i>
   <i type="int" name="NOMEGA">     0</i>
   <i type="int" name="NOMEGAR">     0</i>
   <i type="int" name="NBANDSGW">    -1</i>
   <i type="int" name="NBANDSO">    -1</i>
   <i type="int" name="NBANDSV">    -1</i>
   <i type="int" name="NELM">   100</i>
   <i type="int" name="NELMHF">     1</i>
   <i type="int" name="DIM">     3</i>
   <i type="int" name="IESPILON">     4</i>
   <i type="int" name="ANTIRES">     0</i>
   <i name="OMEGAMAX">    -30.00000000</i>
   <i name="OMEGAMIN">    -30.00000000</i>
   <i name="OMEGATL">   -200.00000000</i>
   <i type="int" name="OMEGAGRID">     0</i>
   <i name="CSHIFT">     -0.10000000</i>
   <i type="logical" name="LSELFENERGY"> F  </i>
   <i type="logical" name="LSPECTRAL"> F  </i>
   <i type="logical" name="LSPECTRALGW"> F  </i>
   <i type="logical" name="LSINGLES"> F  </i>
   <i type="logical" name="LFERMIGW"> F  </i>
   <i type="logical" name="ODDONLYGW"> F  </i>
   <i type="logical" name="EVENONLYGW"> F  </i>
   <i type="int" name="NKREDLFX">     1</i>
   <i type="int" name="NKREDLFY">     1</i>
   <i type="int" name="NKREDLFZ">     1</i>
   <i type="int" name="MAXMEM">  2800</i>
   <i type="int" name="TELESCOPE">     0</i>
   <i type="int" name="NTAUPAR">    -1</i>
   <i type="int" name="NOMEGAPAR">    -1</i>
   <i name="DAMP_NEWTON">      0.80000001</i>
   <i name="LAMBDA">      1.00000000</i>
  </separator>
  <separator name="External order field" >
   <i name="OFIELD_KAPPA">      0.00000000</i>
   <v name="OFIELD_K">      0.00000000      0.00000000      0.00000000</v>
   <i name="OFIELD_Q6_NEAR">      0.00000000</i>
   <i name="OFIELD_Q6_FAR">      0.00000000</i>
   <i name="OFIELD_A">      0.00000000</i>
  </separator>
 </parameters>
 <atominfo>
  <atoms>      12 </atoms>
  <types>       3 </types>
  <array name="atoms" >
   <dimension dim="1">ion</dimension>
   <field type="string">element</field>
   <field type="int">atomtype</field>
   <set>
    <rc><c>B </c><c>   1</c></rc>
    <rc><c>B </c><c>   1</c></rc>
    <rc><c>B </c><c>   1</c></rc>
    <rc><c>B </c><c>   1</c></rc>
    <rc><c>Mo</c><c>   2</c></rc>
    <rc><c>Mo</c><c>   2</c></rc>
    <rc><c>Mo</c><c>   2</c></rc>
    <rc><c>Mo</c><c>   2</c></rc>
    <rc><c>Mo</c><c>   2</c></rc>
    <rc><c>Mo</c><c>   2</c></rc>
    <rc><c>Si</c><c>   3</c></rc>
    <rc><c>Si</c><c>   3</c></rc>
   </set>
  </array>
  <array name="atomtypes" >
   <dimension dim="1">type</dimension>
   <field type="int">atomspertype</field>
   <field type="string">element</field>
   <field>mass</field>
   <field>valence</field>
   <field type="string">pseudopotential</field>
   <set>
    <rc><c>   4</c><c>B </c><c>     10.81100000</c><c>      3.00000000</c><c>  PAW_PBE B 06Sep2000                   </c></rc>
    <rc><c>   6</c><c>Mo</c><c>     95.94000000</c><c>     14.00000000</c><c>  PAW_PBE Mo_sv 02Feb2006               </c></rc>
    <rc><c>   2</c><c>Si</c><c>     28.08500000</c><c>      4.00000000</c><c>  PAW_PBE Si 05Jan2001                  </c></rc>
   </set>
  </array>
 </atominfo>
 <structure name="initialpos" >
  <crystal>
   <varray name="basis" >
    <v>       4.96679579       0.00000000      -2.80813278 </v>
    <v>      -1.69041249       4.67028544      -2.80813278 </v>
    <v>       0.00000000       0.00000000       5.70567000 </v>
   </varray>
   <i name="volume">    132.35074143 </i>
   <varray name="rec_basis" >
    <v>       0.20133705       0.07287406       0.00000000 </v>
    <v>       0.00000000       0.21411968       0.00000000 </v>
    <v>       0.09909111       0.14124836       0.17526425 </v>
   </varray>
  </crystal>
  <varray name="positions" >
   <v>       0.25911000       0.24089000       0.50000000 </v>
   <v>       0.74089000       0.75911000       0.50000000 </v>
   <v>       0.24089000       0.74089000       0.98177000 </v>
   <v>       0.75911000       0.25911000       0.01823000 </v>
   <v>       0.00000000       0.50000000       0.50000000 </v>
   <v>       0.00000000       0.50000000       0.00000000 </v>
   <v>       0.50000000       0.00000000       0.50000000 </v>
   <v>       0.50000000       0.50000000       0.50000000 </v>
   <v>       0.50000000       0.00000000       0.00000000 </v>
   <v>       0.00000000       0.00000000       0.50000000 </v>
   <v>       0.00000000       0.00000000       0.00000000 </v>
   <v>       0.50000000       0.50000000       0.00000000 </v>
  </varray>
 </structure>
 <calculation>
  <scstep>
   <time name="total">   25.06   25.26</time>
   <energy>
    <i name="alphaZ">    705.92128229 </i>
    <i name="ewald"> -10057.93550359 </i>
    <i name="hartreedc">  -2176.36233231 </i>
    <i name="XCdc">    492.89093981 </i>
    <i name="pawpsdc">   9250.47132855 </i>
    <i name="pawaedc">  -9210.50234729 </i>
    <i name="eentropy">     -0.00055365 </i>
    <i name="bandstr">    468.59380645 </i>
    <i name="atom">  11664.50664672 </i>
    <i name="e_fr_energy">   1137.58326699 </i>
    <i name="e_wo_entrp">   1137.58382064 </i>
    <i name="e_0_energy">   1137.58354381 </i>
   </energy>
  </scstep>
  <scstep>
   <time name="total">   24.27   24.47</time>
   <energy>
    <i name="e_fr_energy">   -189.00351673 </i>
    <i name="e_wo_entrp">   -189.00271568 </i>
    <i name="e_0_energy">   -189.00311621 </i>
   </energy>
  </scstep>
  <scstep>
   <time name="total">   26.18   26.40</time>
   <energy>
    <i name="e_fr_energy">   -244.30354289 </i>
    <i name="e_wo_entrp">   -244.30270480 </i>
    <i name="e_0_energy">   -244.30312384 </i>
   </energy>
  </scstep>
  <scstep>
   <time name="total">   26.67   26.89</time>
   <energy>
    <i name="e_fr_energy">   -245.40624969 </i>
    <i name="e_wo_entrp">   -245.40521569 </i>
    <i name="e_0_energy">   -245.40573269 </i>
   </energy>
  </scstep>
  <scstep>
   <time name="total">   27.64   27.87</time>
   <energy>
    <i name="e_fr_energy">   -245.42083191 </i>
    <i name="e_wo_entrp">   -245.41979570 </i>
    <i name="e_0_energy">   -245.42031380 </i>
   </energy>
  </scstep>
  <scstep>
   <time name="total">   28.82   29.05</time>
   <energy>
    <i name="e_fr_energy">   -154.62635116 </i>
    <i name="e_wo_entrp">   -154.62587996 </i>
    <i name="e_0_energy">   -154.62611556 </i>
   </energy>
  </scstep>
  <scstep>
   <time name="total">   29.32   29.56</time>
   <energy>
    <i name="e_fr_energy">   -187.45307851 </i>
    <i name="e_wo_entrp">   -187.45208502 </i>
    <i name="e_0_energy">   -187.45258177 </i>
   </energy>
  </scstep>
  <scstep>
   <time name="total">   29.88   30.11</time>
   <energy>
    <i name="e_fr_energy">   -192.27731426 </i>
    <i name="e_wo_entrp">   -192.27666803 </i>
    <i name="e_0_energy">   -192.27699115 </i>
   </energy>
  </scstep>
  <scstep>
   <time name="total">   29.10   29.34</time>
   <energy>
    <i name="e_fr_energy">   -193.48706168 </i>
    <i name="e_wo_entrp">   -193.48625380 </i>
    <i name="e_0_energy">   -193.48665774 </i>
   </energy>
  </scstep>
  <scstep>
   <time name="total">   28.55   28.78</time>
   <energy>
    <i name="e_fr_energy">   -193.82308743 </i>
    <i name="e_wo_entrp">   -193.82215286 </i>
    <i name="e_0_energy">   -193.82262014 </i>
   </energy>
  </scstep>
  <scstep>
   <time name="total">   29.17   29.40</time>
   <energy>
    <i name="e_fr_energy">   -193.91775738 </i>
    <i name="e_wo_entrp">   -193.91671269 </i>
    <i name="e_0_energy">   -193.91723503 </i>
   </energy>
  </scstep>
  <scstep>
   <time name="total">   28.97   29.20</time>
   <energy>
    <i name="e_fr_energy">   -193.95824245 </i>
    <i name="e_wo_entrp">   -193.95717531 </i>
    <i name="e_0_energy">   -193.95770888 </i>
   </energy>
  </scstep>
  <scstep>
   <time name="total">   29.07   29.30</time>
   <energy>
    <i name="e_fr_energy">   -193.97094369 </i>
    <i name="e_wo_entrp">   -193.96986197 </i>
    <i name="e_0_energy">   -193.97040283 </i>
   </energy>
  </scstep>
  <scstep>
   <time name="total">   29.37   29.60</time>
   <energy>
    <i name="e_fr_energy">   -193.97640305 </i>
    <i name="e_wo_entrp">   -193.97529998 </i>
    <i name="e_0_energy">   -193.97585152 </i>
   </energy>
  </scstep>
  <scstep>
   <time name="total">   28.95   29.19</time>
   <energy>
    <i name="e_fr_energy">   -193.97921936 </i>
    <i name="e_wo_entrp">   -193.97812668 </i>
    <i name="e_0_energy">   -193.97867302 </i>
   </energy>
  </scstep>
  <scstep>
   <time name="total">   28.64   28.88</time>
   <energy>
    <i name="e_fr_energy">   -193.98037058 </i>
    <i name="e_wo_entrp">   -193.97928195 </i>
    <i name="e_0_energy">   -193.97982626 </i>
   </energy>
  </scstep>
  <scstep>
   <time name="total">   29.74   29.98</time>
   <energy>
    <i name="e_fr_energy">   -193.98070531 </i>
    <i name="e_wo_entrp">   -193.97962331 </i>
    <i name="e_0_energy">   -193.98016431 </i>
   </energy>
  </scstep>
  <scstep>
   <time name="total">   29.31   29.54</time>
   <energy>
    <i name="e_fr_energy">   -193.98085307 </i>
    <i name="e_wo_entrp">   -193.97977605 </i>
    <i name="e_0_energy">   -193.98031456 </i>
   </energy>
  </scstep>
  <scstep>
   <time name="total">   28.52   28.76</time>
   <energy>
    <i name="e_fr_energy">   -193.98092981 </i>
    <i name="e_wo_entrp">   -193.97985305 </i>
    <i name="e_0_energy">   -193.98039143 </i>
   </energy>
  </scstep>
  <scstep>
   <time name="total">   29.34   29.57</time>
   <energy>
    <i name="e_fr_energy">   -193.98095350 </i>
    <i name="e_wo_entrp">   -193.97987790 </i>
    <i name="e_0_energy">   -193.98041570 </i>
   </energy>
  </scstep>
  <scstep>
   <time name="total">   29.29   29.53</time>
   <energy>
    <i name="e_fr_energy">   -193.98096587 </i>
    <i name="e_wo_entrp">   -193.97989058 </i>
    <i name="e_0_energy">   -193.98042822 </i>
   </energy>
  </scstep>
  <scstep>
   <time name="total">   28.96   29.20</time>
   <energy>
    <i name="e_fr_energy">   -193.98097080 </i>
    <i name="e_wo_entrp">   -193.97989468 </i>
    <i name="e_0_energy">   -193.98043274 </i>
   </energy>
  </scstep>
  <scstep>
   <time name="total">   29.06   29.30</time>
   <energy>
    <i name="e_fr_energy">   -193.98097296 </i>
    <i name="e_wo_entrp">   -193.97989665 </i>
    <i name="e_0_energy">   -193.98043480 </i>
   </energy>
  </scstep>
  <scstep>
   <time name="total">   28.49   28.72</time>
   <energy>
    <i name="e_fr_energy">   -193.98097391 </i>
    <i name="e_wo_entrp">   -193.97989745 </i>
    <i name="e_0_energy">   -193.98043568 </i>
   </energy>
  </scstep>
  <scstep>
   <time name="total">   28.42   28.66</time>
   <energy>
    <i name="e_fr_energy">   -193.98097422 </i>
    <i name="e_wo_entrp">   -193.97989757 </i>
    <i name="e_0_energy">   -193.98043589 </i>
   </energy>
  </scstep>
  <scstep>
   <time name="total">   29.56   29.80</time>
   <energy>
    <i name="e_fr_energy">   -193.98097436 </i>
    <i name="e_wo_entrp">   -193.97989765 </i>
    <i name="e_0_energy">   -193.98043601 </i>
   </energy>
  </scstep>
  <scstep>
   <time name="total">   28.96   29.19</time>
   <energy>
    <i name="e_fr_energy">   -193.98097441 </i>
    <i name="e_wo_entrp">   -193.97989776 </i>
    <i name="e_0_energy">   -193.98043609 </i>
   </energy>
  </scstep>
  <scstep>
   <time name="total">   28.53   28.77</time>
   <energy>
    <i name="e_fr_energy">   -193.98097445 </i>
    <i name="e_wo_entrp">   -193.97989779 </i>
    <i name="e_0_energy">   -193.98043612 </i>
   </energy>
  </scstep>
  <scstep>
   <time name="total">   28.78   29.01</time>
   <energy>
    <i name="e_fr_energy">   -193.98097448 </i>
    <i name="e_wo_entrp">   -193.97989781 </i>
    <i name="e_0_energy">   -193.98043615 </i>
   </energy>
  </scstep>
  <scstep>
   <time name="total">   29.57   29.81</time>
   <energy>
    <i name="e_fr_energy">   -193.98097448 </i>
    <i name="e_wo_entrp">   -193.97989780 </i>
    <i name="e_0_energy">   -193.98043614 </i>
   </energy>
  </scstep>
  <scstep>
   <time name="total">   28.85   29.09</time>
   <energy>
    <i name="e_fr_energy">   -193.98097448 </i>
    <i name="e_wo_entrp">   -193.97989780 </i>
    <i name="e_0_energy">   -193.98043614 </i>
   </energy>
  </scstep>
  <scstep>
   <time name="total">   28.68   28.92</time>
   <energy>
    <i name="e_fr_energy">   -193.98097448 </i>
    <i name="e_wo_entrp">   -193.97989780 </i>
    <i name="e_0_energy">   -193.98043614 </i>
   </energy>
  </scstep>
  <scstep>
   <time name="total">   28.58   28.82</time>
   <energy>
    <i name="e_fr_energy">   -193.98097449 </i>
    <i name="e_wo_entrp">   -193.97989780 </i>
    <i name="e_0_energy">   -193.98043614 </i>
   </energy>
  </scstep>
  <scstep>
   <time name="total">   29.44   29.68</time>
   <energy>
    <i name="e_fr_energy">   -193.98097449 </i>
    <i name="e_wo_entrp">   -193.97989780 </i>
    <i name="e_0_energy">   -193.98043615 </i>
   </energy>
  </scstep>
  <scstep>
   <time name="total">   28.19   28.41</time>
   <energy>
    <i name="e_fr_energy">   -193.98097449 </i>
    <i name="e_wo_entrp">   -193.97989780 </i>
    <i name="e_0_energy">   -193.98043614 </i>
   </energy>
  </scstep>
  <scstep>
   <time name="total">   29.40   29.62</time>
   <energy>
    <i name="e_fr_energy">   -193.98097449 </i>
    <i name="e_wo_entrp">   -193.97989780 </i>
    <i name="e_0_energy">   -193.98043614 </i>
   </energy>
  </scstep>
  <scstep>
   <time name="total">   32.88   33.14</time>
   <energy>
    <i name="alphaZ">    705.92128229 </i>
    <i name="ewald"> -10057.93550359 </i>
    <i name="hartreedc">  -2036.92717276 </i>
    <i name="XCdc">    503.55174716 </i>
    <i name="pawpsdc">  14791.51057192 </i>
    <i name="pawaedc"> -14774.22986894 </i>
    <i name="eentropy">     -0.00107669 </i>
    <i name="bandstr">   -990.37760059 </i>
    <i name="atom">  11664.50664672 </i>
    <i name="e_fr_energy">   -193.98097449 </i>
    <i name="e_wo_entrp">   -193.97989780 </i>
    <i name="e_0_energy">   -193.98043614 </i>
   </energy>
  </scstep>
  <structure>
   <crystal>
    <varray name="basis" >
     <v>       4.96679579       0.00000000      -2.80813278 </v>
     <v>      -1.69041249       4.67028544      -2.80813278 </v>
     <v>       0.00000000       0.00000000       5.70567000 </v>
    </varray>
    <i name="volume">    132.35074143 </i>
    <varray name="rec_basis" >
     <v>       0.20133705       0.07287406       0.00000000 </v>
     <v>       0.00000000       0.21411968       0.00000000 </v>
     <v>       0.09909111       0.14124836       0.17526425 </v>
    </varray>
   </crystal>
   <varray name="positions" >
    <v>       0.25911000       0.24089000       0.50000000 </v>
    <v>       0.74089000       0.75911000       0.50000000 </v>
    <v>       0.24089000       0.74089000       0.98177000 </v>
    <v>       0.75911000       0.25911000       0.01823000 </v>
    <v>       0.00000000       0.50000000       0.50000000 </v>
    <v>       0.00000000       0.50000000       0.00000000 </v>
    <v>       0.50000000       0.00000000       0.50000000 </v>
    <v>       0.50000000       0.50000000       0.50000000 </v>
    <v>       0.50000000       0.00000000       0.00000000 </v>
    <v>       0.00000000       0.00000000       0.50000000 </v>
    <v>       0.00000000       0.00000000       0.00000000 </v>
    <v>       0.50000000       0.50000000       0.00000000 </v>
   </varray>
  </structure>
  <varray name="forces" >
   <v>       0.00000000       0.00000000       0.00000000 </v>
   <v>       0.00000000       0.00000000       0.00000000 </v>
   <v>       0.00000000       0.00000000       0.00000000 </v>
   <v>       0.00000000       0.00000000       0.00000000 </v>
   <v>       0.00000000       0.00000000       0.00000000 </v>
   <v>       0.00000000       0.00000000       0.00000000 </v>
   <v>       0.00000000       0.00000000       0.00000000 </v>
   <v>       0.00000000       0.00000000       0.00000000 </v>
   <v>       0.00000000       0.00000000       0.00000000 </v>
   <v>       0.00000000       0.00000000       0.00000000 </v>
   <v>       0.00000000       0.00000000       0.00000000 </v>
   <v>       0.00000000       0.00000000       0.00000000 </v>
  </varray>
  <varray name="stress" >
   <v>       0.00000000       0.00000000       0.00000000 </v>
   <v>       0.00000000       0.00000000       0.00000000 </v>
   <v>       0.00000000       0.00000000       0.00000000 </v>
  </varray>
  <energy>
   <i name="e_fr_energy">   -193.98097449 </i>
   <i name="e_wo_entrp">   -193.97989780 </i>
   <i name="e_0_energy">   -193.98043614 </i>
  </energy>
  <time name="totalsc"> 1065.87 1074.53</time>
  <eigenvalues>
   <array>
    <dimension dim="1">band</dimension>
    <dimension dim="2">kpoint</dimension>
    <dimension dim="3">spin</dimension>
    <field>eigene</field>
    <field>occ</field>
    <set>
     <set comment="spin 1">
      <set comment="kpoint 1">
       <r>  -50.0397    1.0000 </r>
       <r>  -49.8944    1.0000 </r>
       <r>  -49.8934    1.0000 </r>
       <r>  -49.8641    1.0000 </r>
       <r>  -49.8245    1.0000 </r>
       <r>  -49.7874    1.0000 </r>
       <r>  -24.1286    1.0000 </r>
       <r>  -24.1285    1.0000 </r>
       <r>  -23.9329    1.0000 </r>
       <r>  -23.9159    1.0000 </r>
       <r>  -23.9156    1.0000 </r>
       <r>  -23.9058    1.0000 </r>
       <r>  -23.7439    1.0000 </r>
       <r>  -23.5045    1.0000 </r>
       <r>  -23.3984    1.0000 </r>
       <r>  -23.3983    1.0000 </r>
       <r>  -23.1347    1.0000 </r>
       <r>  -23.1343    1.0000 </r>
       <r>  -23.0174    1.0000 </r>
       <r>  -22.9219    1.0000 </r>
       <r>  -22.9210    1.0000 </r>
       <r>  -22.8798    1.0000 </r>
       <r>  -22.7684    1.0000 </r>
       <r>  -22.6916    1.0000 </r>
       <r>   -1.4354    1.0000 </r>
       <r>    0.5240    1.0000 </r>
       <r>    3.0031    1.0000 </r>
       <r>    4.8060    1.0000 </r>
       <r>    4.8060    1.0000 </r>
       <r>    5.6392    1.0000 </r>
       <r>    6.2330    1.0000 </r>
       <r>    6.2331    1.0000 </r>
       <r>    6.7901    1.0000 </r>
       <r>    6.8861    1.0000 </r>
       <r>    6.8864    1.0000 </r>
       <r>    6.9779    1.0000 </r>
       <r>    7.2979    1.0000 </r>
       <r>    8.3310    1.0000 </r>
       <r>    8.3314    1.0000 </r>
       <r>    8.4028    1.0000 </r>
       <r>    9.1863    1.0000 </r>
       <r>    9.5623    1.0000 </r>
       <r>    9.5827    1.0000 </r>
       <r>    9.5830    1.0000 </r>
       <r>   10.8797    1.0000 </r>
       <r>   11.0299    1.0000 </r>
       <r>   12.3816    1.0000 </r>
       <r>   12.3825    1.0000 </r>
       <r>   12.4006    1.0000 </r>
       <r>   12.4981    1.0000 </r>
       <r>   12.4983    1.0000 </r>
       <r>   13.1688    0.0000 </r>
       <r>   13.6780    0.0000 </r>
       <r>   14.3687    0.0000 </r>
       <r>   14.4545    0.0000 </r>
       <r>   14.7003    0.0000 </r>
       <r>   14.7009    0.0000 </r>
       <r>   14.7310    0.0000 </r>
       <r>   15.0689    0.0000 </r>
       <r>   15.1623    0.0000 </r>
       <r>   15.6384    0.0000 </r>
       <r>   15.7567    0.0000 </r>
       <r>   16.0517    0.0000 </r>
       <r>   16.0517    0.0000 </r>
       <r>   17.0786    0.0000 </r>
       <r>   17.8683    0.0000 </r>
      </set>
      <set comment="kpoint 2">
       <r>  -50.0339    1.0000 </r>
       <r>  -49.8973    1.0000 </r>
       <r>  -49.8912    1.0000 </r>
       <r>  -49.8636    1.0000 </r>
       <r>  -49.8271    1.0000 </r>
       <r>  -49.7907    1.0000 </r>
       <r>  -24.1136    1.0000 </r>
       <r>  -24.1115    1.0000 </r>
       <r>  -23.9144    1.0000 </r>
       <r>  -23.9065    1.0000 </r>
       <r>  -23.8944    1.0000 </r>
       <r>  -23.8803    1.0000 </r>
       <r>  -23.7299    1.0000 </r>
       <r>  -23.5083    1.0000 </r>
       <r>  -23.4108    1.0000 </r>
       <r>  -23.3913    1.0000 </r>
       <r>  -23.1548    1.0000 </r>
       <r>  -23.1524    1.0000 </r>
       <r>  -23.0321    1.0000 </r>
       <r>  -22.9519    1.0000 </r>
       <r>  -22.9245    1.0000 </r>
       <r>  -22.8925    1.0000 </r>
       <r>  -22.7818    1.0000 </r>
       <r>  -22.7065    1.0000 </r>
       <r>   -1.3177    1.0000 </r>
       <r>    0.5798    1.0000 </r>
       <r>    3.0207    1.0000 </r>
       <r>    4.2924    1.0000 </r>
       <r>    4.5704    1.0000 </r>
       <r>    6.0046    1.0000 </r>
       <r>    6.1872    1.0000 </r>
       <r>    6.4776    1.0000 </r>
       <r>    6.5273    1.0000 </r>
       <r>    6.8952    1.0000 </r>
       <r>    6.9992    1.0000 </r>
       <r>    7.0802    1.0000 </r>
       <r>    7.5644    1.0000 </r>
       <r>    8.3418    1.0000 </r>
       <r>    8.5045    1.0000 </r>
       <r>    8.6755    1.0000 </r>
       <r>    9.0626    1.0000 </r>
       <r>    9.4709    1.0000 </r>
       <r>    9.6138    1.0000 </r>
       <r>    9.7040    1.0000 </r>
       <r>   10.8211    1.0000 </r>
       <r>   11.0489    1.0000 </r>
       <r>   12.3028    1.0000 </r>
       <r>   12.3300    1.0000 </r>
       <r>   12.4792    1.0000 </r>
       <r>   12.4854    1.0000 </r>
       <r>   12.5192    1.0000 </r>
       <r>   13.1419    0.0000 </r>
       <r>   13.2840    0.0000 </r>
       <r>   13.5467    0.0000 </r>
       <r>   13.9669    0.0000 </r>
       <r>   14.7220    0.0000 </r>
       <r>   14.7979    0.0000 </r>
       <r>   14.9505    0.0000 </r>
       <r>   14.9820    0.0000 </r>
       <r>   15.4144    0.0000 </r>
       <r>   15.5826    0.0000 </r>
       <r>   15.9230    0.0000 </r>
       <r>   16.0040    0.0000 </r>
       <r>   16.0117    0.0000 </r>
       <r>   16.7208    0.0000 </r>
       <r>   17.3034    0.0000 </r>
      </set>
      <set comment="kpoint 3">
       <r>  -50.0174    1.0000 </r>
       <r>  -49.9106    1.0000 </r>
       <r>  -49.8838    1.0000 </r>
       <r>  -49.8580    1.0000 </r>
       <r>  -49.8347    1.0000 </r>
       <r>  -49.8001    1.0000 </r>
       <r>  -24.0796    1.0000 </r>
       <r>  -24.0676    1.0000 </r>
       <r>  -23.9166    1.0000 </r>
       <r>  -23.8553    1.0000 </r>
       <r>  -23.8182    1.0000 </r>
       <r>  -23.7993    1.0000 </r>
       <r>  -23.6837    1.0000 </r>
       <r>  -23.5165    1.0000 </r>
       <r>  -23.4460    1.0000 </r>
       <r>  -23.3649    1.0000 </r>
       <r>  -23.2166    1.0000 </r>
       <r>  -23.2077    1.0000 </r>
       <r>  -23.0806    1.0000 </r>
       <r>  -23.0525    1.0000 </r>
       <r>  -22.9315    1.0000 </r>
       <r>  -22.9161    1.0000 </r>
       <r>  -22.8016    1.0000 </r>
       <r>  -22.7414    1.0000 </r>
       <r>   -0.9789    1.0000 </r>
       <r>    0.6742    1.0000 </r>
       <r>    3.0746    1.0000 </r>
       <r>    3.6349    1.0000 </r>
       <r>    4.1434    1.0000 </r>
       <r>    5.2847    1.0000 </r>
       <r>    6.4063    1.0000 </r>
       <r>    6.8651    1.0000 </r>
       <r>    7.1085    1.0000 </r>
       <r>    7.1785    1.0000 </r>
       <r>    7.2045    1.0000 </r>
       <r>    7.2975    1.0000 </r>
       <r>    7.8513    1.0000 </r>
       <r>    8.3783    1.0000 </r>
       <r>    8.7834    1.0000 </r>
       <r>    9.0107    1.0000 </r>
       <r>    9.1442    1.0000 </r>
       <r>    9.4235    1.0000 </r>
       <r>    9.5647    1.0000 </r>
       <r>    9.9601    1.0000 </r>
       <r>   10.8062    1.0000 </r>
       <r>   11.0352    1.0000 </r>
       <r>   11.7702    1.0000 </r>
       <r>   11.9653    1.0000 </r>
       <r>   12.0424    1.0000 </r>
       <r>   12.4378    1.0000 </r>
       <r>   12.7128    1.0000 </r>
       <r>   12.7637    0.9993 </r>
       <r>   12.9900    0.0000 </r>
       <r>   13.2750    0.0000 </r>
       <r>   13.7272    0.0000 </r>
       <r>   14.3877    0.0000 </r>
       <r>   14.6564    0.0000 </r>
       <r>   14.7199    0.0000 </r>
       <r>   14.9278    0.0000 </r>
       <r>   14.9851    0.0000 </r>
       <r>   15.3967    0.0000 </r>
       <r>   15.7592    0.0000 </r>
       <r>   15.7679    0.0000 </r>
       <r>   16.0491    0.0000 </r>
       <r>   16.7520    0.0000 </r>
       <r>   17.2802    0.0000 </r>
      </set>
      <set comment="kpoint 4">
       <r>  -49.9925    1.0000 </r>
       <r>  -49.9342    1.0000 </r>
       <r>  -49.8727    1.0000 </r>
       <r>  -49.8467    1.0000 </r>
       <r>  -49.8452    1.0000 </r>
       <r>  -49.8140    1.0000 </r>
       <r>  -24.0447    1.0000 </r>
       <r>  -24.0250    1.0000 </r>
       <r>  -23.9032    1.0000 </r>
       <r>  -23.8277    1.0000 </r>
       <r>  -23.7155    1.0000 </r>
       <r>  -23.6892    1.0000 </r>
       <r>  -23.5850    1.0000 </r>
       <r>  -23.4940    1.0000 </r>
       <r>  -23.4905    1.0000 </r>
       <r>  -23.3523    1.0000 </r>
       <r>  -23.3016    1.0000 </r>
       <r>  -23.2824    1.0000 </r>
       <r>  -23.2159    1.0000 </r>
       <r>  -23.1524    1.0000 </r>
       <r>  -22.9373    1.0000 </r>
       <r>  -22.9318    1.0000 </r>
       <r>  -22.8086    1.0000 </r>
       <r>  -22.7769    1.0000 </r>
       <r>   -0.4664    1.0000 </r>
       <r>    0.5688    1.0000 </r>
       <r>    3.1699    1.0000 </r>
       <r>    3.3938    1.0000 </r>
       <r>    3.7458    1.0000 </r>
       <r>    4.3881    1.0000 </r>
       <r>    6.7854    1.0000 </r>
       <r>    7.0387    1.0000 </r>
       <r>    7.2027    1.0000 </r>
       <r>    7.3554    1.0000 </r>
       <r>    7.7864    1.0000 </r>
       <r>    7.9378    1.0000 </r>
       <r>    8.2424    1.0000 </r>
       <r>    8.5513    1.0000 </r>
       <r>    8.7665    1.0000 </r>
       <r>    9.0431    1.0000 </r>
       <r>    9.2458    1.0000 </r>
       <r>    9.3462    1.0000 </r>
       <r>    9.8381    1.0000 </r>
       <r>   10.1722    1.0000 </r>
       <r>   10.6675    1.0000 </r>
       <r>   10.8330    1.0000 </r>
       <r>   11.1708    1.0000 </r>
       <r>   11.5775    1.0000 </r>
       <r>   11.7847    1.0000 </r>
       <r>   12.2333    1.0000 </r>
       <r>   12.3019    1.0000 </r>
       <r>   12.6352    1.0000 </r>
       <r>   13.2072    0.0000 </r>
       <r>   13.3384    0.0000 </r>
       <r>   13.7805    0.0000 </r>
       <r>   13.9938    0.0000 </r>
       <r>   14.2925    0.0000 </r>
       <r>   14.3031    0.0000 </r>
       <r>   14.4856    0.0000 </r>
       <r>   14.6938    0.0000 </r>
       <r>   14.8239    0.0000 </r>
       <r>   16.0572    0.0000 </r>
       <r>   16.1167    0.0000 </r>
       <r>   16.1223    0.0000 </r>
       <r>   16.4174    0.0000 </r>
       <r>   16.4447    0.0000 </r>
      </set>
      <set comment="kpoint 5">
       <r>  -49.9634    1.0000 </r>
       <r>  -49.9630    1.0000 </r>
       <r>  -49.8597    1.0000 </r>
       <r>  -49.8591    1.0000 </r>
       <r>  -49.8302    1.0000 </r>
       <r>  -49.8301    1.0000 </r>
       <r>  -24.0212    1.0000 </r>
       <r>  -24.0210    1.0000 </r>
       <r>  -23.8580    1.0000 </r>
       <r>  -23.8576    1.0000 </r>
       <r>  -23.6470    1.0000 </r>
       <r>  -23.6465    1.0000 </r>
       <r>  -23.4718    1.0000 </r>
       <r>  -23.4712    1.0000 </r>
       <r>  -23.4209    1.0000 </r>
       <r>  -23.4209    1.0000 </r>
       <r>  -23.3900    1.0000 </r>
       <r>  -23.3889    1.0000 </r>
       <r>  -23.2293    1.0000 </r>
       <r>  -23.2288    1.0000 </r>
       <r>  -22.9383    1.0000 </r>
       <r>  -22.9379    1.0000 </r>
       <r>  -22.8004    1.0000 </r>
       <r>  -22.8002    1.0000 </r>
       <r>    0.1184    1.0000 </r>
       <r>    0.1184    1.0000 </r>
       <r>    3.4206    1.0000 </r>
       <r>    3.4206    1.0000 </r>
       <r>    3.6795    1.0000 </r>
       <r>    3.6795    1.0000 </r>
       <r>    7.0586    1.0000 </r>
       <r>    7.0587    1.0000 </r>
       <r>    7.2398    1.0000 </r>
       <r>    7.2399    1.0000 </r>
       <r>    8.3267    1.0000 </r>
       <r>    8.3267    1.0000 </r>
       <r>    8.6610    1.0000 </r>
       <r>    8.6612    1.0000 </r>
       <r>    8.8326    1.0000 </r>
       <r>    8.8328    1.0000 </r>
       <r>    9.0197    1.0000 </r>
       <r>    9.0199    1.0000 </r>
       <r>   10.2671    1.0000 </r>
       <r>   10.2672    1.0000 </r>
       <r>   10.3444    1.0000 </r>
       <r>   10.3445    1.0000 </r>
       <r>   11.4853    1.0000 </r>
       <r>   11.4856    1.0000 </r>
       <r>   11.9145    1.0000 </r>
       <r>   11.9147    1.0000 </r>
       <r>   12.2525    1.0000 </r>
       <r>   12.2527    1.0000 </r>
       <r>   13.4514    0.0000 </r>
       <r>   13.4515    0.0000 </r>
       <r>   13.6839    0.0000 </r>
       <r>   13.6843    0.0000 </r>
       <r>   14.0087    0.0000 </r>
       <r>   14.0089    0.0000 </r>
       <r>   14.4354    0.0000 </r>
       <r>   14.4354    0.0000 </r>
       <r>   15.4299    0.0000 </r>
       <r>   15.4302    0.0000 </r>
       <r>   16.2961    0.0000 </r>
       <r>   16.2972    0.0000 </r>
       <r>   16.4293    0.0000 </r>
       <r>   16.4314    0.0000 </r>
      </set>
      <set comment="kpoint 6">
       <r>  -50.0245    1.0000 </r>
       <r>  -49.8987    1.0000 </r>
       <r>  -49.8934    1.0000 </r>
       <r>  -49.8600    1.0000 </r>
       <r>  -49.8303    1.0000 </r>
       <r>  -49.7973    1.0000 </r>
       <r>  -24.0955    1.0000 </r>
       <r>  -24.0736    1.0000 </r>
       <r>  -23.9086    1.0000 </r>
       <r>  -23.8803    1.0000 </r>
       <r>  -23.8542    1.0000 </r>
       <r>  -23.8238    1.0000 </r>
       <r>  -23.7173    1.0000 </r>
       <r>  -23.5161    1.0000 </r>
       <r>  -23.4087    1.0000 </r>
       <r>  -23.4062    1.0000 </r>
       <r>  -23.2107    1.0000 </r>
       <r>  -23.1718    1.0000 </r>
       <r>  -23.0449    1.0000 </r>
       <r>  -22.9824    1.0000 </r>
       <r>  -22.9492    1.0000 </r>
       <r>  -22.9064    1.0000 </r>
       <r>  -22.7981    1.0000 </r>
       <r>  -22.7341    1.0000 </r>
       <r>   -1.1251    1.0000 </r>
       <r>    0.6627    1.0000 </r>
       <r>    3.1010    1.0000 </r>
       <r>    3.7509    1.0000 </r>
       <r>    4.2623    1.0000 </r>
       <r>    6.0643    1.0000 </r>
       <r>    6.2199    1.0000 </r>
       <r>    6.3063    1.0000 </r>
       <r>    6.8633    1.0000 </r>
       <r>    7.0323    1.0000 </r>
       <r>    7.1469    1.0000 </r>
       <r>    7.3483    1.0000 </r>
       <r>    7.7288    1.0000 </r>
       <r>    8.5888    1.0000 </r>
       <r>    8.6496    1.0000 </r>
       <r>    8.9105    1.0000 </r>
       <r>    9.0223    1.0000 </r>
       <r>    9.2562    1.0000 </r>
       <r>    9.6731    1.0000 </r>
       <r>    9.7333    1.0000 </r>
       <r>   10.8654    1.0000 </r>
       <r>   10.9665    1.0000 </r>
       <r>   12.0830    1.0000 </r>
       <r>   12.1993    1.0000 </r>
       <r>   12.3523    1.0000 </r>
       <r>   12.4192    1.0000 </r>
       <r>   12.6028    1.0000 </r>
       <r>   12.7570    0.9999 </r>
       <r>   13.1194    0.0000 </r>
       <r>   13.2383    0.0000 </r>
       <r>   13.7623    0.0000 </r>
       <r>   14.5419    0.0000 </r>
       <r>   14.6570    0.0000 </r>
       <r>   14.8585    0.0000 </r>
       <r>   14.9639    0.0000 </r>
       <r>   15.1605    0.0000 </r>
       <r>   15.5849    0.0000 </r>
       <r>   15.8698    0.0000 </r>
       <r>   15.8932    0.0000 </r>
       <r>   16.2862    0.0000 </r>
       <r>   16.3400    0.0000 </r>
       <r>   17.5597    0.0000 </r>
      </set>
      <set comment="kpoint 7">
       <r>  -50.0052    1.0000 </r>
       <r>  -49.9148    1.0000 </r>
       <r>  -49.8882    1.0000 </r>
       <r>  -49.8496    1.0000 </r>
       <r>  -49.8388    1.0000 </r>
       <r>  -49.8084    1.0000 </r>
       <r>  -24.0549    1.0000 </r>
       <r>  -24.0311    1.0000 </r>
       <r>  -23.9061    1.0000 </r>
       <r>  -23.8367    1.0000 </r>
       <r>  -23.7489    1.0000 </r>
       <r>  -23.7321    1.0000 </r>
       <r>  -23.6717    1.0000 </r>
       <r>  -23.5299    1.0000 </r>
       <r>  -23.4402    1.0000 </r>
       <r>  -23.3821    1.0000 </r>
       <r>  -23.2997    1.0000 </r>
       <r>  -23.2281    1.0000 </r>
       <r>  -23.0953    1.0000 </r>
       <r>  -23.0871    1.0000 </r>
       <r>  -22.9676    1.0000 </r>
       <r>  -22.9312    1.0000 </r>
       <r>  -22.8059    1.0000 </r>
       <r>  -22.7714    1.0000 </r>
       <r>   -0.7291    1.0000 </r>
       <r>    0.7346    1.0000 </r>
       <r>    3.0480    1.0000 </r>
       <r>    3.2531    1.0000 </r>
       <r>    3.9709    1.0000 </r>
       <r>    5.3143    1.0000 </r>
       <r>    6.3284    1.0000 </r>
       <r>    6.6438    1.0000 </r>
       <r>    7.0863    1.0000 </r>
       <r>    7.1961    1.0000 </r>
       <r>    7.6705    1.0000 </r>
       <r>    7.8873    1.0000 </r>
       <r>    8.0209    1.0000 </r>
       <r>    8.5653    1.0000 </r>
       <r>    8.7571    1.0000 </r>
       <r>    8.9750    1.0000 </r>
       <r>    9.3587    1.0000 </r>
       <r>    9.5064    1.0000 </r>
       <r>    9.6003    1.0000 </r>
       <r>    9.9153    1.0000 </r>
       <r>   10.8117    1.0000 </r>
       <r>   10.9990    1.0000 </r>
       <r>   11.1237    1.0000 </r>
       <r>   11.9013    1.0000 </r>
       <r>   11.9574    1.0000 </r>
       <r>   12.3430    1.0000 </r>
       <r>   12.6058    1.0000 </r>
       <r>   12.6990    1.0000 </r>
       <r>   12.9246    0.0000 </r>
       <r>   13.4277    0.0000 </r>
       <r>   13.5269    0.0000 </r>
       <r>   14.0971    0.0000 </r>
       <r>   14.4568    0.0000 </r>
       <r>   14.5022    0.0000 </r>
       <r>   14.8259    0.0000 </r>
       <r>   15.0378    0.0000 </r>
       <r>   15.3766    0.0000 </r>
       <r>   15.6573    0.0000 </r>
       <r>   15.7467    0.0000 </r>
       <r>   15.9195    0.0000 </r>
       <r>   16.5310    0.0000 </r>
       <r>   16.7132    0.0000 </r>
      </set>
      <set comment="kpoint 8">
       <r>  -49.9791    1.0000 </r>
       <r>  -49.9405    1.0000 </r>
       <r>  -49.8776    1.0000 </r>
       <r>  -49.8512    1.0000 </r>
       <r>  -49.8346    1.0000 </r>
       <r>  -49.8226    1.0000 </r>
       <r>  -24.0188    1.0000 </r>
       <r>  -24.0099    1.0000 </r>
       <r>  -23.8800    1.0000 </r>
       <r>  -23.8236    1.0000 </r>
       <r>  -23.6592    1.0000 </r>
       <r>  -23.6359    1.0000 </r>
       <r>  -23.5503    1.0000 </r>
       <r>  -23.5314    1.0000 </r>
       <r>  -23.4536    1.0000 </r>
       <r>  -23.4215    1.0000 </r>
       <r>  -23.3278    1.0000 </r>
       <r>  -23.2992    1.0000 </r>
       <r>  -23.2556    1.0000 </r>
       <r>  -23.1578    1.0000 </r>
       <r>  -22.9759    1.0000 </r>
       <r>  -22.9467    1.0000 </r>
       <r>  -22.8025    1.0000 </r>
       <r>  -22.8004    1.0000 </r>
       <r>   -0.1930    1.0000 </r>
       <r>    0.5331    1.0000 </r>
       <r>    2.8047    1.0000 </r>
       <r>    3.2435    1.0000 </r>
       <r>    3.8642    1.0000 </r>
       <r>    4.5592    1.0000 </r>
       <r>    6.5771    1.0000 </r>
       <r>    6.9134    1.0000 </r>
       <r>    7.0900    1.0000 </r>
       <r>    7.3004    1.0000 </r>
       <r>    8.1911    1.0000 </r>
       <r>    8.3142    1.0000 </r>
       <r>    8.4780    1.0000 </r>
       <r>    8.6645    1.0000 </r>
       <r>    8.8367    1.0000 </r>
       <r>    9.0388    1.0000 </r>
       <r>    9.2776    1.0000 </r>
       <r>    9.3254    1.0000 </r>
       <r>    9.9360    1.0000 </r>
       <r>   10.1862    1.0000 </r>
       <r>   10.3446    1.0000 </r>
       <r>   10.5811    1.0000 </r>
       <r>   11.3810    1.0000 </r>
       <r>   11.5918    1.0000 </r>
       <r>   11.6898    1.0000 </r>
       <r>   12.1734    1.0000 </r>
       <r>   12.2258    1.0000 </r>
       <r>   12.5679    1.0000 </r>
       <r>   13.2830    0.0000 </r>
       <r>   13.3363    0.0000 </r>
       <r>   13.4812    0.0000 </r>
       <r>   13.8513    0.0000 </r>
       <r>   13.9984    0.0000 </r>
       <r>   14.4255    0.0000 </r>
       <r>   14.6174    0.0000 </r>
       <r>   14.7626    0.0000 </r>
       <r>   15.2011    0.0000 </r>
       <r>   15.5577    0.0000 </r>
       <r>   15.8033    0.0000 </r>
       <r>   15.9898    0.0000 </r>
       <r>   16.2835    0.0000 </r>
       <r>   16.3620    0.0000 </r>
      </set>
      <set comment="kpoint 9">
       <r>  -49.9697    1.0000 </r>
       <r>  -49.9502    1.0000 </r>
       <r>  -49.8649    1.0000 </r>
       <r>  -49.8643    1.0000 </r>
       <r>  -49.8380    1.0000 </r>
       <r>  -49.8187    1.0000 </r>
       <r>  -24.0347    1.0000 </r>
       <r>  -23.9947    1.0000 </r>
       <r>  -23.8659    1.0000 </r>
       <r>  -23.8281    1.0000 </r>
       <r>  -23.6451    1.0000 </r>
       <r>  -23.6403    1.0000 </r>
       <r>  -23.5328    1.0000 </r>
       <r>  -23.4864    1.0000 </r>
       <r>  -23.4287    1.0000 </r>
       <r>  -23.4185    1.0000 </r>
       <r>  -23.3603    1.0000 </r>
       <r>  -23.3251    1.0000 </r>
       <r>  -23.2377    1.0000 </r>
       <r>  -23.2276    1.0000 </r>
       <r>  -22.9756    1.0000 </r>
       <r>  -22.9517    1.0000 </r>
       <r>  -22.8179    1.0000 </r>
       <r>  -22.7830    1.0000 </r>
       <r>    0.0157    1.0000 </r>
       <r>    0.3537    1.0000 </r>
       <r>    2.7977    1.0000 </r>
       <r>    3.1974    1.0000 </r>
       <r>    4.1162    1.0000 </r>
       <r>    4.1911    1.0000 </r>
       <r>    6.6240    1.0000 </r>
       <r>    6.8577    1.0000 </r>
       <r>    7.1902    1.0000 </r>
       <r>    7.3767    1.0000 </r>
       <r>    8.2232    1.0000 </r>
       <r>    8.3564    1.0000 </r>
       <r>    8.5367    1.0000 </r>
       <r>    8.7032    1.0000 </r>
       <r>    8.8219    1.0000 </r>
       <r>    8.9710    1.0000 </r>
       <r>    9.2222    1.0000 </r>
       <r>    9.3029    1.0000 </r>
       <r>   10.1674    1.0000 </r>
       <r>   10.2553    1.0000 </r>
       <r>   10.4049    1.0000 </r>
       <r>   10.5134    1.0000 </r>
       <r>   11.3346    1.0000 </r>
       <r>   11.4627    1.0000 </r>
       <r>   11.8386    1.0000 </r>
       <r>   12.1575    1.0000 </r>
       <r>   12.2684    1.0000 </r>
       <r>   12.3278    1.0000 </r>
       <r>   13.2260    0.0000 </r>
       <r>   13.4112    0.0000 </r>
       <r>   13.5084    0.0000 </r>
       <r>   13.6788    0.0000 </r>
       <r>   14.0578    0.0000 </r>
       <r>   14.3088    0.0000 </r>
       <r>   14.5730    0.0000 </r>
       <r>   14.6365    0.0000 </r>
       <r>   14.8593    0.0000 </r>
       <r>   15.8885    0.0000 </r>
       <r>   16.1612    0.0000 </r>
       <r>   16.1840    0.0000 </r>
       <r>   16.2387    0.0000 </r>
       <r>   16.4101    0.0000 </r>
      </set>
      <set comment="kpoint 10">
       <r>  -49.9974    1.0000 </r>
       <r>  -49.9233    1.0000 </r>
       <r>  -49.8774    1.0000 </r>
       <r>  -49.8525    1.0000 </r>
       <r>  -49.8501    1.0000 </r>
       <r>  -49.8046    1.0000 </r>
       <r>  -24.0745    1.0000 </r>
       <r>  -24.0094    1.0000 </r>
       <r>  -23.8941    1.0000 </r>
       <r>  -23.8231    1.0000 </r>
       <r>  -23.7367    1.0000 </r>
       <r>  -23.7305    1.0000 </r>
       <r>  -23.5898    1.0000 </r>
       <r>  -23.5257    1.0000 </r>
       <r>  -23.4635    1.0000 </r>
       <r>  -23.3470    1.0000 </r>
       <r>  -23.2951    1.0000 </r>
       <r>  -23.2251    1.0000 </r>
       <r>  -23.1760    1.0000 </r>
       <r>  -23.1531    1.0000 </r>
       <r>  -22.9656    1.0000 </r>
       <r>  -22.9494    1.0000 </r>
       <r>  -22.8170    1.0000 </r>
       <r>  -22.7542    1.0000 </r>
       <r>   -0.5586    1.0000 </r>
       <r>    0.6841    1.0000 </r>
       <r>    2.8074    1.0000 </r>
       <r>    3.2511    1.0000 </r>
       <r>    4.2812    1.0000 </r>
       <r>    4.7490    1.0000 </r>
       <r>    6.3669    1.0000 </r>
       <r>    6.8844    1.0000 </r>
       <r>    6.9605    1.0000 </r>
       <r>    7.3865    1.0000 </r>
       <r>    7.5800    1.0000 </r>
       <r>    8.0727    1.0000 </r>
       <r>    8.1247    1.0000 </r>
       <r>    8.5810    1.0000 </r>
       <r>    8.7118    1.0000 </r>
       <r>    8.9947    1.0000 </r>
       <r>    9.4675    1.0000 </r>
       <r>    9.5385    1.0000 </r>
       <r>    9.8703    1.0000 </r>
       <r>   10.0995    1.0000 </r>
       <r>   10.7925    1.0000 </r>
       <r>   10.9663    1.0000 </r>
       <r>   11.1369    1.0000 </r>
       <r>   11.6682    1.0000 </r>
       <r>   11.9052    1.0000 </r>
       <r>   12.2114    1.0000 </r>
       <r>   12.3876    1.0000 </r>
       <r>   12.8688    0.0000 </r>
       <r>   13.0032    0.0000 </r>
       <r>   13.2860    0.0000 </r>
       <r>   13.6014    0.0000 </r>
       <r>   13.9095    0.0000 </r>
       <r>   14.4748    0.0000 </r>
       <r>   14.5891    0.0000 </r>
       <r>   14.6353    0.0000 </r>
       <r>   14.7898    0.0000 </r>
       <r>   14.8983    0.0000 </r>
       <r>   15.7706    0.0000 </r>
       <r>   16.1246    0.0000 </r>
       <r>   16.1580    0.0000 </r>
       <r>   16.4435    0.0000 </r>
       <r>   16.8745    0.0000 </r>
      </set>
      <set comment="kpoint 11">
       <r>  -50.0193    1.0000 </r>
       <r>  -49.9036    1.0000 </r>
       <r>  -49.8873    1.0000 </r>
       <r>  -49.8616    1.0000 </r>
       <r>  -49.8383    1.0000 </r>
       <r>  -49.7944    1.0000 </r>
       <r>  -24.1128    1.0000 </r>
       <r>  -24.0532    1.0000 </r>
       <r>  -23.8972    1.0000 </r>
       <r>  -23.8674    1.0000 </r>
       <r>  -23.8347    1.0000 </r>
       <r>  -23.8222    1.0000 </r>
       <r>  -23.6730    1.0000 </r>
       <r>  -23.5210    1.0000 </r>
       <r>  -23.4266    1.0000 </r>
       <r>  -23.3699    1.0000 </r>
       <r>  -23.2264    1.0000 </r>
       <r>  -23.1569    1.0000 </r>
       <r>  -23.0904    1.0000 </r>
       <r>  -23.0302    1.0000 </r>
       <r>  -22.9437    1.0000 </r>
       <r>  -22.9423    1.0000 </r>
       <r>  -22.8015    1.0000 </r>
       <r>  -22.7220    1.0000 </r>
       <r>   -1.0168    1.0000 </r>
       <r>    0.6942    1.0000 </r>
       <r>    2.8495    1.0000 </r>
       <r>    3.6465    1.0000 </r>
       <r>    4.5934    1.0000 </r>
       <r>    5.5497    1.0000 </r>
       <r>    6.1882    1.0000 </r>
       <r>    6.5511    1.0000 </r>
       <r>    6.6930    1.0000 </r>
       <r>    6.8214    1.0000 </r>
       <r>    7.3531    1.0000 </r>
       <r>    7.5963    1.0000 </r>
       <r>    7.9703    1.0000 </r>
       <r>    8.3865    1.0000 </r>
       <r>    8.6023    1.0000 </r>
       <r>    8.9233    1.0000 </r>
       <r>    9.2331    1.0000 </r>
       <r>    9.6289    1.0000 </r>
       <r>    9.7849    1.0000 </r>
       <r>   10.0043    1.0000 </r>
       <r>   10.4687    1.0000 </r>
       <r>   11.2480    1.0000 </r>
       <r>   11.9228    1.0000 </r>
       <r>   12.0604    1.0000 </r>
       <r>   12.0687    1.0000 </r>
       <r>   12.5053    1.0000 </r>
       <r>   12.5982    1.0000 </r>
       <r>   12.7312    1.0000 </r>
       <r>   12.9538    0.0000 </r>
       <r>   13.2434    0.0000 </r>
       <r>   13.9070    0.0000 </r>
       <r>   14.5635    0.0000 </r>
       <r>   14.6185    0.0000 </r>
       <r>   14.8424    0.0000 </r>
       <r>   15.0570    0.0000 </r>
       <r>   15.2539    0.0000 </r>
       <r>   15.3055    0.0000 </r>
       <r>   15.7055    0.0000 </r>
       <r>   15.9845    0.0000 </r>
       <r>   16.0672    0.0000 </r>
       <r>   16.2166    0.0000 </r>
       <r>   16.9555    0.0000 </r>
      </set>
      <set comment="kpoint 12">
       <r>  -50.0321    1.0000 </r>
       <r>  -49.8946    1.0000 </r>
       <r>  -49.8935    1.0000 </r>
       <r>  -49.8641    1.0000 </r>
       <r>  -49.8300    1.0000 </r>
       <r>  -49.7896    1.0000 </r>
       <r>  -24.1285    1.0000 </r>
       <r>  -24.0953    1.0000 </r>
       <r>  -23.9050    1.0000 </r>
       <r>  -23.8962    1.0000 </r>
       <r>  -23.8884    1.0000 </r>
       <r>  -23.8874    1.0000 </r>
       <r>  -23.7161    1.0000 </r>
       <r>  -23.5108    1.0000 </r>
       <r>  -23.3999    1.0000 </r>
       <r>  -23.3959    1.0000 </r>
       <r>  -23.1712    1.0000 </r>
       <r>  -23.1359    1.0000 </r>
       <r>  -23.0448    1.0000 </r>
       <r>  -22.9560    1.0000 </r>
       <r>  -22.9365    1.0000 </r>
       <r>  -22.9090    1.0000 </r>
       <r>  -22.7823    1.0000 </r>
       <r>  -22.7021    1.0000 </r>
       <r>   -1.2808    1.0000 </r>
       <r>    0.5998    1.0000 </r>
       <r>    2.9280    1.0000 </r>
       <r>    4.1486    1.0000 </r>
       <r>    4.8108    1.0000 </r>
       <r>    6.1404    1.0000 </r>
       <r>    6.2008    1.0000 </r>
       <r>    6.2612    1.0000 </r>
       <r>    6.3731    1.0000 </r>
       <r>    6.5812    1.0000 </r>
       <r>    7.1218    1.0000 </r>
       <r>    7.2131    1.0000 </r>
       <r>    7.9118    1.0000 </r>
       <r>    8.2080    1.0000 </r>
       <r>    8.3988    1.0000 </r>
       <r>    8.7889    1.0000 </r>
       <r>    9.0551    1.0000 </r>
       <r>    9.5941    1.0000 </r>
       <r>    9.7625    1.0000 </r>
       <r>    9.7835    1.0000 </r>
       <r>   10.6448    1.0000 </r>
       <r>   11.1639    1.0000 </r>
       <r>   12.2440    1.0000 </r>
       <r>   12.3286    1.0000 </r>
       <r>   12.4820    1.0000 </r>
       <r>   12.5269    1.0000 </r>
       <r>   12.5393    1.0000 </r>
       <r>   12.8990    0.0000 </r>
       <r>   13.1706    0.0000 </r>
       <r>   13.3569    0.0000 </r>
       <r>   14.4449    0.0000 </r>
       <r>   14.7217    0.0000 </r>
       <r>   14.7717    0.0000 </r>
       <r>   14.8782    0.0000 </r>
       <r>   14.9997    0.0000 </r>
       <r>   15.5056    0.0000 </r>
       <r>   15.6609    0.0000 </r>
       <r>   15.8110    0.0000 </r>
       <r>   15.9656    0.0000 </r>
       <r>   16.0686    0.0000 </r>
       <r>   16.2819    0.0000 </r>
       <r>   16.7632    0.0000 </r>
      </set>
      <set comment="kpoint 13">
       <r>  -49.9847    1.0000 </r>
       <r>  -49.9233    1.0000 </r>
       <r>  -49.8936    1.0000 </r>
       <r>  -49.8494    1.0000 </r>
       <r>  -49.8357    1.0000 </r>
       <r>  -49.8189    1.0000 </r>
       <r>  -24.0110    1.0000 </r>
       <r>  -24.0032    1.0000 </r>
       <r>  -23.8918    1.0000 </r>
       <r>  -23.7873    1.0000 </r>
       <r>  -23.6757    1.0000 </r>
       <r>  -23.6401    1.0000 </r>
       <r>  -23.6199    1.0000 </r>
       <r>  -23.5408    1.0000 </r>
       <r>  -23.4495    1.0000 </r>
       <r>  -23.4288    1.0000 </r>
       <r>  -23.3388    1.0000 </r>
       <r>  -23.2774    1.0000 </r>
       <r>  -23.1663    1.0000 </r>
       <r>  -23.1212    1.0000 </r>
       <r>  -23.0298    1.0000 </r>
       <r>  -22.9627    1.0000 </r>
       <r>  -22.8059    1.0000 </r>
       <r>  -22.7997    1.0000 </r>
       <r>   -0.3052    1.0000 </r>
       <r>    0.7752    1.0000 </r>
       <r>    2.4571    1.0000 </r>
       <r>    3.1577    1.0000 </r>
       <r>    4.0455    1.0000 </r>
       <r>    5.5617    1.0000 </r>
       <r>    5.6373    1.0000 </r>
       <r>    6.8197    1.0000 </r>
       <r>    6.8629    1.0000 </r>
       <r>    7.3530    1.0000 </r>
       <r>    8.2282    1.0000 </r>
       <r>    8.3783    1.0000 </r>
       <r>    8.4762    1.0000 </r>
       <r>    8.5930    1.0000 </r>
       <r>    8.6229    1.0000 </r>
       <r>    9.1777    1.0000 </r>
       <r>    9.6043    1.0000 </r>
       <r>    9.6506    1.0000 </r>
       <r>    9.7495    1.0000 </r>
       <r>    9.8725    1.0000 </r>
       <r>   10.3178    1.0000 </r>
       <r>   10.7885    1.0000 </r>
       <r>   11.1937    1.0000 </r>
       <r>   11.6606    1.0000 </r>
       <r>   11.8114    1.0000 </r>
       <r>   12.2257    1.0000 </r>
       <r>   12.2556    1.0000 </r>
       <r>   13.0125    0.0000 </r>
       <r>   13.0728    0.0000 </r>
       <r>   13.1016    0.0000 </r>
       <r>   13.6662    0.0000 </r>
       <r>   13.6938    0.0000 </r>
       <r>   13.9984    0.0000 </r>
       <r>   14.6750    0.0000 </r>
       <r>   14.9022    0.0000 </r>
       <r>   14.9997    0.0000 </r>
       <r>   15.2778    0.0000 </r>
       <r>   15.3139    0.0000 </r>
       <r>   15.4631    0.0000 </r>
       <r>   15.6965    0.0000 </r>
       <r>   16.1995    0.0000 </r>
       <r>   16.4340    0.0000 </r>
      </set>
      <set comment="kpoint 14">
       <r>  -49.9590    1.0000 </r>
       <r>  -49.9441    1.0000 </r>
       <r>  -49.8881    1.0000 </r>
       <r>  -49.8625    1.0000 </r>
       <r>  -49.8317    1.0000 </r>
       <r>  -49.8205    1.0000 </r>
       <r>  -24.0300    1.0000 </r>
       <r>  -23.9507    1.0000 </r>
       <r>  -23.8586    1.0000 </r>
       <r>  -23.7671    1.0000 </r>
       <r>  -23.6161    1.0000 </r>
       <r>  -23.5975    1.0000 </r>
       <r>  -23.5637    1.0000 </r>
       <r>  -23.5442    1.0000 </r>
       <r>  -23.4652    1.0000 </r>
       <r>  -23.4094    1.0000 </r>
       <r>  -23.3542    1.0000 </r>
       <r>  -23.2977    1.0000 </r>
       <r>  -23.2692    1.0000 </r>
       <r>  -23.1828    1.0000 </r>
       <r>  -23.0617    1.0000 </r>
       <r>  -22.9837    1.0000 </r>
       <r>  -22.8321    1.0000 </r>
       <r>  -22.7844    1.0000 </r>
       <r>    0.2123    1.0000 </r>
       <r>    0.5662    1.0000 </r>
       <r>    2.0954    1.0000 </r>
       <r>    3.0461    1.0000 </r>
       <r>    4.3062    1.0000 </r>
       <r>    4.9777    1.0000 </r>
       <r>    5.9890    1.0000 </r>
[...]
       <r>    9.8087    1.0000 </r>
       <r>   10.0059    1.0000 </r>
       <r>   10.6983    1.0000 </r>
       <r>   10.8814    1.0000 </r>
       <r>   10.9708    1.0000 </r>
       <r>   11.8131    1.0000 </r>
       <r>   11.9028    1.0000 </r>
       <r>   12.2660    1.0000 </r>
       <r>   12.5394    1.0000 </r>
       <r>   12.7132    1.0000 </r>
       <r>   12.9345    0.0000 </r>
       <r>   13.3325    0.0000 </r>
       <r>   13.4942    0.0000 </r>
       <r>   13.7750    0.0000 </r>
       <r>   14.2897    0.0000 </r>
       <r>   14.5713    0.0000 </r>
       <r>   14.7611    0.0000 </r>
       <r>   14.9462    0.0000 </r>
       <r>   14.9832    0.0000 </r>
       <r>   15.6859    0.0000 </r>
       <r>   15.7273    0.0000 </r>
       <r>   15.9663    0.0000 </r>
       <r>   16.3666    0.0000 </r>
       <r>   16.4916    0.0000 </r>
      </set>
      <set comment="kpoint 165">
       <r>  -49.9883    1.0000 </r>
       <r>  -49.9103    1.0000 </r>
       <r>  -49.8939    1.0000 </r>
       <r>  -49.8636    1.0000 </r>
       <r>  -49.8487    1.0000 </r>
       <r>  -49.8007    1.0000 </r>
       <r>  -24.0961    1.0000 </r>
       <r>  -23.9593    1.0000 </r>
       <r>  -23.8465    1.0000 </r>
       <r>  -23.8362    1.0000 </r>
       <r>  -23.7166    1.0000 </r>
       <r>  -23.6584    1.0000 </r>
       <r>  -23.5760    1.0000 </r>
       <r>  -23.5288    1.0000 </r>
       <r>  -23.4299    1.0000 </r>
       <r>  -23.3897    1.0000 </r>
       <r>  -23.3546    1.0000 </r>
       <r>  -23.1952    1.0000 </r>
       <r>  -23.1675    1.0000 </r>
       <r>  -23.1590    1.0000 </r>
       <r>  -23.0532    1.0000 </r>
       <r>  -23.0147    1.0000 </r>
       <r>  -22.8190    1.0000 </r>
       <r>  -22.7444    1.0000 </r>
       <r>   -0.3480    1.0000 </r>
       <r>    0.8716    1.0000 </r>
       <r>    2.3365    1.0000 </r>
       <r>    2.7778    1.0000 </r>
       <r>    4.5889    1.0000 </r>
       <r>    5.7294    1.0000 </r>
       <r>    5.9787    1.0000 </r>
       <r>    6.2937    1.0000 </r>
       <r>    6.5761    1.0000 </r>
       <r>    7.4987    1.0000 </r>
       <r>    7.7438    1.0000 </r>
       <r>    8.1170    1.0000 </r>
       <r>    8.5332    1.0000 </r>
       <r>    8.6046    1.0000 </r>
       <r>    8.7568    1.0000 </r>
       <r>    8.9368    1.0000 </r>
       <r>    9.7352    1.0000 </r>
       <r>    9.7952    1.0000 </r>
       <r>   10.0265    1.0000 </r>
       <r>   10.0500    1.0000 </r>
       <r>   10.7160    1.0000 </r>
       <r>   10.9194    1.0000 </r>
       <r>   11.0679    1.0000 </r>
       <r>   11.7357    1.0000 </r>
       <r>   11.9958    1.0000 </r>
       <r>   12.3075    1.0000 </r>
       <r>   12.4774    1.0000 </r>
       <r>   12.7039    1.0000 </r>
       <r>   12.9497    0.0000 </r>
       <r>   12.9926    0.0000 </r>
       <r>   13.5517    0.0000 </r>
       <r>   13.7987    0.0000 </r>
       <r>   14.3957    0.0000 </r>
       <r>   14.4628    0.0000 </r>
       <r>   14.5204    0.0000 </r>
       <r>   14.9682    0.0000 </r>
       <r>   15.1099    0.0000 </r>
       <r>   15.4520    0.0000 </r>
       <r>   15.6604    0.0000 </r>
       <r>   16.1301    0.0000 </r>
       <r>   16.2692    0.0000 </r>
       <r>   16.8078    0.0000 </r>
      </set>
     </set>
    </set>
   </array>
  </eigenvalues>
  <separator name="orbital magnetization" >
   <v name="MAGDIPOLOUT">      0.00000000      0.00000000      0.00000000</v>
  </separator>
  <dos>
   <i name="efermi">     12.80908546 </i>
   <total>
    <array>
     <dimension dim="1">gridpoints</dimension>
     <dimension dim="2">spin</dimension>
     <field>energy</field>
     <field>total</field>
     <field>integrated</field>
     <set>
      <set comment="spin 1">
       <r>   -53.4530     0.0000     0.0000 </r>
       <r>   -53.2027     0.0000     0.0000 </r>
       <r>   -52.9524     0.0000     0.0000 </r>
       <r>   -52.7021     0.0000     0.0000 </r>
       <r>   -52.4518     0.0000     0.0000 </r>
       <r>   -52.2015     0.0000     0.0000 </r>
       <r>   -51.9512     0.0000     0.0000 </r>
       <r>   -51.7009     0.0000     0.0000 </r>
       <r>   -51.4506     0.0000     0.0000 </r>
       <r>   -51.2003     0.0000     0.0000 </r>
       <r>   -50.9499     0.0000     0.0000 </r>
       <r>   -50.6996     0.0000     0.0000 </r>
       <r>   -50.4493     0.0000     0.0000 </r>
       <r>   -50.1990     0.0000     0.0000 </r>
       <r>   -49.9487     8.2513     2.0654 </r>
       <r>   -49.6984    18.1582    12.0000 </r>
       <r>   -49.4481     0.0000    12.0000 </r>
       <r>   -49.1978     0.0000    12.0000 </r>
       <r>   -48.9475     0.0000    12.0000 </r>
       <r>   -48.6972     0.0000    12.0000 </r>
       <r>   -48.4469     0.0000    12.0000 </r>
       <r>   -48.1966     0.0000    12.0000 </r>
       <r>   -47.9463     0.0000    12.0000 </r>
       <r>   -47.6960     0.0000    12.0000 </r>
       <r>   -47.4456     0.0000    12.0000 </r>
       <r>   -47.1953     0.0000    12.0000 </r>
       <r>   -46.9450     0.0000    12.0000 </r>
       <r>   -46.6947     0.0000    12.0000 </r>
       <r>   -46.4444     0.0000    12.0000 </r>
       <r>   -46.1941     0.0000    12.0000 </r>
       <r>   -45.9438     0.0000    12.0000 </r>
       <r>   -45.6935     0.0000    12.0000 </r>
       <r>   -45.4432     0.0000    12.0000 </r>
       <r>   -45.1929     0.0000    12.0000 </r>
       <r>   -44.9426     0.0000    12.0000 </r>
       <r>   -44.6923     0.0000    12.0000 </r>
       <r>   -44.4420     0.0000    12.0000 </r>
       <r>   -44.1917     0.0000    12.0000 </r>
       <r>   -43.9413     0.0000    12.0000 </r>
       <r>   -43.6910     0.0000    12.0000 </r>
       <r>   -43.4407     0.0000    12.0000 </r>
       <r>   -43.1904     0.0000    12.0000 </r>
       <r>   -42.9401     0.0000    12.0000 </r>
       <r>   -42.6898     0.0000    12.0000 </r>
       <r>   -42.4395     0.0000    12.0000 </r>
       <r>   -42.1892     0.0000    12.0000 </r>
       <r>   -41.9389     0.0000    12.0000 </r>
       <r>   -41.6886     0.0000    12.0000 </r>
       <r>   -41.4383     0.0000    12.0000 </r>
       <r>   -41.1880     0.0000    12.0000 </r>
       <r>   -40.9377     0.0000    12.0000 </r>
       <r>   -40.6874     0.0000    12.0000 </r>
       <r>   -40.4370     0.0000    12.0000 </r>
       <r>   -40.1867     0.0000    12.0000 </r>
       <r>   -39.9364     0.0000    12.0000 </r>
       <r>   -39.6861     0.0000    12.0000 </r>
       <r>   -39.4358     0.0000    12.0000 </r>
       <r>   -39.1855     0.0000    12.0000 </r>
       <r>   -38.9352     0.0000    12.0000 </r>
       <r>   -38.6849     0.0000    12.0000 </r>
       <r>   -38.4346     0.0000    12.0000 </r>
       <r>   -38.1843     0.0000    12.0000 </r>
       <r>   -37.9340     0.0000    12.0000 </r>
       <r>   -37.6837     0.0000    12.0000 </r>
       <r>   -37.4334     0.0000    12.0000 </r>
       <r>   -37.1830     0.0000    12.0000 </r>
       <r>   -36.9327     0.0000    12.0000 </r>
       <r>   -36.6824     0.0000    12.0000 </r>
       <r>   -36.4321     0.0000    12.0000 </r>
       <r>   -36.1818     0.0000    12.0000 </r>
       <r>   -35.9315     0.0000    12.0000 </r>
       <r>   -35.6812     0.0000    12.0000 </r>
       <r>   -35.4309     0.0000    12.0000 </r>
       <r>   -35.1806     0.0000    12.0000 </r>
       <r>   -34.9303     0.0000    12.0000 </r>
       <r>   -34.6800     0.0000    12.0000 </r>
       <r>   -34.4297     0.0000    12.0000 </r>
       <r>   -34.1794     0.0000    12.0000 </r>
       <r>   -33.9291     0.0000    12.0000 </r>
       <r>   -33.6787     0.0000    12.0000 </r>
       <r>   -33.4284     0.0000    12.0000 </r>
       <r>   -33.1781     0.0000    12.0000 </r>
       <r>   -32.9278     0.0000    12.0000 </r>
       <r>   -32.6775     0.0000    12.0000 </r>
       <r>   -32.4272     0.0000    12.0000 </r>
       <r>   -32.1769     0.0000    12.0000 </r>
       <r>   -31.9266     0.0000    12.0000 </r>
       <r>   -31.6763     0.0000    12.0000 </r>
       <r>   -31.4260     0.0000    12.0000 </r>
       <r>   -31.1757     0.0000    12.0000 </r>
       <r>   -30.9254     0.0000    12.0000 </r>
       <r>   -30.6751     0.0000    12.0000 </r>
       <r>   -30.4248     0.0000    12.0000 </r>
       <r>   -30.1744     0.0000    12.0000 </r>
       <r>   -29.9241     0.0000    12.0000 </r>
       <r>   -29.6738     0.0000    12.0000 </r>
       <r>   -29.4235     0.0000    12.0000 </r>
       <r>   -29.1732     0.0000    12.0000 </r>
       <r>   -28.9229     0.0000    12.0000 </r>
       <r>   -28.6726     0.0000    12.0000 </r>
       <r>   -28.4223     0.0000    12.0000 </r>
       <r>   -28.1720     0.0000    12.0000 </r>
       <r>   -27.9217     0.0000    12.0000 </r>
       <r>   -27.6714     0.0000    12.0000 </r>
       <r>   -27.4211     0.0000    12.0000 </r>
       <r>   -27.1708     0.0000    12.0000 </r>
       <r>   -26.9205     0.0000    12.0000 </r>
       <r>   -26.6701     0.0000    12.0000 </r>
       <r>   -26.4198     0.0000    12.0000 </r>
       <r>   -26.1695     0.0000    12.0000 </r>
       <r>   -25.9192     0.0000    12.0000 </r>
       <r>   -25.6689     0.0000    12.0000 </r>
       <r>   -25.4186     0.0000    12.0000 </r>
       <r>   -25.1683     0.0000    12.0000 </r>
       <r>   -24.9180     0.0000    12.0000 </r>
       <r>   -24.6677     0.0000    12.0000 </r>
       <r>   -24.4174     0.0000    12.0000 </r>
       <r>   -24.1671     0.0009    12.0002 </r>
       <r>   -23.9168    11.2802    15.4242 </r>
       <r>   -23.6665    17.8170    22.6264 </r>
       <r>   -23.4161    22.7996    30.7833 </r>
       <r>   -23.1658    17.1373    38.0049 </r>
       <r>   -22.9155    16.2222    43.7862 </r>
       <r>   -22.6652    10.1116    47.9997 </r>
       <r>   -22.4149     0.0000    48.0000 </r>
       <r>   -22.1646     0.0000    48.0000 </r>
       <r>   -21.9143     0.0000    48.0000 </r>
       <r>   -21.6640     0.0000    48.0000 </r>
       <r>   -21.4137     0.0000    48.0000 </r>
       <r>   -21.1634     0.0000    48.0000 </r>
       <r>   -20.9131     0.0000    48.0000 </r>
       <r>   -20.6628     0.0000    48.0000 </r>
       <r>   -20.4125     0.0000    48.0000 </r>
       <r>   -20.1622     0.0000    48.0000 </r>
       <r>   -19.9118     0.0000    48.0000 </r>
       <r>   -19.6615     0.0000    48.0000 </r>
       <r>   -19.4112     0.0000    48.0000 </r>
       <r>   -19.1609     0.0000    48.0000 </r>
       <r>   -18.9106     0.0000    48.0000 </r>
       <r>   -18.6603     0.0000    48.0000 </r>
       <r>   -18.4100     0.0000    48.0000 </r>
       <r>   -18.1597     0.0000    48.0000 </r>
       <r>   -17.9094     0.0000    48.0000 </r>
       <r>   -17.6591     0.0000    48.0000 </r>
       <r>   -17.4088     0.0000    48.0000 </r>
       <r>   -17.1585     0.0000    48.0000 </r>
       <r>   -16.9082     0.0000    48.0000 </r>
       <r>   -16.6579     0.0000    48.0000 </r>
       <r>   -16.4075     0.0000    48.0000 </r>
       <r>   -16.1572     0.0000    48.0000 </r>
       <r>   -15.9069     0.0000    48.0000 </r>
       <r>   -15.6566     0.0000    48.0000 </r>
       <r>   -15.4063     0.0000    48.0000 </r>
       <r>   -15.1560     0.0000    48.0000 </r>
       <r>   -14.9057     0.0000    48.0000 </r>
       <r>   -14.6554     0.0000    48.0000 </r>
       <r>   -14.4051     0.0000    48.0000 </r>
       <r>   -14.1548     0.0000    48.0000 </r>
       <r>   -13.9045     0.0000    48.0000 </r>
       <r>   -13.6542     0.0000    48.0000 </r>
       <r>   -13.4039     0.0000    48.0000 </r>
       <r>   -13.1536     0.0000    48.0000 </r>
       <r>   -12.9032     0.0000    48.0000 </r>
       <r>   -12.6529     0.0000    48.0000 </r>
       <r>   -12.4026     0.0000    48.0000 </r>
       <r>   -12.1523     0.0000    48.0000 </r>
       <r>   -11.9020     0.0000    48.0000 </r>
       <r>   -11.6517     0.0000    48.0000 </r>
       <r>   -11.4014     0.0000    48.0000 </r>
       <r>   -11.1511     0.0000    48.0000 </r>
       <r>   -10.9008     0.0000    48.0000 </r>
       <r>   -10.6505     0.0000    48.0000 </r>
       <r>   -10.4002     0.0000    48.0000 </r>
       <r>   -10.1499     0.0000    48.0000 </r>
       <r>    -9.8996     0.0000    48.0000 </r>
       <r>    -9.6492     0.0000    48.0000 </r>
       <r>    -9.3989     0.0000    48.0000 </r>
       <r>    -9.1486     0.0000    48.0000 </r>
       <r>    -8.8983     0.0000    48.0000 </r>
       <r>    -8.6480     0.0000    48.0000 </r>
       <r>    -8.3977     0.0000    48.0000 </r>
       <r>    -8.1474     0.0000    48.0000 </r>
       <r>    -7.8971     0.0000    48.0000 </r>
       <r>    -7.6468     0.0000    48.0000 </r>
       <r>    -7.3965     0.0000    48.0000 </r>
       <r>    -7.1462     0.0000    48.0000 </r>
       <r>    -6.8959     0.0000    48.0000 </r>
       <r>    -6.6456     0.0000    48.0000 </r>
       <r>    -6.3953     0.0000    48.0000 </r>
       <r>    -6.1449     0.0000    48.0000 </r>
       <r>    -5.8946     0.0000    48.0000 </r>
       <r>    -5.6443     0.0000    48.0000 </r>
       <r>    -5.3940     0.0000    48.0000 </r>
       <r>    -5.1437     0.0000    48.0000 </r>
       <r>    -4.8934     0.0000    48.0000 </r>
       <r>    -4.6431     0.0000    48.0000 </r>
       <r>    -4.3928     0.0000    48.0000 </r>
       <r>    -4.1425     0.0000    48.0000 </r>
       <r>    -3.8922     0.0000    48.0000 </r>
       <r>    -3.6419     0.0000    48.0000 </r>
       <r>    -3.3916     0.0000    48.0000 </r>
       <r>    -3.1413     0.0000    48.0000 </r>
       <r>    -2.8910     0.0000    48.0000 </r>
       <r>    -2.6406     0.0000    48.0000 </r>
       <r>    -2.3903     0.0000    48.0000 </r>
       <r>    -2.1400     0.0000    48.0000 </r>
       <r>    -1.8897     0.0000    48.0000 </r>
       <r>    -1.6394     0.0000    48.0000 </r>
       <r>    -1.3891     0.0139    48.0035 </r>
       <r>    -1.1388     0.1486    48.0754 </r>
       <r>    -0.8885     0.3624    48.2122 </r>
       <r>    -0.6382     0.6210    48.4297 </r>
       <r>    -0.3879     0.5933    48.6520 </r>
       <r>    -0.1376     1.0788    48.9957 </r>
       <r>     0.1127     1.0127    49.3611 </r>
       <r>     0.3630     1.6976    49.9215 </r>
       <r>     0.6133     1.8195    50.5804 </r>
       <r>     0.8637     2.3561    51.6974 </r>
       <r>     1.1140     0.4781    51.9912 </r>
       <r>     1.3643     0.0881    52.0221 </r>
       <r>     1.6146     0.2553    52.1021 </r>
       <r>     1.8649     0.4561    52.2635 </r>
       <r>     2.1152     0.6444    52.4703 </r>
       <r>     2.3655     0.7832    52.7551 </r>
       <r>     2.6158     1.2655    53.1605 </r>
       <r>     2.8661     1.7136    53.7727 </r>
       <r>     3.1164     1.8043    54.5002 </r>
       <r>     3.3667     1.2868    55.1103 </r>
       <r>     3.6170     1.2458    55.6278 </r>
       <r>     3.8673     1.2681    56.2445 </r>
       <r>     4.1177     1.1022    56.6960 </r>
       <r>     4.3680     1.4204    57.2548 </r>
       <r>     4.6183     1.5320    57.8592 </r>
       <r>     4.8686     1.6116    58.5249 </r>
       <r>     5.1189     1.3462    59.0870 </r>
       <r>     5.3692     1.2050    59.5308 </r>
       <r>     5.6195     1.4347    60.0327 </r>
       <r>     5.8698     1.8007    60.7320 </r>
       <r>     6.1201     2.1026    61.4534 </r>
       <r>     6.3704     1.9424    62.2258 </r>
       <r>     6.6207     2.9727    63.3170 </r>
       <r>     6.8710     2.5530    64.4585 </r>
       <r>     7.1213     3.0299    65.5535 </r>
       <r>     7.3716     3.3518    66.8077 </r>
       <r>     7.6220     3.5340    68.0200 </r>
       <r>     7.8723     3.6257    69.5707 </r>
       <r>     8.1226     3.8526    70.9470 </r>
       <r>     8.3729     4.9491    72.8256 </r>
       <r>     8.6232     4.8221    74.6584 </r>
       <r>     8.8735     5.8955    76.8021 </r>
       <r>     9.1238     5.5612    78.9233 </r>
       <r>     9.3741     5.8246    81.0031 </r>
       <r>     9.6244     6.2341    83.0431 </r>
       <r>     9.8747     4.4681    84.8649 </r>
       <r>    10.1250     4.3364    86.6097 </r>
       <r>    10.3753     5.1552    88.4918 </r>
       <r>    10.6256     3.6216    89.8961 </r>
       <r>    10.8759     3.6459    91.2841 </r>
       <r>    11.1263     3.1439    92.4258 </r>
       <r>    11.3766     4.4278    94.0180 </r>
       <r>    11.6269     2.9808    95.2600 </r>
       <r>    11.8772     4.9963    96.9346 </r>
       <r>    12.1275     4.8236    99.0616 </r>
       <r>    12.3778     5.3740   101.1056 </r>
       <r>    12.6281     4.7850   103.0172 </r>
       <r>    12.8784     3.2612   104.3024 </r>
       <r>    13.1287     3.4346   105.5646 </r>
       <r>    13.3790     6.1374   107.9459 </r>
       <r>    13.6293     3.9467   109.6441 </r>
       <r>    13.8796     4.1788   111.2543 </r>
       <r>    14.1299     3.8776   112.8872 </r>
       <r>    14.3802     3.0662   114.2883 </r>
       <r>    14.6306     4.5165   116.0750 </r>
       <r>    14.8809     5.0995   118.0299 </r>
       <r>    15.1312     4.6648   120.0843 </r>
       <r>    15.3815     4.2397   121.6932 </r>
       <r>    15.6318     3.8261   123.3258 </r>
       <r>    15.8821     4.9255   125.2641 </r>
       <r>    16.1324     4.6426   127.0648 </r>
       <r>    16.3827     5.1067   128.9866 </r>
       <r>    16.6330     2.3788   130.1857 </r>
       <r>    16.8833     1.4512   130.8216 </r>
       <r>    17.1336     1.1049   131.3252 </r>
       <r>    17.3839     0.9831   131.6836 </r>
       <r>    17.6342     0.3962   131.8561 </r>
       <r>    17.8846     0.0852   131.9310 </r>
       <r>    18.1349     0.0832   131.9930 </r>
       <r>    18.3852     0.0277   132.0000 </r>
       <r>    18.6355     0.0000   132.0000 </r>
       <r>    18.8858     0.0000   132.0000 </r>
       <r>    19.1361     0.0000   132.0000 </r>
       <r>    19.3864     0.0000   132.0000 </r>
       <r>    19.6367     0.0000   132.0000 </r>
       <r>    19.8870     0.0000   132.0000 </r>
       <r>    20.1373     0.0000   132.0000 </r>
       <r>    20.3876     0.0000   132.0000 </r>
       <r>    20.6379     0.0000   132.0000 </r>
       <r>    20.8882     0.0000   132.0000 </r>
       <r>    21.1385     0.0000   132.0000 </r>
       <r>    21.3889     0.0000   132.0000 </r>
       <r>    21.6392     0.0000   132.0000 </r>
      </set>
     </set>
    </array>
   </total>
  </dos>
 </calculation>
 <structure name="finalpos" >
  <crystal>
   <varray name="basis" >
    <v>       4.96679579       0.00000000      -2.80813278 </v>
    <v>      -1.69041249       4.67028544      -2.80813278 </v>
    <v>       0.00000000       0.00000000       5.70567000 </v>
   </varray>
   <i name="volume">    132.35074143 </i>
   <varray name="rec_basis" >
    <v>       0.20133705       0.07287406       0.00000000 </v>
    <v>       0.00000000       0.21411968       0.00000000 </v>
    <v>       0.09909111       0.14124836       0.17526425 </v>
   </varray>
  </crystal>
  <varray name="positions" >
   <v>       0.25911000       0.24089000       0.50000000 </v>
   <v>       0.74089000       0.75911000       0.50000000 </v>
   <v>       0.24089000       0.74089000       0.98177000 </v>
   <v>       0.75911000       0.25911000       0.01823000 </v>
   <v>       0.00000000       0.50000000       0.50000000 </v>
   <v>       0.00000000       0.50000000       0.00000000 </v>
   <v>       0.50000000       0.00000000       0.50000000 </v>
   <v>       0.50000000       0.50000000       0.50000000 </v>
   <v>       0.50000000       0.00000000       0.00000000 </v>
   <v>       0.00000000       0.00000000       0.50000000 </v>
   <v>       0.00000000       0.00000000       0.00000000 </v>
   <v>       0.50000000       0.50000000       0.00000000 </v>
  </varray>
 </structure>
</modeling>
