 vasp.6.2.0 18Jan21 (build Jan 05 2022 15:41:44) complex                        
  
 executed on             LinuxIFC date 2025.05.07  15:40:46
 running on   24 total cores
 distrk:  each k-point on   12 cores,    2 groups
 distr:  one band on NCORE=   2 cores,    6 groups


--------------------------------------------------------------------------------------------------------


 INCAR:
   SYSTEM = routine with relax: pwdword
   ICHARG = 2
   NPAR = 6
   KPAR = 2
   NCORE = 2
   ADDGRID = T
   PREC = Acc
   ENCUT = 600
   METAGGA = R2SCAN
   LASPH = .TRUE.
   LMIXTAU = .FALSE.
   ALGO = A
   EDIFF = 1E-9
   NELM = 100
   NELMIN = 6
   IALGO = 38
   LREAL = F
   NSW = 0
   ISIF = -1
   ISMEAR = 0
   SIGMA = 0.02
   SYMPREC = 1E-4

 POTCAR:    PAW_PBE B 06Sep2000                   
 POTCAR:    PAW_PBE Mo_sv 02Feb2006               
 POTCAR:    PAW_PBE Si 05Jan2001                  
 -----------------------------------------------------------------------------
|                                                                             |
|           W    W    AA    RRRRR   N    N  II  N    N   GGGG   !!!           |
|           W    W   A  A   R    R  NN   N  II  NN   N  G    G  !!!           |
|           W    W  A    A  R    R  N N  N  II  N N  N  G       !!!           |
|           W WW W  AAAAAA  RRRRR   N  N N  II  N  N N  G  GGG   !            |
|           WW  WW  A    A  R   R   N   NN  II  N   NN  G    G                |
|           W    W  A    A  R    R  N    N  II  N    N   GGGG   !!!           |
|                                                                             |
|     For optimal performance we recommend to set                             |
|       NCORE = 2 up to number-of-cores-per-socket                            |
|     NCORE specifies how many cores store one orbital (NPAR=cpu/NCORE).      |
|     This setting can greatly improve the performance of VASP for DFT.       |
|     The default, NCORE=1 might be grossly inefficient on modern             |
|     multi-core architectures or massively parallel machines. Do your        |
|     own testing! More info at https://www.vasp.at/wiki/index.php/NCORE      |
|     Unfortunately you need to use the default for GW and RPA                |
|     calculations (for HF NCORE is supported but not extensively tested      |
|     yet).                                                                   |
|                                                                             |
 -----------------------------------------------------------------------------

 POTCAR:    PAW_PBE B 06Sep2000                   
   VRHFIN =B: s2p1                                                                                  
   LEXCH  = PE                                                                                      
   EATOM  =    71.1703 eV,    5.2309 Ry                                                             
                                                                                                    
   TITEL  = PAW_PBE B 06Sep2000                                                                     
   LULTRA =        F    use ultrasoft PP ?                                                          
   IUNSCR =        1    unscreen: 0-lin 1-nonlin 2-no                                               
   RPACOR =    1.200    partial core radius                                                         
   POMASS =   10.811; ZVAL   =    3.000    mass and valenz                                          
   RCORE  =    1.700    outmost cutoff radius                                                       
   RWIGS  =    1.710; RWIGS  =    0.905    wigner-seitz radius (au A)                               
   ENMAX  =  318.614; ENMIN  =  238.960 eV                                                          
   ICORE  =        2    local potential                                                             
   LCOR   =        T    correct aug charges                                                         
   LPAW   =        T    paw PP                                                                      
   EAUG   =  535.514                                                                                
   DEXC   =    0.000                                                                                
   RMAX   =    1.732    core radius for proj-oper                                                   
   RAUG   =    1.300    factor for augmentation sphere                                              
   RDEP   =    1.757    radius for radial grids                                                     
   RDEPT  =    1.436    core radius for aug-charge                                                  
                                                                                                    
   Atomic configuration                                                                             
    4 entries                                                                                       
     n  l   j            E        occ.                                                              
     1  0  0.50      -180.5896   2.0000                                                             
     2  0  0.50        -9.4431   2.0000                                                             
     2  1  0.50        -3.6068   1.0000                                                             
     3  2  1.50        -4.0817   0.0000                                                             
   Description                                                                                      
     l       E           TYP  RCUT    TYP  RCUT                                                     
     0     -9.4430752     23  1.500                                                                 
     0      0.8675899     23  1.500                                                                 
     1     -3.6067955     23  1.700                                                                 
     1      6.1086146     23  1.700                                                                 
     2     -4.0817478      7  1.700                                                                 
  local pseudopotential read in
  partial core-charges read in
  partial kinetic energy density read in
  atomic valenz-charges read in
  non local Contribution for L=           0  read in
    real space projection operators read in
  non local Contribution for L=           0  read in
    real space projection operators read in
  non local Contribution for L=           1  read in
    real space projection operators read in
  non local Contribution for L=           1  read in
    real space projection operators read in
    PAW grid and wavefunctions read in
 
   number of l-projection  operators is LMAX  =           4
   number of lm-projection operators is LMMAX =           8
 
 POTCAR:    PAW_PBE Mo_sv 02Feb2006               
   VRHFIN =Mo: 4p5s4d                                                                               
   LEXCH  = PE                                                                                      
   EATOM  =  1862.2866 eV,  136.8742 Ry                                                             
                                                                                                    
   TITEL  = PAW_PBE Mo_sv 02Feb2006                                                                 
   LULTRA =        F    use ultrasoft PP ?                                                          
   IUNSCR =        1    unscreen: 0-lin 1-nonlin 2-no                                               
   RPACOR =    2.200    partial core radius                                                         
   POMASS =   95.940; ZVAL   =   14.000    mass and valenz                                          
   RCORE  =    2.500    outmost cutoff radius                                                       
   RWIGS  =    2.750; RWIGS  =    1.455    wigner-seitz radius (au A)                               
   ENMAX  =  242.676; ENMIN  =  182.007 eV                                                          
   ICORE  =        3    local potential                                                             
   LCOR   =        T    correct aug charges                                                         
   LPAW   =        T    paw PP                                                                      
   EAUG   =  446.014                                                                                
   DEXC   =    0.000                                                                                
   RMAX   =    2.563    core radius for proj-oper                                                   
   RAUG   =    1.300    factor for augmentation sphere                                              
   RDEP   =    2.641    radius for radial grids                                                     
   RDEPT  =    2.031    core radius for aug-charge                                                  
                                                                                                    
   Atomic configuration                                                                             
   11 entries                                                                                       
     n  l   j            E        occ.                                                              
     1  0  0.50    -19819.0341   2.0000                                                             
     2  0  0.50     -2799.0127   2.0000                                                             
     2  1  1.50     -2502.0276   6.0000                                                             
     3  0  0.50      -476.4449   2.0000                                                             
     3  1  1.50      -379.1496   6.0000                                                             
     3  2  2.50      -220.9367  10.0000                                                             
     4  0  0.50       -64.3378   2.0000                                                             
     5  0  0.50        -4.0862   1.0000                                                             
     4  1  1.50       -38.4773   6.0000                                                             
     4  2  2.50        -3.7535   5.0000                                                             
     4  3  2.50        -1.3606   0.0000                                                             
   Description                                                                                      
     l       E           TYP  RCUT    TYP  RCUT                                                     
     0    -64.3377829     23  2.100                                                                 
     0     -4.0861640     23  2.400                                                                 
     1    -38.4772993     23  2.100                                                                 
     1     13.6058260     23  2.100                                                                 
     2     -3.7534941     23  2.400                                                                 
     2     -5.1140767     23  2.400                                                                 
     3     -4.0817478     23  2.500                                                                 
  local pseudopotential read in
  partial core-charges read in
  partial kinetic energy density read in
  atomic valenz-charges read in
  non local Contribution for L=           0  read in
    real space projection operators read in
  non local Contribution for L=           0  read in
    real space projection operators read in
  non local Contribution for L=           1  read in
    real space projection operators read in
  non local Contribution for L=           1  read in
    real space projection operators read in
  non local Contribution for L=           2  read in
    real space projection operators read in
  non local Contribution for L=           2  read in
    real space projection operators read in
    PAW grid and wavefunctions read in
 
   number of l-projection  operators is LMAX  =           6
   number of lm-projection operators is LMMAX =          18
 
 POTCAR:    PAW_PBE Si 05Jan2001                  
   VRHFIN =Si: s2p2                                                                                 
   LEXCH  = PE                                                                                      
   EATOM  =   103.0669 eV,    7.5752 Ry                                                             
                                                                                                    
   TITEL  = PAW_PBE Si 05Jan2001                                                                    
   LULTRA =        F    use ultrasoft PP ?                                                          
   IUNSCR =        1    unscreen: 0-lin 1-nonlin 2-no                                               
   RPACOR =    1.500    partial core radius                                                         
   POMASS =   28.085; ZVAL   =    4.000    mass and valenz                                          
   RCORE  =    1.900    outmost cutoff radius                                                       
   RWIGS  =    2.480; RWIGS  =    1.312    wigner-seitz radius (au A)                               
   ENMAX  =  245.345; ENMIN  =  184.009 eV                                                          
   ICORE  =        2    local potential                                                             
   LCOR   =        T    correct aug charges                                                         
   LPAW   =        T    paw PP                                                                      
   EAUG   =  322.069                                                                                
   DEXC   =    0.000                                                                                
   RMAX   =    1.950    core radius for proj-oper                                                   
   RAUG   =    1.300    factor for augmentation sphere                                              
   RDEP   =    1.993    radius for radial grids                                                     
   RDEPT  =    1.837    core radius for aug-charge                                                  
                                                                                                    
   Atomic configuration                                                                             
    6 entries                                                                                       
     n  l   j            E        occ.                                                              
     1  0  0.50     -1785.8828   2.0000                                                             
     2  0  0.50      -139.4969   2.0000                                                             
     2  1  1.50       -95.5546   6.0000                                                             
     3  0  0.50       -10.8127   2.0000                                                             
     3  1  0.50        -4.0811   2.0000                                                             
     3  2  1.50        -4.0817   0.0000                                                             
   Description                                                                                      
     l       E           TYP  RCUT    TYP  RCUT                                                     
     0    -10.8127223     23  1.900                                                                 
     0     -7.6451159     23  1.900                                                                 
     1     -4.0811372     23  1.900                                                                 
     1      2.4879257     23  1.900                                                                 
     2     -4.0817478      7  1.900                                                                 
  local pseudopotential read in
  partial core-charges read in
  partial kinetic energy density read in
  atomic valenz-charges read in
  non local Contribution for L=           0  read in
    real space projection operators read in
  non local Contribution for L=           0  read in
    real space projection operators read in
  non local Contribution for L=           1  read in
    real space projection operators read in
  non local Contribution for L=           1  read in
    real space projection operators read in
    PAW grid and wavefunctions read in
 
   number of l-projection  operators is LMAX  =           4
   number of lm-projection operators is LMMAX =           8
 
 -----------------------------------------------------------------------------
|                                                                             |
|               ----> ADVICE to this user running VASP <----                  |
|                                                                             |
|     You have a (more or less) 'large supercell' and for larger cells it     |
|     might be more efficient to use real-space projection operators.         |
|     Therefore, try LREAL= Auto in the INCAR file.                           |
|     Mind: For very accurate calculation, you might also keep the            |
|     reciprocal projection scheme (i.e. LREAL=.FALSE.).                      |
|                                                                             |
 -----------------------------------------------------------------------------

  PAW_PBE B 06Sep2000                   :
 energy of atom  1       EATOM=  -71.1703
 kinetic energy error for atom=    0.0007 (will be added to EATOM!!)
  PAW_PBE Mo_sv 02Feb2006               :
 energy of atom  2       EATOM=-1862.2866
 kinetic energy error for atom=    0.0041 (will be added to EATOM!!)
  PAW_PBE Si 05Jan2001                  :
 energy of atom  3       EATOM= -103.0669
 kinetic energy error for atom=    0.0003 (will be added to EATOM!!)
 
 
 POSCAR: EA37
  positions in direct lattice
  No initial velocities read in

 METAGGA = R2SCA    LMAXTAU =  6    LMIXTAU =  F

 exchange correlation table for  LEXCH =        8
   RHO(1)=    0.500       N(1)  =     2000
   RHO(2)=  100.500       N(2)  =     4000
 


--------------------------------------------------------------------------------------------------------


 ion  position               nearest neighbor table
   1  0.253  0.753  0.006-  13 2.00  11 2.00  16 2.02  18 2.02
   2  0.247  0.253  0.500-   5 2.00   8 2.00  15 2.02  20 2.02
   3  0.753  0.747  0.500-   6 2.00   7 2.00  19 2.02  22 2.02
   4  0.747  0.247  0.994-  14 2.00   9 2.00  21 2.02  17 2.02
   5  0.281  0.507  0.500-   2 2.00  22 2.21  15 2.22  18 2.30  21 2.30   6 2.98  14 3.15  11 3.15
                             8 3.19  10 3.21  12 3.21   7 3.40
   6  0.007  0.781  0.500-   3 2.00  20 2.21  19 2.22  18 2.30  21 2.30   5 2.98  14 3.15  11 3.15
                             7 3.19  12 3.21  10 3.21   8 3.40
   7  0.719  0.493  0.500-   3 2.00  15 2.21  22 2.22  17 2.30  16 2.30   8 2.98  13 3.15   9 3.15
                             6 3.19  12 3.21  10 3.21   5 3.40
   8  0.993  0.219  0.500-   2 2.00  19 2.21  20 2.22  17 2.30  16 2.30   7 2.98  13 3.15   9 3.15
                             5 3.19  10 3.21  12 3.21   6 3.40
   9  0.781  0.281  0.774-   4 2.00  16 2.21  21 2.22  19 2.30  15 2.30  13 2.98   8 3.15   7 3.15
                            14 3.19  10 3.21  12 3.21  11 3.40
  10  0.750  0.750  0.000-  20 3.07  15 3.07  19 3.07  22 3.07  17 3.07  18 3.07  16 3.07  21 3.07
                             8 3.21   5 3.21   6 3.21   7 3.21  11 3.21   9 3.21  14 3.21  13 3.21
  11  0.219  0.719  0.226-   1 2.00  21 2.21  16 2.22  20 2.30  22 2.30  14 2.98   5 3.15   6 3.15
                            13 3.19  12 3.21  10 3.21   9 3.40
  12  0.250  0.250  0.000-  22 3.07  19 3.07  15 3.07  20 3.07  18 3.07  17 3.07  21 3.07  16 3.07
                             6 3.21   7 3.21   5 3.21   8 3.21  11 3.21   9 3.21  13 3.21  14 3.21
  13  0.507  0.007  0.226-   1 2.00  17 2.21  18 2.22  15 2.30  19 2.30   9 2.98   7 3.15   8 3.15
                            11 3.19  12 3.21  10 3.21  14 3.40
  14  0.493  0.993  0.774-   4 2.00  18 2.21  17 2.22  20 2.30  22 2.30  11 2.98   5 3.15   6 3.15
                             9 3.19  10 3.21  12 3.21  13 3.40
  15  0.498  0.318  0.500-   2 2.02   7 2.21   5 2.22  13 2.30   9 2.30  22 2.82  10 3.07  12 3.07

  16  0.002  0.502  0.821-   1 2.02   9 2.21  11 2.22   7 2.30   8 2.30  21 2.82  12 3.07  10 3.07

  17  0.682  0.182  0.179-   4 2.02  13 2.21  14 2.22   7 2.30   8 2.30  18 2.82  12 3.07  10 3.07

  18  0.318  0.818  0.821-   1 2.02  14 2.21  13 2.22   5 2.30   6 2.30  17 2.82  12 3.07  10 3.07

  19  0.818  0.998  0.500-   3 2.02   8 2.21   6 2.22  13 2.30   9 2.30  20 2.82  12 3.07  10 3.07

  20  0.182  0.002  0.500-   2 2.02   6 2.21   8 2.22  14 2.30  11 2.30  19 2.82  10 3.07  12 3.07

  21  0.998  0.498  0.179-   4 2.02  11 2.21   9 2.22   5 2.30   6 2.30  16 2.82  12 3.07  10 3.07

  22  0.502  0.682  0.500-   3 2.02   5 2.21   7 2.22  14 2.30  11 2.30  15 2.82  12 3.07  10 3.07

 
  LATTYP: Found a body centered tetragonal cell.
 ALAT       =     7.7082186410
 C/A-ratio  =     1.4357306749
  
  Lattice vectors:
  
 A1 = (   6.6922996646,   0.0000000000,  -3.9422230976)
 A2 = (  -2.1861985306,   6.3251411672,  -3.9422230976)
 A3 = (   0.0000000000,   0.0000000000,   7.7671100000)


Analysis of symmetry for initial positions (statically):
=====================================================================
 Subroutine PRICEL returns:
 Original cell was already a primitive cell.
 

 Routine SETGRP: Setting up the symmetry group for a 
 body centered tetragonal supercell.


 Subroutine GETGRP returns: Found 16 space group operations
 (whereof  8 operations were pure point group operations)
 out of a pool of 16 trial point group operations.


The static configuration has the point symmetry C_4h.
 The point group associated with its full space group is D_4h.


Analysis of symmetry for dynamics (positions and initial velocities):
=====================================================================
 Subroutine PRICEL returns:
 Original cell was already a primitive cell.
 

 Routine SETGRP: Setting up the symmetry group for a 
 body centered tetragonal supercell.


 Subroutine GETGRP returns: Found 16 space group operations
 (whereof  8 operations were pure point group operations)
 out of a pool of 16 trial point group operations.


The dynamic configuration has the point symmetry C_4h.
 The point group associated with its full space group is D_4h.


 Subroutine INISYM returns: Found 16 space group operations
 (whereof  8 operations are pure point group operations),
 and found     1 'primitive' translations


----------------------------------------------------------------------------------------

                                     Primitive cell                                     

  volume of cell :     328.7797

  direct lattice vectors                    reciprocal lattice vectors
     6.692299665  0.000000000 -3.942223098     0.149425467  0.051646869  0.000000000
    -2.186198531  6.325141167 -3.942223098     0.000000000  0.158099238  0.000000000
     0.000000000  0.000000000  7.767110000     0.075841404  0.106457350  0.128748016

  length of vectors
     7.767110000  7.767110000  7.767110000     0.158099238  0.158099238  0.183469718

  position of ions in fractional coordinates (direct lattice)
     0.252970000  0.752970000  0.005940000
     0.247030000  0.252970000  0.500000000
     0.752970000  0.747030000  0.500000000
     0.747030000  0.247030000  0.994060000
     0.280990000  0.507340000  0.500000000
     0.007340000  0.780990000  0.500000000
     0.719010000  0.492660000  0.500000000
     0.992660000  0.219010000  0.500000000
     0.780990000  0.280990000  0.773650000
     0.750000000  0.750000000  1.000000000
     0.219010000  0.719010000  0.226350000
     0.250000000  0.250000000  1.000000000
     0.507340000  0.007340000  0.226350000
     0.492660000  0.992660000  0.773650000
     0.497510000  0.318340000  0.500000000
     0.002490000  0.502490000  0.820830000
     0.681660000  0.181660000  0.179170000
     0.318340000  0.818340000  0.820830000
     0.818340000  0.997510000  0.500000000
     0.181660000  0.002490000  0.500000000
     0.997510000  0.497510000  0.179170000
     0.502490000  0.681660000  0.500000000

  ion indices of the primitive-cell ions
   primitive index   ion index
                 1           1
                 2           2
                 3           3
                 4           4
                 5           5
                 6           6
                 7           7
                 8           8
                 9           9
                10          10
                11          11
                12          12
                13          13
                14          14
                15          15
                16          16
                17          17
                18          18
                19          19
                20          20
                21          21
                22          22

----------------------------------------------------------------------------------------

 
 
 KPOINTS: EA                                      

Automatic generation of k-mesh.
 Grid dimensions read from file:
 generate k-points for:    6    6    7

 Generating k-lattice:

  Cartesian coordinates                     Fractional coordinates (reciprocal lattice)
     0.024904244  0.008607811  0.000000000     0.166666667 -0.000000000  0.000000000
     0.000000000  0.026349873  0.000000000     0.000000000  0.166666667  0.000000000
     0.010834486  0.015208193  0.018392574    -0.000000000 -0.000000000  0.142857143

  Length of vectors
     0.026349873  0.026349873  0.026209960

  Shift w.r.t. Gamma in fractional coordinates (k-lattice)
     0.000000000  0.000000000  0.000000000

 -----------------------------------------------------------------------------
|                                                                             |
|           W    W    AA    RRRRR   N    N  II  N    N   GGGG   !!!           |
|           W    W   A  A   R    R  NN   N  II  NN   N  G    G  !!!           |
|           W    W  A    A  R    R  N N  N  II  N N  N  G       !!!           |
|           W WW W  AAAAAA  RRRRR   N  N N  II  N  N N  G  GGG   !            |
|           WW  WW  A    A  R   R   N   NN  II  N   NN  G    G                |
|           W    W  A    A  R    R  N    N  II  N    N   GGGG   !!!           |
|                                                                             |
|     Your reciprocal lattice and k-lattice belong to different lattice       |
|     classes:                                                                |
|                                                                             |
|        The reciprocal lattice is body-centered tetragonal,                  |
|        whereas your k-lattice is base-centered monoclinic.                  |
|                                                                             |
|     Results are often still useful ...                                      |
|                                                                             |
 -----------------------------------------------------------------------------

 WARNING: IBZKPT: internal override: KBLOWUP is changed to .FALSE.
      ... skipping the blow-up phase ...

 
 Subroutine IBZKPT returns following result:
 ===========================================
 
 Found     76 irreducible k-points:
 
 Following reciprocal coordinates:
            Coordinates               Weight
  0.000000  0.000000  0.000000      1.000000
  0.166667  0.000000  0.000000      4.000000
  0.333333  0.000000  0.000000      4.000000
  0.500000  0.000000  0.000000      2.000000
  0.166667  0.166667  0.000000      2.000000
  0.333333  0.166667  0.000000      4.000000
  0.500000  0.166667  0.000000      4.000000
 -0.333333  0.166667  0.000000      4.000000
 -0.166667  0.166667  0.000000      2.000000
  0.333333  0.333333  0.000000      2.000000
  0.500000  0.333333  0.000000      4.000000
 -0.333333  0.333333  0.000000      2.000000
  0.500000  0.500000  0.000000      1.000000
 -0.000000 -0.000000  0.142857      2.000000
  0.166667  0.000000  0.142857      4.000000
  0.333333  0.000000  0.142857      4.000000
  0.500000  0.000000  0.142857      4.000000
 -0.333333  0.000000  0.142857      4.000000
 -0.166667  0.000000  0.142857      4.000000
  0.166667  0.166667  0.142857      2.000000
  0.333333  0.166667  0.142857      4.000000
  0.500000  0.166667  0.142857      4.000000
 -0.333333  0.166667  0.142857      4.000000
 -0.166667  0.166667  0.142857      4.000000
  0.333333  0.333333  0.142857      2.000000
  0.500000  0.333333  0.142857      4.000000
 -0.333333  0.333333  0.142857      4.000000
 -0.166667  0.333333  0.142857      4.000000
  0.500000  0.500000  0.142857      2.000000
 -0.333333  0.500000  0.142857      4.000000
 -0.166667  0.500000  0.142857      4.000000
 -0.333333 -0.333333  0.142857      2.000000
 -0.166667 -0.333333  0.142857      4.000000
 -0.166667 -0.166667  0.142857      2.000000
 -0.000000  0.000000  0.285714      2.000000
  0.166667  0.000000  0.285714      4.000000
  0.333333  0.000000  0.285714      4.000000
  0.500000  0.000000  0.285714      4.000000
 -0.333333  0.000000  0.285714      4.000000
 -0.166667  0.000000  0.285714      4.000000
  0.166667  0.166667  0.285714      2.000000
  0.333333  0.166667  0.285714      4.000000
  0.500000  0.166667  0.285714      4.000000
 -0.333333  0.166667  0.285714      4.000000
 -0.166667  0.166667  0.285714      4.000000
  0.333333  0.333333  0.285714      2.000000
  0.500000  0.333333  0.285714      4.000000
 -0.333333  0.333333  0.285714      4.000000
 -0.166667  0.333333  0.285714      4.000000
  0.500000  0.500000  0.285714      2.000000
 -0.333333  0.500000  0.285714      4.000000
 -0.166667  0.500000  0.285714      4.000000
 -0.333333 -0.333333  0.285714      2.000000
 -0.166667 -0.333333  0.285714      4.000000
 -0.166667 -0.166667  0.285714      2.000000
  0.000000  0.000000  0.428571      2.000000
  0.166667  0.000000  0.428571      4.000000
  0.333333 -0.000000  0.428571      4.000000
  0.500000  0.000000  0.428571      4.000000
 -0.333333  0.000000  0.428571      4.000000
 -0.166667  0.000000  0.428571      4.000000
  0.166667  0.166667  0.428571      2.000000
  0.333333  0.166667  0.428571      4.000000
  0.500000  0.166667  0.428571      4.000000
 -0.333333  0.166667  0.428571      4.000000
 -0.166667  0.166667  0.428571      4.000000
  0.333333  0.333333  0.428571      2.000000
  0.500000  0.333333  0.428571      4.000000
 -0.333333  0.333333  0.428571      4.000000
 -0.166667  0.333333  0.428571      4.000000
  0.500000  0.500000  0.428571      2.000000
 -0.333333  0.500000  0.428571      4.000000
 -0.166667  0.500000  0.428571      4.000000
 -0.333333 -0.333333  0.428571      2.000000
 -0.166667 -0.333333  0.428571      4.000000
 -0.166667 -0.166667  0.428571      2.000000
 
 Following cartesian coordinates:
            Coordinates               Weight
  0.000000  0.000000  0.000000      1.000000
  0.024904  0.008608  0.000000      4.000000
  0.049808  0.017216  0.000000      4.000000
  0.074713  0.025823  0.000000      2.000000
  0.024904  0.034958  0.000000      2.000000
  0.049808  0.043565  0.000000      4.000000
  0.074713  0.052173  0.000000      4.000000
 -0.049808  0.009134  0.000000      4.000000
 -0.024904  0.017742  0.000000      2.000000
  0.049808  0.069915  0.000000      2.000000
  0.074713  0.078523  0.000000      4.000000
 -0.049808  0.035484  0.000000      2.000000
  0.074713  0.104873  0.000000      1.000000
  0.010834  0.015208  0.018393      2.000000
  0.035739  0.023816  0.018393      4.000000
  0.060643  0.032424  0.018393      4.000000
  0.085547  0.041032  0.018393      4.000000
 -0.038974 -0.002007  0.018393      4.000000
 -0.014070  0.006600  0.018393      4.000000
  0.035739  0.050166  0.018393      2.000000
  0.060643  0.058774  0.018393      4.000000
  0.085547  0.067382  0.018393      4.000000
 -0.038974  0.024342  0.018393      4.000000
 -0.014070  0.032950  0.018393      4.000000
  0.060643  0.085124  0.018393      2.000000
  0.085547  0.093731  0.018393      4.000000
 -0.038974  0.050692  0.018393      4.000000
 -0.014070  0.059300  0.018393      4.000000
  0.085547  0.120081  0.018393      2.000000
 -0.038974  0.077042  0.018393      4.000000
 -0.014070  0.085650  0.018393      4.000000
 -0.038974 -0.054707  0.018393      2.000000
 -0.014070 -0.046099  0.018393      4.000000
 -0.014070 -0.019749  0.018393      2.000000
  0.021669  0.030416  0.036785      2.000000
  0.046573  0.039024  0.036785      4.000000
  0.071477  0.047632  0.036785      4.000000
  0.096382  0.056240  0.036785      4.000000
 -0.028140  0.013201  0.036785      4.000000
 -0.003235  0.021809  0.036785      4.000000
  0.046573  0.065374  0.036785      2.000000
  0.071477  0.073982  0.036785      4.000000
  0.096382  0.082590  0.036785      4.000000
 -0.028140  0.039551  0.036785      4.000000
 -0.003235  0.048158  0.036785      4.000000
  0.071477  0.100332  0.036785      2.000000
  0.096382  0.108940  0.036785      4.000000
 -0.028140  0.065901  0.036785      4.000000
 -0.003235  0.074508  0.036785      4.000000
  0.096382  0.135289  0.036785      2.000000
 -0.028140  0.092250  0.036785      4.000000
 -0.003235  0.100858  0.036785      4.000000
 -0.028140 -0.039499  0.036785      2.000000
 -0.003235 -0.030891  0.036785      4.000000
 -0.003235 -0.004541  0.036785      2.000000
  0.032503  0.045625  0.055178      2.000000
  0.057408  0.054232  0.055178      4.000000
  0.082312  0.062840  0.055178      4.000000
  0.107216  0.071448  0.055178      4.000000
 -0.017305  0.028409  0.055178      4.000000
  0.007599  0.037017  0.055178      4.000000
  0.057408  0.080582  0.055178      2.000000
  0.082312  0.089190  0.055178      4.000000
  0.107216  0.097798  0.055178      4.000000
 -0.017305  0.054759  0.055178      4.000000
  0.007599  0.063367  0.055178      4.000000
  0.082312  0.115540  0.055178      2.000000
  0.107216  0.124148  0.055178      4.000000
 -0.017305  0.081109  0.055178      4.000000
  0.007599  0.089717  0.055178      4.000000
  0.107216  0.150498  0.055178      2.000000
 -0.017305  0.107459  0.055178      4.000000
  0.007599  0.116066  0.055178      4.000000
 -0.017305 -0.024291  0.055178      2.000000
  0.007599 -0.015683  0.055178      4.000000
  0.007599  0.010667  0.055178      2.000000
 


--------------------------------------------------------------------------------------------------------




 Dimension of arrays:
   k-points           NKPTS =     76   k-points in BZ     NKDIM =     76   number of bands    NBANDS=    114
   number of dos      NEDOS =    301   number of ions     NIONS =     22
   non local maximal  LDIM  =      6   non local SUM 2l+1 LMDIM =     18
   total plane-waves  NPLWV = 262144
   max r-space proj   IRMAX =      1   max aug-charges    IRDMAX= 279113
   dimension x,y,z NGX =    64 NGY =   64 NGZ =   64
   dimension x,y,z NGXF=   128 NGYF=  128 NGZF=  128
   support grid    NGXF=   256 NGYF=  256 NGZF=  256
   ions per type =               4  10   8
   NGX,Y,Z   is equivalent  to a cutoff of  13.70, 13.70, 13.70 a.u.
   NGXF,Y,Z  is equivalent  to a cutoff of  27.40, 27.40, 27.40 a.u.

 SYSTEM =  routine with relax: pwdword             
 POSCAR =  EA37                                    

 Startparameter for this run:
   NWRITE =      2    write-flag & timer
   PREC   = acc       normal or accurate (medium, high low for compatibility)
   ISTART =      0    job   : 0-new  1-cont  2-samecut
   ICHARG =      2    charge: 1-file 2-atom 10-const
   ISPIN  =      1    spin polarized calculation?
   LNONCOLLINEAR =      F non collinear calculations
   LSORBIT =      F    spin-orbit coupling
   INIWAV =      1    electr: 0-lowe 1-rand  2-diag
   LASPH  =      T    aspherical Exc in radial PAW
   METAGGA=      F    non-selfconsistent MetaGGA calc.

 Electronic Relaxation 1
   ENCUT  =  600.0 eV  44.10 Ry    6.64 a.u.  15.51 15.51 15.51*2*pi/ulx,y,z
   ENINI  =  600.0     initial cutoff
   ENAUG  =  535.5 eV  augmentation charge cutoff
   NELM   =    100;   NELMIN=  6; NELMDL= -5     # of ELM steps 
   EDIFF  = 0.1E-08   stopping-criterion for ELM
   LREAL  =      F    real-space projection
   NLSPLINE    = F    spline interpolate recip. space projectors
   LCOMPAT=      F    compatible to vasp.4.4
   GGA_COMPAT  = T    GGA compatible to vasp.4.4-vasp.4.6
   LMAXPAW     = -100 max onsite density
   LMAXMIX     =    2 max onsite mixed and CHGCAR
   VOSKOWN=      0    Vosko Wilk Nusair interpolation
   ROPT   =    0.00000   0.00000   0.00000
 Ionic relaxation
   EDIFFG = 0.1E-07   stopping-criterion for IOM
   NSW    =      0    number of steps for IOM
   NBLOCK =      1;   KBLOCK =      1    inner block; outer block 
   IBRION =     -1    ionic relax: 0-MD 1-quasi-New 2-CG
   NFREE  =      0    steps in history (QN), initial steepest desc. (CG)
   ISIF   =     -1    stress and relaxation
   IWAVPR =     10    prediction:  0-non 1-charg 2-wave 3-comb
   ISYM   =      2    0-nonsym 1-usesym 2-fastsym
   LCORR  =      T    Harris-Foulkes like correction to forces

   POTIM  = 0.5000    time-step for ionic-motion
   TEIN   =    0.0    initial temperature
   TEBEG  =    0.0;   TEEND  =   0.0 temperature during run
   SMASS  =  -3.00    Nose mass-parameter (am)
   estimated Nose-frequenzy (Omega)   =  0.10E-29 period in steps = 0.13E+47 mass=  -0.138E-26a.u.
   SCALEE = 1.0000    scale energy and forces
   NPACO  =    256;   APACO  = 16.0  distance and # of slots for P.C.
   PSTRESS=    0.0 pullay stress

  Mass of Ions in am
   POMASS =  10.81 95.94 28.09
  Ionic Valenz
   ZVAL   =   3.00 14.00  4.00
  Atomic Wigner-Seitz radii
   RWIGS  =  -1.00 -1.00 -1.00
  virtual crystal weights 
   VCA    =   1.00  1.00  1.00
   NELECT =     184.0000    total number of electrons
   NUPDOWN=      -1.0000    fix difference up-down

 DOS related values:
   EMIN   =  10.00;   EMAX   =-10.00  energy-range for DOS
   EFERMI =   0.00
   ISMEAR =     0;   SIGMA  =   0.02  broadening in eV -4-tet -1-fermi 0-gaus

 Electronic relaxation 2 (details)
   IALGO  =     58    algorithm
   LDIAG  =      T    sub-space diagonalisation (order eigenvalues)
   LSUBROT=      F    optimize rotation matrix (better conditioning)
   TURBO    =      0    0=normal 1=particle mesh
   IRESTART =      0    0=no restart 2=restart with 2 vectors
   NREBOOT  =      0    no. of reboots
   NMIN     =      0    reboot dimension
   EREF     =   0.00    reference energy to select bands
   IMIX   =      4    mixing-type and parameters
     AMIX     =   0.40;   BMIX     =  1.00
     AMIX_MAG =   1.60;   BMIX_MAG =  1.00
     AMIN     =   0.10
     WC   =   100.;   INIMIX=   1;  MIXPRE=   1;  MAXMIX= -45

 Intra band minimization:
   WEIMIN = 0.0000     energy-eigenvalue tresh-hold
   EBREAK =  0.22E-11  absolut break condition
   DEPER  =   0.30     relativ break condition  

   TIME   =   0.40     timestep for ELM

  volume/ion in A,a.u.               =      14.94       100.85
  Fermi-wavevector in a.u.,A,eV,Ry     =   1.349105  2.549439 24.763750  1.820084
  Thomas-Fermi vector in A             =   2.476719
 
 Write flags
   LWAVE        =      T    write WAVECAR
   LDOWNSAMPLE  =      F    k-point downsampling of WAVECAR
   LCHARG       =      T    write CHGCAR
   LVTOT        =      F    write LOCPOT, total local potential
   LVHAR        =      F    write LOCPOT, Hartree potential only
   LELF         =      F    write electronic localiz. function (ELF)
   LORBIT       =      0    0 simple, 1 ext, 2 COOP (PROOUT), +10 PAW based schemes


 Dipole corrections
   LMONO  =      F    monopole corrections only (constant potential shift)
   LDIPOL =      F    correct potential (dipole corrections)
   IDIPOL =      0    1-x, 2-y, 3-z, 4-all directions 
   EPSILON=  1.0000000 bulk dielectric constant

 Exchange correlation treatment:
   GGA     =    --    GGA type
   LEXCH   =     8    internal setting for exchange type
   VOSKOWN=      0    Vosko Wilk Nusair interpolation
   LHFCALC =     F    Hartree Fock is set to
   LHFONE  =     F    Hartree Fock one center treatment
   AEXX    =    0.0000 exact exchange contribution

 Linear response parameters
   LEPSILON=     F    determine dielectric tensor
   LRPA    =     F    only Hartree local field effects (RPA)
   LNABLA  =     F    use nabla operator in PAW spheres
   LVEL    =     F    velocity operator in full k-point grid
   LINTERFAST=   F  fast interpolation
   KINTER  =     0    interpolate to denser k-point grid
   CSHIFT  =0.1000    complex shift for real part using Kramers Kronig
   OMEGAMAX=  -1.0    maximum frequency
   DEG_THRESHOLD= 0.2000000E-02 threshold for treating states as degnerate
   RTIME   =   -0.100 relaxation time in fs
  (WPLASMAI=    0.000 imaginary part of plasma frequency in eV, 0.658/RTIME)
   DFIELD  = 0.0000000 0.0000000 0.0000000 field for delta impulse in time
 
 Orbital magnetization related:
   ORBITALMAG=     F  switch on orbital magnetization
   LCHIMAG   =     F  perturbation theory with respect to B field
   DQ        =  0.001000  dq finite difference perturbation B field
   LLRAUG    =     F  two centre corrections for induced B field



--------------------------------------------------------------------------------------------------------


 Static calculation
 charge density and potential will be updated during run
 non-spin polarized calculation
 Conjugate gradient for all bands (Freysoldt, et al. PRB 79, 241103 (2009))
 preconditioned conjugated gradient                                        
 perform sub-space diagonalisation
    before iterative eigenvector-optimisation
 modified Broyden-mixing scheme, WC =      100.0
 initial mixing is a Kerker type mixing with AMIX =  0.4000 and BMIX =      1.0000
 Hartree-type preconditioning will be used
 using additional bands           22
 reciprocal scheme for non local part
 use partial core corrections
 no Harris-corrections to forces 
 use gradient corrections 
 use of overlap-Matrix (Vanderbilt PP)
 Gauss-broadening in eV      SIGMA  =   0.02


--------------------------------------------------------------------------------------------------------


  energy-cutoff  :      600.00
  volume of cell :      328.78
      direct lattice vectors                 reciprocal lattice vectors
     6.692299665  0.000000000 -3.942223098     0.149425467  0.051646869  0.000000000
    -2.186198531  6.325141167 -3.942223098     0.000000000  0.158099238  0.000000000
     0.000000000  0.000000000  7.767110000     0.075841404  0.106457350  0.128748016

  length of vectors
     7.767110000  7.767110000  7.767110000     0.158099238  0.158099238  0.183469718


 
 k-points in units of 2pi/SCALE and weight: EA                                      
   0.00000000  0.00000000  0.00000000       0.004
   0.02490424  0.00860781  0.00000000       0.016
   0.04980849  0.01721562  0.00000000       0.016
   0.07471273  0.02582343  0.00000000       0.008
   0.02490424  0.03495768  0.00000000       0.008
   0.04980849  0.04356550  0.00000000       0.016
   0.07471273  0.05217331  0.00000000       0.016
  -0.04980849  0.00913425  0.00000000       0.016
  -0.02490424  0.01774206  0.00000000       0.008
   0.04980849  0.06991537  0.00000000       0.008
   0.07471273  0.07852318  0.00000000       0.016
  -0.04980849  0.03548412  0.00000000       0.008
   0.07471273  0.10487305  0.00000000       0.004
   0.01083449  0.01520819  0.01839257       0.008
   0.03573873  0.02381600  0.01839257       0.016
   0.06064298  0.03242382  0.01839257       0.016
   0.08554722  0.04103163  0.01839257       0.016
  -0.03897400 -0.00200743  0.01839257       0.016
  -0.01406976  0.00660038  0.01839257       0.016
   0.03573873  0.05016588  0.01839257       0.008
   0.06064298  0.05877369  0.01839257       0.016
   0.08554722  0.06738150  0.01839257       0.016
  -0.03897400  0.02434244  0.01839257       0.016
  -0.01406976  0.03295025  0.01839257       0.016
   0.06064298  0.08512356  0.01839257       0.008
   0.08554722  0.09373137  0.01839257       0.016
  -0.03897400  0.05069232  0.01839257       0.016
  -0.01406976  0.05930013  0.01839257       0.016
   0.08554722  0.12008125  0.01839257       0.008
  -0.03897400  0.07704219  0.01839257       0.016
  -0.01406976  0.08565000  0.01839257       0.016
  -0.03897400 -0.05470718  0.01839257       0.008
  -0.01406976 -0.04609936  0.01839257       0.016
  -0.01406976 -0.01974949  0.01839257       0.008
   0.02166897  0.03041639  0.03678515       0.008
   0.04657322  0.03902420  0.03678515       0.016
   0.07147746  0.04763201  0.03678515       0.016
   0.09638171  0.05623982  0.03678515       0.016
  -0.02813952  0.01320076  0.03678515       0.016
  -0.00323527  0.02180857  0.03678515       0.016
   0.04657322  0.06537407  0.03678515       0.008
   0.07147746  0.07398188  0.03678515       0.016
   0.09638171  0.08258969  0.03678515       0.016
  -0.02813952  0.03955064  0.03678515       0.016
  -0.00323527  0.04815845  0.03678515       0.016
   0.07147746  0.10033175  0.03678515       0.008
   0.09638171  0.10893957  0.03678515       0.016
  -0.02813952  0.06590051  0.03678515       0.016
  -0.00323527  0.07450832  0.03678515       0.016
   0.09638171  0.13528944  0.03678515       0.008
  -0.02813952  0.09225038  0.03678515       0.016
  -0.00323527  0.10085819  0.03678515       0.016
  -0.02813952 -0.03949898  0.03678515       0.008
  -0.00323527 -0.03089117  0.03678515       0.016
  -0.00323527 -0.00454130  0.03678515       0.008
   0.03250346  0.04562458  0.05517772       0.008
   0.05740770  0.05423239  0.05517772       0.016
   0.08231195  0.06284020  0.05517772       0.016
   0.10721619  0.07144801  0.05517772       0.016
  -0.01730503  0.02840896  0.05517772       0.016
   0.00759921  0.03701677  0.05517772       0.016
   0.05740770  0.08058226  0.05517772       0.008
   0.08231195  0.08919007  0.05517772       0.016
   0.10721619  0.09779789  0.05517772       0.016
  -0.01730503  0.05475883  0.05517772       0.016
   0.00759921  0.06336664  0.05517772       0.016
   0.08231195  0.11553995  0.05517772       0.008
   0.10721619  0.12414776  0.05517772       0.016
  -0.01730503  0.08110870  0.05517772       0.016
   0.00759921  0.08971651  0.05517772       0.016
   0.10721619  0.15049763  0.05517772       0.008
  -0.01730503  0.10745857  0.05517772       0.016
   0.00759921  0.11606639  0.05517772       0.016
  -0.01730503 -0.02429079  0.05517772       0.008
   0.00759921 -0.01568298  0.05517772       0.016
   0.00759921  0.01066689  0.05517772       0.008
 
 k-points in reciprocal lattice and weights: EA                                      
   0.00000000  0.00000000  0.00000000       0.004
   0.16666667  0.00000000  0.00000000       0.016
   0.33333333  0.00000000  0.00000000       0.016
   0.50000000  0.00000000  0.00000000       0.008
   0.16666667  0.16666667  0.00000000       0.008
   0.33333333  0.16666667  0.00000000       0.016
   0.50000000  0.16666667  0.00000000       0.016
  -0.33333333  0.16666667  0.00000000       0.016
  -0.16666667  0.16666667  0.00000000       0.008
   0.33333333  0.33333333  0.00000000       0.008
   0.50000000  0.33333333  0.00000000       0.016
  -0.33333333  0.33333333  0.00000000       0.008
   0.50000000  0.50000000  0.00000000       0.004
  -0.00000000 -0.00000000  0.14285714       0.008
   0.16666667  0.00000000  0.14285714       0.016
   0.33333333  0.00000000  0.14285714       0.016
   0.50000000  0.00000000  0.14285714       0.016
  -0.33333333  0.00000000  0.14285714       0.016
  -0.16666667  0.00000000  0.14285714       0.016
   0.16666667  0.16666667  0.14285714       0.008
   0.33333333  0.16666667  0.14285714       0.016
   0.50000000  0.16666667  0.14285714       0.016
  -0.33333333  0.16666667  0.14285714       0.016
  -0.16666667  0.16666667  0.14285714       0.016
   0.33333333  0.33333333  0.14285714       0.008
   0.50000000  0.33333333  0.14285714       0.016
  -0.33333333  0.33333333  0.14285714       0.016
  -0.16666667  0.33333333  0.14285714       0.016
   0.50000000  0.50000000  0.14285714       0.008
  -0.33333333  0.50000000  0.14285714       0.016
  -0.16666667  0.50000000  0.14285714       0.016
  -0.33333333 -0.33333333  0.14285714       0.008
  -0.16666667 -0.33333333  0.14285714       0.016
  -0.16666667 -0.16666667  0.14285714       0.008
  -0.00000000  0.00000000  0.28571429       0.008
   0.16666667  0.00000000  0.28571429       0.016
   0.33333333  0.00000000  0.28571429       0.016
   0.50000000  0.00000000  0.28571429       0.016
  -0.33333333  0.00000000  0.28571429       0.016
  -0.16666667  0.00000000  0.28571429       0.016
   0.16666667  0.16666667  0.28571429       0.008
   0.33333333  0.16666667  0.28571429       0.016
   0.50000000  0.16666667  0.28571429       0.016
  -0.33333333  0.16666667  0.28571429       0.016
  -0.16666667  0.16666667  0.28571429       0.016
   0.33333333  0.33333333  0.28571429       0.008
   0.50000000  0.33333333  0.28571429       0.016
  -0.33333333  0.33333333  0.28571429       0.016
  -0.16666667  0.33333333  0.28571429       0.016
   0.50000000  0.50000000  0.28571429       0.008
  -0.33333333  0.50000000  0.28571429       0.016
  -0.16666667  0.50000000  0.28571429       0.016
  -0.33333333 -0.33333333  0.28571429       0.008
  -0.16666667 -0.33333333  0.28571429       0.016
  -0.16666667 -0.16666667  0.28571429       0.008
   0.00000000  0.00000000  0.42857143       0.008
   0.16666667  0.00000000  0.42857143       0.016
   0.33333333 -0.00000000  0.42857143       0.016
   0.50000000  0.00000000  0.42857143       0.016
  -0.33333333  0.00000000  0.42857143       0.016
  -0.16666667  0.00000000  0.42857143       0.016
   0.16666667  0.16666667  0.42857143       0.008
   0.33333333  0.16666667  0.42857143       0.016
   0.50000000  0.16666667  0.42857143       0.016
  -0.33333333  0.16666667  0.42857143       0.016
  -0.16666667  0.16666667  0.42857143       0.016
   0.33333333  0.33333333  0.42857143       0.008
   0.50000000  0.33333333  0.42857143       0.016
  -0.33333333  0.33333333  0.42857143       0.016
  -0.16666667  0.33333333  0.42857143       0.016
   0.50000000  0.50000000  0.42857143       0.008
  -0.33333333  0.50000000  0.42857143       0.016
  -0.16666667  0.50000000  0.42857143       0.016
  -0.33333333 -0.33333333  0.42857143       0.008
  -0.16666667 -0.33333333  0.42857143       0.016
  -0.16666667 -0.16666667  0.42857143       0.008
 
 position of ions in fractional coordinates (direct lattice) 
   0.25297000  0.75297000  0.00594000
   0.24703000  0.25297000  0.50000000
   0.75297000  0.74703000  0.50000000
   0.74703000  0.24703000  0.99406000
   0.28099000  0.50734000  0.50000000
   0.00734000  0.78099000  0.50000000
   0.71901000  0.49266000  0.50000000
   0.99266000  0.21901000  0.50000000
   0.78099000  0.28099000  0.77365000
   0.75000000  0.75000000  0.00000000
   0.21901000  0.71901000  0.22635000
   0.25000000  0.25000000  0.00000000
   0.50734000  0.00734000  0.22635000
   0.49266000  0.99266000  0.77365000
   0.49751000  0.31834000  0.50000000
   0.00249000  0.50249000  0.82083000
   0.68166000  0.18166000  0.17917000
   0.31834000  0.81834000  0.82083000
   0.81834000  0.99751000  0.50000000
   0.18166000  0.00249000  0.50000000
   0.99751000  0.49751000  0.17917000
   0.50249000  0.68166000  0.50000000
 
 position of ions in cartesian coordinates  (Angst):
   0.04680914  4.76264154 -3.91950327
   1.10015614  1.60007096  1.91244345
   3.40594499  4.72507021 -2.02977965
   4.45929200  1.56249962  3.80216707
   0.77132332  3.20899712  0.77578227
  -1.65827771  4.93987200  0.77578227
   3.73477781  3.11614405 -0.89311846
   6.16437884  1.38526917 -0.89311846
   4.61231919  1.77730142  1.82246257
   3.37957585  4.74385588 -5.91333465
  -0.10621806  4.54783975 -1.93979876
   1.12652528  1.58128529 -1.97111155
   3.37922461  0.04642654 -0.27089804
   1.12687652  6.27871463  0.15356184
   2.63353157  2.01354544  0.66729229
  -1.08187907  3.17832019  4.38473308
   4.16472816  1.14902514 -2.01176695
   0.34137297  5.17611602  1.89443075
   3.29582161  6.30939157 -3.27493081
   1.21027952  0.01574960  3.15759462
   5.58798021  3.14682098 -4.50206928
   1.87256957  4.31159573 -0.78462848
 


--------------------------------------------------------------------------------------------------------


 k-point   1 :   0.0000 0.0000 0.0000  plane waves:   10971
 k-point   2 :   0.1667 0.0000 0.0000  plane waves:   10996
 k-point   3 :   0.3333 0.0000 0.0000  plane waves:   10982
 k-point   4 :   0.5000 0.0000 0.0000  plane waves:   10968
 k-point   5 :   0.1667 0.1667 0.0000  plane waves:   10993
 k-point   6 :   0.3333 0.1667 0.0000  plane waves:   10971
 k-point   7 :   0.5000 0.1667 0.0000  plane waves:   10974
 k-point   8 :  -0.3333 0.1667 0.0000  plane waves:   10988
 k-point   9 :  -0.1667 0.1667 0.0000  plane waves:   10984
 k-point  10 :   0.3333 0.3333 0.0000  plane waves:   10971
 k-point  11 :   0.5000 0.3333 0.0000  plane waves:   10961
 k-point  12 :  -0.3333 0.3333 0.0000  plane waves:   10968
 k-point  13 :   0.5000 0.5000 0.0000  plane waves:   10986
 k-point  14 :  -0.0000-0.0000 0.1429  plane waves:   10974
 k-point  15 :   0.1667 0.0000 0.1429  plane waves:   10981
 k-point  16 :   0.3333 0.0000 0.1429  plane waves:   10967
 k-point  17 :   0.5000 0.0000 0.1429  plane waves:   10968
 k-point  18 :  -0.3333 0.0000 0.1429  plane waves:   10994
 k-point  19 :  -0.1667 0.0000 0.1429  plane waves:   10995
 k-point  20 :   0.1667 0.1667 0.1429  plane waves:   10968
 k-point  21 :   0.3333 0.1667 0.1429  plane waves:   10961
 k-point  22 :   0.5000 0.1667 0.1429  plane waves:   10969
 k-point  23 :  -0.3333 0.1667 0.1429  plane waves:   10976
 k-point  24 :  -0.1667 0.1667 0.1429  plane waves:   10982
 k-point  25 :   0.3333 0.3333 0.1429  plane waves:   10948
 k-point  26 :   0.5000 0.3333 0.1429  plane waves:   10970
 k-point  27 :  -0.3333 0.3333 0.1429  plane waves:   10960
 k-point  28 :  -0.1667 0.3333 0.1429  plane waves:   10965
 k-point  29 :   0.5000 0.5000 0.1429  plane waves:   10934
 k-point  30 :  -0.3333 0.5000 0.1429  plane waves:   10959
 k-point  31 :  -0.1667 0.5000 0.1429  plane waves:   10966
 k-point  32 :  -0.3333-0.3333 0.1429  plane waves:   10965
 k-point  33 :  -0.1667-0.3333 0.1429  plane waves:   10987
 k-point  34 :  -0.1667-0.1667 0.1429  plane waves:   11038
 k-point  35 :  -0.0000 0.0000 0.2857  plane waves:   10984
 k-point  36 :   0.1667 0.0000 0.2857  plane waves:   10976
 k-point  37 :   0.3333 0.0000 0.2857  plane waves:   10971
 k-point  38 :   0.5000 0.0000 0.2857  plane waves:   10968
 k-point  39 :  -0.3333 0.0000 0.2857  plane waves:   10984
 k-point  40 :  -0.1667 0.0000 0.2857  plane waves:   10983
 k-point  41 :   0.1667 0.1667 0.2857  plane waves:   10948
 k-point  42 :   0.3333 0.1667 0.2857  plane waves:   10964
 k-point  43 :   0.5000 0.1667 0.2857  plane waves:   10973
 k-point  44 :  -0.3333 0.1667 0.2857  plane waves:   10966
 k-point  45 :  -0.1667 0.1667 0.2857  plane waves:   10964
 k-point  46 :   0.3333 0.3333 0.2857  plane waves:   10966
 k-point  47 :   0.5000 0.3333 0.2857  plane waves:   10955
 k-point  48 :  -0.3333 0.3333 0.2857  plane waves:   10971
 k-point  49 :  -0.1667 0.3333 0.2857  plane waves:   10967
 k-point  50 :   0.5000 0.5000 0.2857  plane waves:   10968
 k-point  51 :  -0.3333 0.5000 0.2857  plane waves:   10953
 k-point  52 :  -0.1667 0.5000 0.2857  plane waves:   10960
 k-point  53 :  -0.3333-0.3333 0.2857  plane waves:   10979
 k-point  54 :  -0.1667-0.3333 0.2857  plane waves:   11002
 k-point  55 :  -0.1667-0.1667 0.2857  plane waves:   11013
 k-point  56 :   0.0000 0.0000 0.4286  plane waves:   10972
 k-point  57 :   0.1667 0.0000 0.4286  plane waves:   10953
 k-point  58 :   0.3333-0.0000 0.4286  plane waves:   10975
 k-point  59 :   0.5000 0.0000 0.4286  plane waves:   10962
 k-point  60 :  -0.3333 0.0000 0.4286  plane waves:   10967
 k-point  61 :  -0.1667 0.0000 0.4286  plane waves:   10979
 k-point  62 :   0.1667 0.1667 0.4286  plane waves:   10964
 k-point  63 :   0.3333 0.1667 0.4286  plane waves:   10964
 k-point  64 :   0.5000 0.1667 0.4286  plane waves:   10965
 k-point  65 :  -0.3333 0.1667 0.4286  plane waves:   10969
 k-point  66 :  -0.1667 0.1667 0.4286  plane waves:   10951
 k-point  67 :   0.3333 0.3333 0.4286  plane waves:   10970
 k-point  68 :   0.5000 0.3333 0.4286  plane waves:   10958
 k-point  69 :  -0.3333 0.3333 0.4286  plane waves:   10966
 k-point  70 :  -0.1667 0.3333 0.4286  plane waves:   10952
 k-point  71 :   0.5000 0.5000 0.4286  plane waves:   10918
 k-point  72 :  -0.3333 0.5000 0.4286  plane waves:   10950
 k-point  73 :  -0.1667 0.5000 0.4286  plane waves:   10958
 k-point  74 :  -0.3333-0.3333 0.4286  plane waves:   10974
 k-point  75 :  -0.1667-0.3333 0.4286  plane waves:   10973
 k-point  76 :  -0.1667-0.1667 0.4286  plane waves:   10989

 maximum and minimum number of plane-waves per node :      5534     5434

 maximum number of plane-waves:     11038
 maximum index in each direction: 
   IXMAX=   15   IYMAX=   15   IZMAX=   15
   IXMIN=  -16   IYMIN=  -16   IZMIN=  -15


 parallel 3D FFT for wavefunctions:
    minimum data exchange during FFTs selected (reduces bandwidth)
 parallel 3D FFT for charge:
    minimum data exchange during FFTs selected (reduces bandwidth)


 total amount of memory used by VASP MPI-rank0   658859. kBytes
=======================================================================

   base      :      30000. kBytes
   nonl-proj :     183374. kBytes
   fftplans  :      30128. kBytes
   grid      :      22603. kBytes
   one-center:        171. kBytes
   wavefun   :     392583. kBytes
 
     INWAV:  cpu time    0.0001: real time    0.0001
 Broyden mixing: mesh for mixing (old mesh)
   NGX = 31   NGY = 31   NGZ = 31
  (NGX  =128   NGY  =128   NGZ  =128)
  gives a total of  29791 points

 initial charge density was supplied:
 charge density of overlapping atoms calculated
 number of electron     184.0000000 magnetization 
 keeping initial charge density in first step


--------------------------------------------------------------------------------------------------------


 Maximum index for augmentation-charges        25839 (set IRDMAX)


--------------------------------------------------------------------------------------------------------


 First call to EWALD:  gamma=   0.257
 Maximum number of real-space cells 3x 3x 3
 Maximum number of reciprocal cells 3x 3x 3

    FEWALD:  cpu time    0.0168: real time    0.0170


--------------------------------------- Iteration      1(   1)  ---------------------------------------


    POTLOK:  cpu time    0.3253: real time    0.3284
    SETDIJ:  cpu time    0.8242: real time    0.8317
    TRIAL :  cpu time   96.4325: real time   97.4688
    CORREC:  cpu time    0.0021: real time    0.0021
    --------------------------------------------
      LOOP:  cpu time   97.8224: real time   98.8825

 eigenvalue-minimisations  : 18240
 total energy-change (2. order) : 0.1906062E+04  (-0.1223701E+05)
 number of electron     184.0000000 magnetization 
 augmentation part      184.0000000 magnetization 

 Free energy of the ion-electron system (eV)
  ---------------------------------------------------
  alpha Z        PSCENC =       825.69229911
  Ewald energy   TEWEN  =    -14456.58540849
  -Hartree energ DENC   =     -5278.39783904
  -exchange      EXHF   =         0.00000000
  -V(xc)+E(xc)   XCENC  =       768.10615121
  PAW double counting   =     15694.68100054   -15575.96297609
  entropy T*S    EENTRO =        -0.00111062
  eigenvalues    EBANDS =       196.49359579
  atomic energy  EATOM  =     19732.03608709
  ---------------------------------------------------
  free energy    TOTEN  =      1906.06179950 eV

  energy without entropy =     1906.06291013  energy(sigma->0) =     1906.06235481


--------------------------------------------------------------------------------------------------------




--------------------------------------- Iteration      1(   2)  ---------------------------------------


    TRIAL :  cpu time  102.5756: real time  103.6527
    CORREC:  cpu time    0.0023: real time    0.0023
    --------------------------------------------
      LOOP:  cpu time  102.5812: real time  103.6587

 eigenvalue-minimisations  : 19140
 total energy-change (2. order) :-0.2217723E+04  (-0.2157649E+04)
 number of electron     184.0000000 magnetization 
 augmentation part      184.0000000 magnetization 

 Free energy of the ion-electron system (eV)
  ---------------------------------------------------
  alpha Z        PSCENC =       825.69229911
  Ewald energy   TEWEN  =    -14456.58540849
  -Hartree energ DENC   =     -5278.39783904
  -exchange      EXHF   =         0.00000000
  -V(xc)+E(xc)   XCENC  =       768.10615121
  PAW double counting   =     15694.68100054   -15575.96297609
  entropy T*S    EENTRO =        -0.00264806
  eigenvalues    EBANDS =     -2021.22745858
  atomic energy  EATOM  =     19732.03608709
  ---------------------------------------------------
  free energy    TOTEN  =      -311.66079231 eV

  energy without entropy =     -311.65814425  energy(sigma->0) =     -311.65946828


--------------------------------------------------------------------------------------------------------




--------------------------------------- Iteration      1(   3)  ---------------------------------------


    TRIAL :  cpu time  106.7259: real time  107.8829
    CORREC:  cpu time    0.0022: real time    0.0022
    --------------------------------------------
      LOOP:  cpu time  106.7323: real time  107.8896

 eigenvalue-minimisations  : 22176
 total energy-change (2. order) :-0.1013406E+03  (-0.9675632E+02)
 number of electron     184.0000000 magnetization 
 augmentation part      184.0000000 magnetization 

 Free energy of the ion-electron system (eV)
  ---------------------------------------------------
  alpha Z        PSCENC =       825.69229911
  Ewald energy   TEWEN  =    -14456.58540849
  -Hartree energ DENC   =     -5278.39783904
  -exchange      EXHF   =         0.00000000
  -V(xc)+E(xc)   XCENC  =       768.10615121
  PAW double counting   =     15694.68100054   -15575.96297609
  entropy T*S    EENTRO =        -0.00198416
  eigenvalues    EBANDS =     -2122.56872815
  atomic energy  EATOM  =     19732.03608709
  ---------------------------------------------------
  free energy    TOTEN  =      -413.00139797 eV

  energy without entropy =     -412.99941381  energy(sigma->0) =     -413.00040589


--------------------------------------------------------------------------------------------------------




--------------------------------------- Iteration      1(   4)  ---------------------------------------


    TRIAL :  cpu time  107.0386: real time  108.1760
    CORREC:  cpu time    0.0022: real time    0.0022
    --------------------------------------------
      LOOP:  cpu time  107.0429: real time  108.1810

 eigenvalue-minimisations  : 20940
 total energy-change (2. order) :-0.2803590E+01  (-0.2750897E+01)
 number of electron     184.0000000 magnetization 
 augmentation part      184.0000000 magnetization 

 Free energy of the ion-electron system (eV)
  ---------------------------------------------------
  alpha Z        PSCENC =       825.69229911
  Ewald energy   TEWEN  =    -14456.58540849
  -Hartree energ DENC   =     -5278.39783904
  -exchange      EXHF   =         0.00000000
  -V(xc)+E(xc)   XCENC  =       768.10615121
  PAW double counting   =     15694.68100054   -15575.96297609
  entropy T*S    EENTRO =        -0.00190025
  eigenvalues    EBANDS =     -2125.37240190
  atomic energy  EATOM  =     19732.03608709
  ---------------------------------------------------
  free energy    TOTEN  =      -415.80498781 eV

  energy without entropy =     -415.80308756  energy(sigma->0) =     -415.80403769


--------------------------------------------------------------------------------------------------------




--------------------------------------- Iteration      1(   5)  ---------------------------------------


    TRIAL :  cpu time  105.3033: real time  106.4489
    CORREC:  cpu time    0.0024: real time    0.0024
    CHARGE:  cpu time    6.1329: real time    6.1959
    --------------------------------------------
      LOOP:  cpu time  111.4391: real time  112.6499

 eigenvalue-minimisations  : 21696
 total energy-change (2. order) :-0.6789923E-01  (-0.6767352E-01)
 number of electron     184.0000002 magnetization 
 augmentation part       19.7534473 magnetization 

 Free energy of the ion-electron system (eV)
  ---------------------------------------------------
  alpha Z        PSCENC =       825.69229911
  Ewald energy   TEWEN  =    -14456.58540849
  -Hartree energ DENC   =     -5278.39783904
  -exchange      EXHF   =         0.00000000
  -V(xc)+E(xc)   XCENC  =       768.10615121
  PAW double counting   =     15694.68100054   -15575.96297609
  entropy T*S    EENTRO =        -0.00189920
  eigenvalues    EBANDS =     -2125.44030217
  atomic energy  EATOM  =     19732.03608709
  ---------------------------------------------------
  free energy    TOTEN  =      -415.87288704 eV

  energy without entropy =     -415.87098784  energy(sigma->0) =     -415.87193744


--------------------------------------------------------------------------------------------------------




--------------------------------------- Iteration      1(   6)  ---------------------------------------


    POTLOK:  cpu time    0.3782: real time    0.3809
    SETDIJ:  cpu time    0.7899: real time    0.7976
    TRIAL :  cpu time   84.3035: real time   85.2664
    CORREC:  cpu time   28.6071: real time   28.8829
    CHARGE:  cpu time    6.6764: real time    6.7362
    --------------------------------------------
      LOOP:  cpu time  120.7567: real time  122.0661

 eigenvalue-minimisations  :     0
 total energy-change (2. order) : 0.1847312E+03  (-0.4739923E+02)
 number of electron     184.0000000 magnetization 
 augmentation part       21.3363145 magnetization 

 Free energy of the ion-electron system (eV)
  ---------------------------------------------------
  alpha Z        PSCENC =       825.69229911
  Ewald energy   TEWEN  =    -14456.58540849
  -Hartree energ DENC   =     -4855.40742665
  -exchange      EXHF   =         0.00000000
  -V(xc)+E(xc)   XCENC  =       774.20864257
  PAW double counting   =     30429.88548209   -30373.49195815
  entropy T*S    EENTRO =        -0.00269134
  eigenvalues    EBANDS =     -2307.47752837
  atomic energy  EATOM  =     19732.03608709
  ---------------------------------------------------
  free energy    TOTEN  =      -231.14170998 eV

  energy without entropy =     -231.13901863  energy(sigma->0) =     -231.14036430


--------------------------------------------------------------------------------------------------------




--------------------------------------- Iteration      1(   7)  ---------------------------------------


    POTLOK:  cpu time    0.2886: real time    0.2908
    SETDIJ:  cpu time    0.8450: real time    0.8531
    TRIAL :  cpu time   95.9160: real time   96.8152
    CORREC:  cpu time   28.9419: real time   29.2199
    CHARGE:  cpu time    7.2338: real time    7.2962
    --------------------------------------------
      LOOP:  cpu time  133.2259: real time  134.4772

 eigenvalue-minimisations  :     0
 total energy-change (2. order) :-0.7932174E+02  (-0.9351257E+01)
 number of electron     184.0000001 magnetization 
 augmentation part       21.9644861 magnetization 

 Free energy of the ion-electron system (eV)
  ---------------------------------------------------
  alpha Z        PSCENC =       825.69229911
  Ewald energy   TEWEN  =    -14456.58540849
  -Hartree energ DENC   =     -4895.19237182
  -exchange      EXHF   =         0.00000000
  -V(xc)+E(xc)   XCENC  =       778.30548817
  PAW double counting   =     29693.39116036   -29628.63328478
  entropy T*S    EENTRO =        -0.00330560
  eigenvalues    EBANDS =     -2359.47472602
  atomic energy  EATOM  =     19732.03608709
  ---------------------------------------------------
  free energy    TOTEN  =      -310.46344771 eV

  energy without entropy =     -310.46014211  energy(sigma->0) =     -310.46179491


--------------------------------------------------------------------------------------------------------




--------------------------------------- Iteration      1(   8)  ---------------------------------------


    POTLOK:  cpu time    0.2970: real time    0.2991
    SETDIJ:  cpu time    0.7978: real time    0.8053
    TRIAL :  cpu time   99.6482: real time  100.5798
    CORREC:  cpu time   28.1956: real time   28.4619
    CHARGE:  cpu time    8.2820: real time    8.3458
    --------------------------------------------
      LOOP:  cpu time  137.2221: real time  138.4940

 eigenvalue-minimisations  :     0
 total energy-change (2. order) :-0.1315980E+02  (-0.3062707E+01)
 number of electron     184.0000001 magnetization 
 augmentation part       22.4274865 magnetization 

 Free energy of the ion-electron system (eV)
  ---------------------------------------------------
  alpha Z        PSCENC =       825.69229911
  Ewald energy   TEWEN  =    -14456.58540849
  -Hartree energ DENC   =     -4950.51638807
  -exchange      EXHF   =         0.00000000
  -V(xc)+E(xc)   XCENC  =       781.29247610
  PAW double counting   =     29353.55741214   -29282.58578060
  entropy T*S    EENTRO =        -0.00354910
  eigenvalues    EBANDS =     -2326.51063766
  atomic energy  EATOM  =     19732.03608709
  ---------------------------------------------------
  free energy    TOTEN  =      -323.62324596 eV

  energy without entropy =     -323.61969686  energy(sigma->0) =     -323.62147141


--------------------------------------------------------------------------------------------------------




--------------------------------------- Iteration      1(   9)  ---------------------------------------


    POTLOK:  cpu time    0.3696: real time    0.3720
    SETDIJ:  cpu time    0.7640: real time    0.7707
    TRIAL :  cpu time   93.9883: real time   95.0256
    CORREC:  cpu time   27.6976: real time   28.0046
    CHARGE:  cpu time    8.3630: real time    8.4319
    --------------------------------------------
      LOOP:  cpu time  131.4894: real time  132.9140

 eigenvalue-minimisations  :     0
 total energy-change (2. order) :-0.3667982E+01  (-0.2387888E+01)
 number of electron     184.0000001 magnetization 
 augmentation part       22.9455365 magnetization 

 Free energy of the ion-electron system (eV)
  ---------------------------------------------------
  alpha Z        PSCENC =       825.69229911
  Ewald energy   TEWEN  =    -14456.58540849
  -Hartree energ DENC   =     -5016.18794821
  -exchange      EXHF   =         0.00000000
  -V(xc)+E(xc)   XCENC  =       784.29147319
  PAW double counting   =     29065.65462499   -28988.72025406
  entropy T*S    EENTRO =        -0.00408960
  eigenvalues    EBANDS =     -2273.46855205
  atomic energy  EATOM  =     19732.03608709
  ---------------------------------------------------
  free energy    TOTEN  =      -327.29122752 eV

  energy without entropy =     -327.28713792  energy(sigma->0) =     -327.28918272


--------------------------------------------------------------------------------------------------------




--------------------------------------- Iteration      1(  10)  ---------------------------------------


    POTLOK:  cpu time    0.2953: real time    0.2975
    SETDIJ:  cpu time    1.1970: real time    1.2078
    TRIAL :  cpu time   95.9699: real time   96.8997
    CORREC:  cpu time   29.7936: real time   30.0773
    CHARGE:  cpu time    7.0022: real time    7.0606
    --------------------------------------------
      LOOP:  cpu time  134.2996: real time  135.5860

 eigenvalue-minimisations  :     0
 total energy-change (2. order) :-0.2365748E+01  (-0.1296964E+01)
 number of electron     184.0000001 magnetization 
 augmentation part       23.2148560 magnetization 

 Free energy of the ion-electron system (eV)
  ---------------------------------------------------
  alpha Z        PSCENC =       825.69229911
  Ewald energy   TEWEN  =    -14456.58540849
  -Hartree energ DENC   =     -5106.57347852
  -exchange      EXHF   =         0.00000000
  -V(xc)+E(xc)   XCENC  =       788.15422222
  PAW double counting   =     28740.42909993   -28656.15248387
  entropy T*S    EENTRO =        -0.00413329
  eigenvalues    EBANDS =     -2196.65322337
  atomic energy  EATOM  =     19732.03608709
  ---------------------------------------------------
  free energy    TOTEN  =      -329.65697549 eV

  energy without entropy =     -329.65284219  energy(sigma->0) =     -329.65490884


--------------------------------------------------------------------------------------------------------




--------------------------------------- Iteration      1(  11)  ---------------------------------------


    POTLOK:  cpu time    0.3039: real time    0.3060
    SETDIJ:  cpu time    0.7957: real time    0.8033
    TRIAL :  cpu time  100.5019: real time  101.4614
    CORREC:  cpu time   28.4013: real time   28.6750
    CHARGE:  cpu time    7.2450: real time    7.3047
    --------------------------------------------
      LOOP:  cpu time  137.2557: real time  138.5589

 eigenvalue-minimisations  :     0
 total energy-change (2. order) :-0.1275951E+01  (-0.6065755E+00)
 number of electron     184.0000001 magnetization 
 augmentation part       23.2497639 magnetization 

 Free energy of the ion-electron system (eV)
  ---------------------------------------------------
  alpha Z        PSCENC =       825.69229911
  Ewald energy   TEWEN  =    -14456.58540849
  -Hartree energ DENC   =     -5162.46257119
  -exchange      EXHF   =         0.00000000
  -V(xc)+E(xc)   XCENC  =       790.39637502
  PAW double counting   =     28572.80643198   -28484.32417004
  entropy T*S    EENTRO =        -0.00400989
  eigenvalues    EBANDS =     -2148.48783660
  atomic energy  EATOM  =     19732.03608709
  ---------------------------------------------------
  free energy    TOTEN  =      -330.93292640 eV

  energy without entropy =     -330.92891651  energy(sigma->0) =     -330.93092145


--------------------------------------------------------------------------------------------------------




--------------------------------------- Iteration      1(  12)  ---------------------------------------


    POTLOK:  cpu time    0.2878: real time    0.2897
    SETDIJ:  cpu time    0.8116: real time    0.8187
    TRIAL :  cpu time  100.2647: real time  101.1484
    CORREC:  cpu time   28.9334: real time   29.2002
    CHARGE:  cpu time    7.9696: real time    8.0299
    --------------------------------------------
      LOOP:  cpu time  138.2836: real time  139.5045

 eigenvalue-minimisations  :     0
 total energy-change (2. order) :-0.5695793E+00  (-0.4010317E+00)
 number of electron     184.0000001 magnetization 
 augmentation part       23.1707906 magnetization 

 Free energy of the ion-electron system (eV)
  ---------------------------------------------------
  alpha Z        PSCENC =       825.69229911
  Ewald energy   TEWEN  =    -14456.58540849
  -Hartree energ DENC   =     -5179.39442490
  -exchange      EXHF   =         0.00000000
  -V(xc)+E(xc)   XCENC  =       790.97733984
  PAW double counting   =     28532.17693016   -28442.36366956
  entropy T*S    EENTRO =        -0.00406797
  eigenvalues    EBANDS =     -2134.03764910
  atomic energy  EATOM  =     19732.03608709
  ---------------------------------------------------
  free energy    TOTEN  =      -331.50250574 eV

  energy without entropy =     -331.49843776  energy(sigma->0) =     -331.50047175


--------------------------------------------------------------------------------------------------------




--------------------------------------- Iteration      1(  13)  ---------------------------------------


    POTLOK:  cpu time    0.3005: real time    0.3028
    SETDIJ:  cpu time    1.2244: real time    1.2327
    TRIAL :  cpu time  101.0775: real time  101.9884
    CORREC:  cpu time   28.6025: real time   28.8638
    CHARGE:  cpu time    7.1331: real time    7.1930
    --------------------------------------------
      LOOP:  cpu time  138.3398: real time  139.5839

 eigenvalue-minimisations  :     0
 total energy-change (2. order) :-0.3916059E+00  (-0.5507876E+00)
 number of electron     184.0000001 magnetization 
 augmentation part       22.9875626 magnetization 

 Free energy of the ion-electron system (eV)
  ---------------------------------------------------
  alpha Z        PSCENC =       825.69229911
  Ewald energy   TEWEN  =    -14456.58540849
  -Hartree energ DENC   =     -5176.30408138
  -exchange      EXHF   =         0.00000000
  -V(xc)+E(xc)   XCENC  =       790.81413063
  PAW double counting   =     28563.25820374   -28473.04664281
  entropy T*S    EENTRO =        -0.00432364
  eigenvalues    EBANDS =     -2137.75463157
  atomic energy  EATOM  =     19732.03608709
  ---------------------------------------------------
  free energy    TOTEN  =      -331.89411164 eV

  energy without entropy =     -331.88978800  energy(sigma->0) =     -331.89194982


--------------------------------------------------------------------------------------------------------




--------------------------------------- Iteration      1(  14)  ---------------------------------------


    POTLOK:  cpu time    0.2975: real time    0.2996
    SETDIJ:  cpu time    0.8055: real time    0.8131
    TRIAL :  cpu time  103.0745: real time  103.9929
    CORREC:  cpu time   27.6494: real time   27.9170
    CHARGE:  cpu time    6.6906: real time    6.7461
    --------------------------------------------
      LOOP:  cpu time  138.5792: real time  139.8316

 eigenvalue-minimisations  :     0
 total energy-change (2. order) :-0.5525300E+00  (-0.4091756E+00)
 number of electron     184.0000001 magnetization 
 augmentation part       22.8474057 magnetization 

 Free energy of the ion-electron system (eV)
  ---------------------------------------------------
  alpha Z        PSCENC =       825.69229911
  Ewald energy   TEWEN  =    -14456.58540849
  -Hartree energ DENC   =     -5154.57144162
  -exchange      EXHF   =         0.00000000
  -V(xc)+E(xc)   XCENC  =       790.07097537
  PAW double counting   =     28686.85597311   -28596.47637740
  entropy T*S    EENTRO =        -0.00442333
  eigenvalues    EBANDS =     -2159.46442518
  atomic energy  EATOM  =     19732.03608709
  ---------------------------------------------------
  free energy    TOTEN  =      -332.44664164 eV

  energy without entropy =     -332.44221831  energy(sigma->0) =     -332.44442998


--------------------------------------------------------------------------------------------------------




--------------------------------------- Iteration      1(  15)  ---------------------------------------


    POTLOK:  cpu time    0.2959: real time    0.2980
    SETDIJ:  cpu time    0.8136: real time    0.8208
    TRIAL :  cpu time  103.3741: real time  104.2897
    CORREC:  cpu time   28.1619: real time   28.4338
    CHARGE:  cpu time    8.3323: real time    8.4023
    --------------------------------------------
      LOOP:  cpu time  140.9788: real time  142.2467

 eigenvalue-minimisations  :     0
 total energy-change (2. order) :-0.4202752E+00  (-0.1592518E+00)
 number of electron     184.0000001 magnetization 
 augmentation part       22.8111006 magnetization 

 Free energy of the ion-electron system (eV)
  ---------------------------------------------------
  alpha Z        PSCENC =       825.69229911
  Ewald energy   TEWEN  =    -14456.58540849
  -Hartree energ DENC   =     -5132.10862965
  -exchange      EXHF   =         0.00000000
  -V(xc)+E(xc)   XCENC  =       789.40387714
  PAW double counting   =     28822.61953256   -28732.09323826
  entropy T*S    EENTRO =        -0.00456387
  eigenvalues    EBANDS =     -2181.82701307
  atomic energy  EATOM  =     19732.03608709
  ---------------------------------------------------
  free energy    TOTEN  =      -332.86691689 eV

  energy without entropy =     -332.86235301  energy(sigma->0) =     -332.86463495


--------------------------------------------------------------------------------------------------------




--------------------------------------- Iteration      1(  16)  ---------------------------------------


    POTLOK:  cpu time    0.2861: real time    0.2882
    SETDIJ:  cpu time    1.8063: real time    1.8176
    TRIAL :  cpu time  100.0021: real time  100.9237
    CORREC:  cpu time   27.4947: real time   27.7536
    CHARGE:  cpu time    7.1023: real time    7.1636
    --------------------------------------------
      LOOP:  cpu time  136.6938: real time  137.9497

 eigenvalue-minimisations  :     0
 total energy-change (2. order) :-0.1681464E+00  (-0.1169783E+00)
 number of electron     184.0000001 magnetization 
 augmentation part       22.8099703 magnetization 

 Free energy of the ion-electron system (eV)
  ---------------------------------------------------
  alpha Z        PSCENC =       825.69229911
  Ewald energy   TEWEN  =    -14456.58540849
  -Hartree energ DENC   =     -5124.36215576
  -exchange      EXHF   =         0.00000000
  -V(xc)+E(xc)   XCENC  =       789.22579966
  PAW double counting   =     28894.73641550   -28803.99939714
  entropy T*S    EENTRO =        -0.00477224
  eigenvalues    EBANDS =     -2189.77413943
  atomic energy  EATOM  =     19732.03608709
  ---------------------------------------------------
  free energy    TOTEN  =      -333.03506332 eV

  energy without entropy =     -333.03029108  energy(sigma->0) =     -333.03267720


--------------------------------------------------------------------------------------------------------




--------------------------------------- Iteration      1(  17)  ---------------------------------------


    POTLOK:  cpu time    0.3456: real time    0.3487
    SETDIJ:  cpu time    0.7827: real time    0.7901
    TRIAL :  cpu time  103.5436: real time  104.4714
    CORREC:  cpu time   27.5777: real time   27.8465
    CHARGE:  cpu time    7.1995: real time    7.2596
    --------------------------------------------
      LOOP:  cpu time  139.4678: real time  140.7363

 eigenvalue-minimisations  :     0
 total energy-change (2. order) :-0.1184073E+00  (-0.1634303E+00)
 number of electron     184.0000001 magnetization 
 augmentation part       22.8253406 magnetization 

 Free energy of the ion-electron system (eV)
  ---------------------------------------------------
  alpha Z        PSCENC =       825.69229911
  Ewald energy   TEWEN  =    -14456.58540849
  -Hartree energ DENC   =     -5123.45919513
  -exchange      EXHF   =         0.00000000
  -V(xc)+E(xc)   XCENC  =       789.25218840
  PAW double counting   =     28962.06774788   -28871.08544100
  entropy T*S    EENTRO =        -0.00502298
  eigenvalues    EBANDS =     -2191.06697627
  atomic energy  EATOM  =     19732.03608709
  ---------------------------------------------------
  free energy    TOTEN  =      -333.15347064 eV

  energy without entropy =     -333.14844766  energy(sigma->0) =     -333.15095915


--------------------------------------------------------------------------------------------------------




--------------------------------------- Iteration      1(  18)  ---------------------------------------


    POTLOK:  cpu time    0.2996: real time    0.3019
    SETDIJ:  cpu time    0.8196: real time    0.8275
    TRIAL :  cpu time  100.0028: real time  100.9200
    CORREC:  cpu time   28.0512: real time   28.3179
    CHARGE:  cpu time    7.3481: real time    7.4078
    --------------------------------------------
      LOOP:  cpu time  136.5401: real time  137.7952

 eigenvalue-minimisations  :     0
 total energy-change (2. order) :-0.1625847E+00  (-0.1252212E+00)
 number of electron     184.0000001 magnetization 
 augmentation part       22.8382699 magnetization 

 Free energy of the ion-electron system (eV)
  ---------------------------------------------------
  alpha Z        PSCENC =       825.69229911
  Ewald energy   TEWEN  =    -14456.58540849
  -Hartree energ DENC   =     -5128.31822951
  -exchange      EXHF   =         0.00000000
  -V(xc)+E(xc)   XCENC  =       789.41175457
  PAW double counting   =     29066.42159362   -28975.25926322
  entropy T*S    EENTRO =        -0.00507661
  eigenvalues    EBANDS =     -2186.70986555
  atomic energy  EATOM  =     19732.03608709
  ---------------------------------------------------
  free energy    TOTEN  =      -333.31605535 eV

  energy without entropy =     -333.31097874  energy(sigma->0) =     -333.31351705


--------------------------------------------------------------------------------------------------------




--------------------------------------- Iteration      1(  19)  ---------------------------------------


    POTLOK:  cpu time    0.2851: real time    0.2871
    SETDIJ:  cpu time    0.8234: real time    0.8308
