<?xml version="1.0" encoding="ISO-8859-1"?>
<modeling>
 <generator>
  <i name="program" type="string">vasp </i>
  <i name="version" type="string">6.2.0  </i>
  <i name="subversion" type="string">18Jan21 (build Jan 05 2022 15:41:44) complex                          parallel </i>
  <i name="platform" type="string">LinuxIFC </i>
  <i name="date" type="string">2025 05 07 </i>
  <i name="time" type="string">20:56:52 </i>
 </generator>
 <incar>
  <i type="string" name="SYSTEM">routine with relax: pwdword</i>
  <i type="string" name="PREC">Acc</i>
  <i type="int" name="IALGO">    38</i>
  <i type="string" name="ALGO">A</i>
  <i type="logical" name="ADDGRID"> T  </i>
  <i type="int" name="ICHARG">     2</i>
  <i type="int" name="NELM">   100</i>
  <i type="int" name="NELMIN">     6</i>
  <i name="EDIFF">      0.00000000</i>
  <i type="int" name="NSW">     0</i>
  <i type="int" name="ISIF">    -1</i>
  <i name="ENCUT">    600.00000000</i>
  <i type="logical" name="LREAL"> F  </i>
  <i type="int" name="ISMEAR">     0</i>
  <i name="SIGMA">      0.02000000</i>
  <i type="logical" name="LASPH"> T  </i>
  <i type="string" name="METAGGA">R2SCAN</i>
  <i type="logical" name="LMIXTAU"> F  </i>
 </incar>
 <primitive_cell>
  <structure name="primitive_cell" >
   <crystal>
    <varray name="basis" >
     <v>       4.92847065       0.00000000      -2.83468312 </v>
     <v>      -1.64901213       4.64441406      -2.83468312 </v>
     <v>       0.00000000       0.00000000       5.68553000 </v>
    </varray>
    <i name="volume">    130.14097666 </i>
    <varray name="rec_basis" >
     <v>       0.20290270       0.07204117       0.00000000 </v>
     <v>       0.00000000       0.21531241       0.00000000 </v>
     <v>       0.10116293       0.14326832       0.17588510 </v>
    </varray>
   </crystal>
   <varray name="positions" >
    <v>       0.00000000       0.50000000       0.50000000 </v>
    <v>       0.50000000       0.00000000       0.50000000 </v>
    <v>       0.74319000       0.24319000       0.98639000 </v>
    <v>       0.75000000       0.25000000       0.50000000 </v>
    <v>       0.25681000       0.75681000       0.01361000 </v>
    <v>       0.25000000       0.75000000       0.50000000 </v>
    <v>       0.24319000       0.25681000       0.50000000 </v>
    <v>       0.75681000       0.74319000       0.50000000 </v>
    <v>       0.25000000       0.25000000       0.00000000 </v>
    <v>       0.75000000       0.75000000       0.00000000 </v>
   </varray>
  </structure>
  <varray name="primitive_index" >
   <v type="int" >        1 </v>
   <v type="int" >        2 </v>
   <v type="int" >        3 </v>
   <v type="int" >        4 </v>
   <v type="int" >        5 </v>
   <v type="int" >        6 </v>
   <v type="int" >        7 </v>
   <v type="int" >        8 </v>
   <v type="int" >        9 </v>
   <v type="int" >       10 </v>
  </varray>
 </primitive_cell>
 <kpoints>
  <generation param="Gamma">
   <v type="int" name="divisions">       8        8        9 </v>
   <v name="usershift">      0.00000000       0.00000000       0.00000000 </v>
   <v name="genvec1">      0.12500000       0.00000000       0.00000000 </v>
   <v name="genvec2">      0.00000000       0.12500000       0.00000000 </v>
   <v name="genvec3">      0.00000000       0.00000000       0.11111111 </v>
   <v name="shift">      0.00000000       0.00000000       0.00000000 </v>
  </generation>
  <varray name="kpointlist" >
   <v>       0.00000000       0.00000000       0.00000000 </v>
   <v>       0.12500000      -0.00000000       0.00000000 </v>
   <v>       0.25000000      -0.00000000       0.00000000 </v>
   <v>       0.37500000       0.00000000       0.00000000 </v>
   <v>       0.50000000      -0.00000000       0.00000000 </v>
   <v>       0.12500000       0.12500000       0.00000000 </v>
   <v>       0.25000000       0.12500000       0.00000000 </v>
   <v>       0.37500000       0.12500000       0.00000000 </v>
   <v>       0.50000000       0.12500000       0.00000000 </v>
   <v>      -0.37500000       0.12500000       0.00000000 </v>
   <v>      -0.25000000       0.12500000       0.00000000 </v>
   <v>      -0.12500000       0.12500000       0.00000000 </v>
   <v>       0.25000000       0.25000000       0.00000000 </v>
   <v>       0.37500000       0.25000000       0.00000000 </v>
   <v>       0.50000000       0.25000000       0.00000000 </v>
   <v>      -0.37500000       0.25000000       0.00000000 </v>
   <v>      -0.25000000       0.25000000       0.00000000 </v>
   <v>       0.37500000       0.37500000       0.00000000 </v>
   <v>       0.50000000       0.37500000       0.00000000 </v>
   <v>      -0.37500000       0.37500000       0.00000000 </v>
   <v>       0.50000000       0.50000000       0.00000000 </v>
   <v>      -0.00000000      -0.00000000       0.11111111 </v>
   <v>       0.12500000      -0.00000000       0.11111111 </v>
   <v>       0.25000000      -0.00000000       0.11111111 </v>
   <v>       0.37500000      -0.00000000       0.11111111 </v>
   <v>       0.50000000      -0.00000000       0.11111111 </v>
   <v>      -0.37500000      -0.00000000       0.11111111 </v>
   <v>      -0.25000000       0.00000000       0.11111111 </v>
   <v>      -0.12500000      -0.00000000       0.11111111 </v>
   <v>       0.12500000       0.12500000       0.11111111 </v>
   <v>       0.25000000       0.12500000       0.11111111 </v>
   <v>       0.37500000       0.12500000       0.11111111 </v>
   <v>       0.50000000       0.12500000       0.11111111 </v>
   <v>      -0.37500000       0.12500000       0.11111111 </v>
   <v>      -0.25000000       0.12500000       0.11111111 </v>
   <v>      -0.12500000       0.12500000       0.11111111 </v>
   <v>       0.25000000       0.25000000       0.11111111 </v>
   <v>       0.37500000       0.25000000       0.11111111 </v>
   <v>       0.50000000       0.25000000       0.11111111 </v>
   <v>      -0.37500000       0.25000000       0.11111111 </v>
   <v>      -0.25000000       0.25000000       0.11111111 </v>
   <v>      -0.12500000       0.25000000       0.11111111 </v>
   <v>       0.37500000       0.37500000       0.11111111 </v>
   <v>       0.50000000       0.37500000       0.11111111 </v>
   <v>      -0.37500000       0.37500000       0.11111111 </v>
   <v>      -0.25000000       0.37500000       0.11111111 </v>
   <v>      -0.12500000       0.37500000       0.11111111 </v>
   <v>       0.50000000       0.50000000       0.11111111 </v>
   <v>      -0.37500000       0.50000000       0.11111111 </v>
   <v>      -0.25000000       0.50000000       0.11111111 </v>
   <v>      -0.12500000       0.50000000       0.11111111 </v>
   <v>      -0.37500000      -0.37500000       0.11111111 </v>
   <v>      -0.25000000      -0.37500000       0.11111111 </v>
   <v>      -0.12500000      -0.37500000       0.11111111 </v>
   <v>      -0.25000000      -0.25000000       0.11111111 </v>
   <v>      -0.12500000      -0.25000000       0.11111111 </v>
   <v>      -0.12500000      -0.12500000       0.11111111 </v>
   <v>       0.00000000      -0.00000000       0.22222222 </v>
   <v>       0.12500000       0.00000000       0.22222222 </v>
   <v>       0.25000000       0.00000000       0.22222222 </v>
   <v>       0.37500000      -0.00000000       0.22222222 </v>
   <v>       0.50000000       0.00000000       0.22222222 </v>
   <v>      -0.37500000      -0.00000000       0.22222222 </v>
   <v>      -0.25000000      -0.00000000       0.22222222 </v>
   <v>      -0.12500000      -0.00000000       0.22222222 </v>
   <v>       0.12500000       0.12500000       0.22222222 </v>
   <v>       0.25000000       0.12500000       0.22222222 </v>
   <v>       0.37500000       0.12500000       0.22222222 </v>
   <v>       0.50000000       0.12500000       0.22222222 </v>
   <v>      -0.37500000       0.12500000       0.22222222 </v>
   <v>      -0.25000000       0.12500000       0.22222222 </v>
   <v>      -0.12500000       0.12500000       0.22222222 </v>
   <v>       0.25000000       0.25000000       0.22222222 </v>
   <v>       0.37500000       0.25000000       0.22222222 </v>
   <v>       0.50000000       0.25000000       0.22222222 </v>
   <v>      -0.37500000       0.25000000       0.22222222 </v>
   <v>      -0.25000000       0.25000000       0.22222222 </v>
   <v>      -0.12500000       0.25000000       0.22222222 </v>
   <v>       0.37500000       0.37500000       0.22222222 </v>
   <v>       0.50000000       0.37500000       0.22222222 </v>
   <v>      -0.37500000       0.37500000       0.22222222 </v>
   <v>      -0.25000000       0.37500000       0.22222222 </v>
   <v>      -0.12500000       0.37500000       0.22222222 </v>
   <v>       0.50000000       0.50000000       0.22222222 </v>
   <v>      -0.37500000       0.50000000       0.22222222 </v>
   <v>      -0.25000000       0.50000000       0.22222222 </v>
   <v>      -0.12500000       0.50000000       0.22222222 </v>
   <v>      -0.37500000      -0.37500000       0.22222222 </v>
   <v>      -0.25000000      -0.37500000       0.22222222 </v>
   <v>      -0.12500000      -0.37500000       0.22222222 </v>
   <v>      -0.25000000      -0.25000000       0.22222222 </v>
   <v>      -0.12500000      -0.25000000       0.22222222 </v>
   <v>      -0.12500000      -0.12500000       0.22222222 </v>
   <v>       0.00000000      -0.00000000       0.33333333 </v>
   <v>       0.12500000      -0.00000000       0.33333333 </v>
   <v>       0.25000000      -0.00000000       0.33333333 </v>
   <v>       0.37500000      -0.00000000       0.33333333 </v>
   <v>       0.50000000      -0.00000000       0.33333333 </v>
   <v>      -0.37500000      -0.00000000       0.33333333 </v>
   <v>      -0.25000000      -0.00000000       0.33333333 </v>
   <v>      -0.12500000      -0.00000000       0.33333333 </v>
   <v>       0.12500000       0.12500000       0.33333333 </v>
   <v>       0.25000000       0.12500000       0.33333333 </v>
   <v>       0.37500000       0.12500000       0.33333333 </v>
   <v>       0.50000000       0.12500000       0.33333333 </v>
   <v>      -0.37500000       0.12500000       0.33333333 </v>
   <v>      -0.25000000       0.12500000       0.33333333 </v>
   <v>      -0.12500000       0.12500000       0.33333333 </v>
   <v>       0.25000000       0.25000000       0.33333333 </v>
   <v>       0.37500000       0.25000000       0.33333333 </v>
   <v>       0.50000000       0.25000000       0.33333333 </v>
   <v>      -0.37500000       0.25000000       0.33333333 </v>
   <v>      -0.25000000       0.25000000       0.33333333 </v>
   <v>      -0.12500000       0.25000000       0.33333333 </v>
   <v>       0.37500000       0.37500000       0.33333333 </v>
   <v>       0.50000000       0.37500000       0.33333333 </v>
   <v>      -0.37500000       0.37500000       0.33333333 </v>
   <v>      -0.25000000       0.37500000       0.33333333 </v>
   <v>      -0.12500000       0.37500000       0.33333333 </v>
   <v>       0.50000000       0.50000000       0.33333333 </v>
   <v>      -0.37500000       0.50000000       0.33333333 </v>
   <v>      -0.25000000       0.50000000       0.33333333 </v>
   <v>      -0.12500000       0.50000000       0.33333333 </v>
   <v>      -0.37500000      -0.37500000       0.33333333 </v>
   <v>      -0.25000000      -0.37500000       0.33333333 </v>
   <v>      -0.12500000      -0.37500000       0.33333333 </v>
   <v>      -0.25000000      -0.25000000       0.33333333 </v>
   <v>      -0.12500000      -0.25000000       0.33333333 </v>
   <v>      -0.12500000      -0.12500000       0.33333333 </v>
   <v>       0.00000000      -0.00000000       0.44444444 </v>
   <v>       0.12500000      -0.00000000       0.44444444 </v>
   <v>       0.25000000       0.00000000       0.44444444 </v>
   <v>       0.37500000      -0.00000000       0.44444444 </v>
   <v>       0.50000000       0.00000000       0.44444444 </v>
   <v>      -0.37500000      -0.00000000       0.44444444 </v>
   <v>      -0.25000000      -0.00000000       0.44444444 </v>
   <v>      -0.12500000      -0.00000000       0.44444444 </v>
   <v>       0.12500000       0.12500000       0.44444444 </v>
   <v>       0.25000000       0.12500000       0.44444444 </v>
   <v>       0.37500000       0.12500000       0.44444444 </v>
   <v>       0.50000000       0.12500000       0.44444444 </v>
   <v>      -0.37500000       0.12500000       0.44444444 </v>
   <v>      -0.25000000       0.12500000       0.44444444 </v>
   <v>      -0.12500000       0.12500000       0.44444444 </v>
   <v>       0.25000000       0.25000000       0.44444444 </v>
   <v>       0.37500000       0.25000000       0.44444444 </v>
   <v>       0.50000000       0.25000000       0.44444444 </v>
   <v>      -0.37500000       0.25000000       0.44444444 </v>
   <v>      -0.25000000       0.25000000       0.44444444 </v>
   <v>      -0.12500000       0.25000000       0.44444444 </v>
   <v>       0.37500000       0.37500000       0.44444444 </v>
   <v>       0.50000000       0.37500000       0.44444444 </v>
   <v>      -0.37500000       0.37500000       0.44444444 </v>
   <v>      -0.25000000       0.37500000       0.44444444 </v>
   <v>      -0.12500000       0.37500000       0.44444444 </v>
   <v>       0.50000000       0.50000000       0.44444444 </v>
   <v>      -0.37500000       0.50000000       0.44444444 </v>
   <v>      -0.25000000       0.50000000       0.44444444 </v>
   <v>      -0.12500000       0.50000000       0.44444444 </v>
   <v>      -0.37500000      -0.37500000       0.44444444 </v>
   <v>      -0.25000000      -0.37500000       0.44444444 </v>
   <v>      -0.12500000      -0.37500000       0.44444444 </v>
   <v>      -0.25000000      -0.25000000       0.44444444 </v>
   <v>      -0.12500000      -0.25000000       0.44444444 </v>
   <v>      -0.12500000      -0.12500000       0.44444444 </v>
  </varray>
  <varray name="weights" >
   <v>       0.00173611 </v>
   <v>       0.00694444 </v>
   <v>       0.00694444 </v>
   <v>       0.00694444 </v>
   <v>       0.00347222 </v>
   <v>       0.00347222 </v>
   <v>       0.00694444 </v>
   <v>       0.00694444 </v>
   <v>       0.00694444 </v>
   <v>       0.00694444 </v>
   <v>       0.00694444 </v>
   <v>       0.00347222 </v>
   <v>       0.00347222 </v>
   <v>       0.00694444 </v>
   <v>       0.00694444 </v>
   <v>       0.00694444 </v>
   <v>       0.00347222 </v>
   <v>       0.00347222 </v>
   <v>       0.00694444 </v>
   <v>       0.00347222 </v>
   <v>       0.00173611 </v>
   <v>       0.00347222 </v>
   <v>       0.00694444 </v>
   <v>       0.00694444 </v>
   <v>       0.00694444 </v>
   <v>       0.00694444 </v>
   <v>       0.00694444 </v>
   <v>       0.00694444 </v>
   <v>       0.00694444 </v>
   <v>       0.00347222 </v>
   <v>       0.00694444 </v>
   <v>       0.00694444 </v>
   <v>       0.00694444 </v>
   <v>       0.00694444 </v>
   <v>       0.00694444 </v>
   <v>       0.00694444 </v>
   <v>       0.00347222 </v>
   <v>       0.00694444 </v>
   <v>       0.00694444 </v>
   <v>       0.00694444 </v>
   <v>       0.00694444 </v>
   <v>       0.00694444 </v>
   <v>       0.00347222 </v>
   <v>       0.00694444 </v>
   <v>       0.00694444 </v>
   <v>       0.00694444 </v>
   <v>       0.00694444 </v>
   <v>       0.00347222 </v>
   <v>       0.00694444 </v>
   <v>       0.00694444 </v>
   <v>       0.00694444 </v>
   <v>       0.00347222 </v>
   <v>       0.00694444 </v>
   <v>       0.00694444 </v>
   <v>       0.00347222 </v>
   <v>       0.00694444 </v>
   <v>       0.00347222 </v>
   <v>       0.00347222 </v>
   <v>       0.00694444 </v>
   <v>       0.00694444 </v>
   <v>       0.00694444 </v>
   <v>       0.00694444 </v>
   <v>       0.00694444 </v>
   <v>       0.00694444 </v>
   <v>       0.00694444 </v>
   <v>       0.00347222 </v>
   <v>       0.00694444 </v>
   <v>       0.00694444 </v>
   <v>       0.00694444 </v>
   <v>       0.00694444 </v>
   <v>       0.00694444 </v>
   <v>       0.00694444 </v>
   <v>       0.00347222 </v>
   <v>       0.00694444 </v>
   <v>       0.00694444 </v>
   <v>       0.00694444 </v>
   <v>       0.00694444 </v>
   <v>       0.00694444 </v>
   <v>       0.00347222 </v>
   <v>       0.00694444 </v>
   <v>       0.00694444 </v>
   <v>       0.00694444 </v>
   <v>       0.00694444 </v>
   <v>       0.00347222 </v>
   <v>       0.00694444 </v>
   <v>       0.00694444 </v>
   <v>       0.00694444 </v>
   <v>       0.00347222 </v>
   <v>       0.00694444 </v>
   <v>       0.00694444 </v>
   <v>       0.00347222 </v>
   <v>       0.00694444 </v>
   <v>       0.00347222 </v>
   <v>       0.00347222 </v>
   <v>       0.00694444 </v>
   <v>       0.00694444 </v>
   <v>       0.00694444 </v>
   <v>       0.00694444 </v>
   <v>       0.00694444 </v>
   <v>       0.00694444 </v>
   <v>       0.00694444 </v>
   <v>       0.00347222 </v>
   <v>       0.00694444 </v>
   <v>       0.00694444 </v>
   <v>       0.00694444 </v>
   <v>       0.00694444 </v>
   <v>       0.00694444 </v>
   <v>       0.00694444 </v>
   <v>       0.00347222 </v>
   <v>       0.00694444 </v>
   <v>       0.00694444 </v>
   <v>       0.00694444 </v>
   <v>       0.00694444 </v>
   <v>       0.00694444 </v>
   <v>       0.00347222 </v>
   <v>       0.00694444 </v>
   <v>       0.00694444 </v>
   <v>       0.00694444 </v>
   <v>       0.00694444 </v>
   <v>       0.00347222 </v>
   <v>       0.00694444 </v>
   <v>       0.00694444 </v>
   <v>       0.00694444 </v>
   <v>       0.00347222 </v>
   <v>       0.00694444 </v>
   <v>       0.00694444 </v>
   <v>       0.00347222 </v>
   <v>       0.00694444 </v>
   <v>       0.00347222 </v>
   <v>       0.00347222 </v>
   <v>       0.00694444 </v>
   <v>       0.00694444 </v>
   <v>       0.00694444 </v>
   <v>       0.00694444 </v>
   <v>       0.00694444 </v>
   <v>       0.00694444 </v>
   <v>       0.00694444 </v>
   <v>       0.00347222 </v>
   <v>       0.00694444 </v>
   <v>       0.00694444 </v>
   <v>       0.00694444 </v>
   <v>       0.00694444 </v>
   <v>       0.00694444 </v>
   <v>       0.00694444 </v>
   <v>       0.00347222 </v>
   <v>       0.00694444 </v>
   <v>       0.00694444 </v>
   <v>       0.00694444 </v>
   <v>       0.00694444 </v>
   <v>       0.00694444 </v>
   <v>       0.00347222 </v>
   <v>       0.00694444 </v>
   <v>       0.00694444 </v>
   <v>       0.00694444 </v>
   <v>       0.00694444 </v>
   <v>       0.00347222 </v>
   <v>       0.00694444 </v>
   <v>       0.00694444 </v>
   <v>       0.00694444 </v>
   <v>       0.00347222 </v>
   <v>       0.00694444 </v>
   <v>       0.00694444 </v>
   <v>       0.00347222 </v>
   <v>       0.00694444 </v>
   <v>       0.00347222 </v>
  </varray>
 </kpoints>
 <parameters>
  <separator name="general" >
   <i type="string" name="SYSTEM">routine with relax: pwdword</i>
   <i type="logical" name="LCOMPAT"> F  </i>
  </separator>
  <separator name="electronic" >
   <i type="string" name="PREC">acc</i>
   <i name="ENMAX">    600.00000000</i>
   <i name="ENAUG">    535.51400000</i>
   <i name="EDIFF">      0.00000000</i>
   <i type="int" name="IALGO">    58</i>
   <i type="int" name="IWAVPR">    10</i>
   <i type="int" name="NBANDS">    60</i>
   <i type="int" name="NBANDSLOW">    -1</i>
   <i type="int" name="NBANDSHIGH">    -1</i>
   <i name="NELECT">     98.00000000</i>
   <i type="int" name="TURBO">     0</i>
   <i type="int" name="IRESTART">     0</i>
   <i type="int" name="NREBOOT">     0</i>
   <i type="int" name="NMIN">     0</i>
   <i name="EREF">      0.00000000</i>
   <separator name="electronic smearing" >
    <i type="int" name="ISMEAR">     0</i>
    <i name="SIGMA">      0.02000000</i>
    <i name="KSPACING">      0.50000000</i>
    <i type="logical" name="KGAMMA"> T  </i>
    <i type="logical" name="KBLOWUP"> F  </i>
   </separator>
   <separator name="electronic projectors" >
    <i type="logical" name="LREAL"> F  </i>
    <v name="ROPT">      0.00000000      0.00000000      0.00000000</v>
    <i type="int" name="LMAXPAW">  -100</i>
    <i type="int" name="LMAXMIX">     2</i>
    <i type="logical" name="NLSPLINE"> F  </i>
   </separator>
   <separator name="electronic startup" >
    <i type="int" name="ISTART">     0</i>
    <i type="int" name="ICHARG">     2</i>
    <i type="int" name="INIWAV">     1</i>
   </separator>
   <separator name="electronic spin" >
    <i type="int" name="ISPIN">     1</i>
    <i type="logical" name="LNONCOLLINEAR"> F  </i>
    <v name="MAGMOM">      1.00000000      1.00000000      1.00000000      1.00000000      1.00000000      1.00000000      1.00000000      1.00000000      1.00000000      1.00000000</v>
    <i name="NUPDOWN">     -1.00000000</i>
    <i type="logical" name="LSORBIT"> F  </i>
    <v name="SAXIS">      0.00000000      0.00000000      1.00000000</v>
    <i type="logical" name="LSPIRAL"> F  </i>
    <v name="QSPIRAL">      0.00000000      0.00000000      0.00000000</v>
    <i type="logical" name="LZEROZ"> F  </i>
   </separator>
   <separator name="electronic exchange-correlation" >
    <i type="logical" name="LASPH"> T  </i>
    <i type="logical" name="LMETAGGA"> F  </i>
   </separator>
   <separator name="electronic convergence" >
    <i type="int" name="NELM">   100</i>
    <i type="int" name="NELMDL">    -5</i>
    <i type="int" name="NELMIN">     6</i>
    <i name="ENINI">    600.00000000</i>
    <separator name="electronic convergence detail" >
     <i type="logical" name="LDIAG"> T  </i>
     <i type="logical" name="LSUBROT"> F  </i>
     <i name="WEIMIN">      0.00000000</i>
     <i name="EBREAK">      0.00000000</i>
     <i name="DEPER">      0.30000000</i>
     <i type="int" name="NRMM">     4</i>
     <i name="TIME">      0.40000000</i>
    </separator>
   </separator>
   <separator name="electronic mixer" >
    <i name="AMIX">      0.40000000</i>
    <i name="BMIX">      1.00000000</i>
    <i name="AMIN">      0.10000000</i>
    <i name="AMIX_MAG">      1.60000000</i>
    <i name="BMIX_MAG">      1.00000000</i>
    <separator name="electronic mixer details" >
     <i type="int" name="IMIX">     4</i>
     <i type="logical" name="MIXFIRST"> F  </i>
     <i type="int" name="MAXMIX">   -45</i>
     <i name="WC">    100.00000000</i>
     <i type="int" name="INIMIX">     1</i>
     <i type="int" name="MIXPRE">     1</i>
     <i type="int" name="MREMOVE">     5</i>
    </separator>
   </separator>
   <separator name="electronic dipolcorrection" >
    <i type="logical" name="LDIPOL"> F  </i>
    <i type="logical" name="LMONO"> F  </i>
    <i type="int" name="IDIPOL">     0</i>
    <i name="EPSILON">      1.00000000</i>
    <v name="DIPOL">   -100.00000000   -100.00000000   -100.00000000</v>
    <i name="EFIELD">      0.00000000</i>
   </separator>
  </separator>
  <separator name="grids" >
   <i type="int" name="NGX">    48</i>
   <i type="int" name="NGY">    48</i>
   <i type="int" name="NGZ">    48</i>
   <i type="int" name="NGXF">    96</i>
   <i type="int" name="NGYF">    96</i>
   <i type="int" name="NGZF">    96</i>
   <i type="logical" name="ADDGRID"> T  </i>
  </separator>
  <separator name="ionic" >
   <i type="int" name="NSW">     0</i>
   <i type="int" name="IBRION">    -1</i>
   <i type="int" name="MDALGO">     0</i>
   <i type="int" name="ISIF">    -1</i>
   <i name="PSTRESS">      0.00000000</i>
   <i name="EDIFFG">      0.00000001</i>
   <i type="int" name="NFREE">     0</i>
   <i name="POTIM">      0.50000000</i>
   <i name="SMASS">     -3.00000000</i>
   <i name="SCALEE">      1.00000000</i>
  </separator>
  <separator name="ionic md" >
   <i name="TEBEG">      0.00010000</i>
   <i name="TEEND">      0.00010000</i>
   <i type="int" name="NBLOCK">     1</i>
   <i type="int" name="KBLOCK">     1</i>
   <i type="int" name="NPACO">   256</i>
   <i name="APACO">     16.00000000</i>
  </separator>
  <separator name="symmetry" >
   <i type="int" name="ISYM">     2</i>
   <i name="SYMPREC">      0.00001000</i>
  </separator>
  <separator name="dos" >
   <i type="int" name="LORBIT">     0</i>
   <v name="RWIGS">     -1.00000000     -1.00000000     -1.00000000</v>
   <i type="int" name="NEDOS">   301</i>
   <i name="EMIN">     10.00000000</i>
   <i name="EMAX">    -10.00000000</i>
   <i name="EFERMI">      0.00000000</i>
  </separator>
  <separator name="writing" >
   <i type="int" name="NWRITE">     2</i>
   <i type="logical" name="LWAVE"> T  </i>
   <i type="logical" name="LDOWNSAMPLE"> F  </i>
   <i type="logical" name="LCHARG"> T  </i>
   <i type="logical" name="LPARD"> F  </i>
   <i type="logical" name="LVTOT"> F  </i>
   <i type="logical" name="LVHAR"> F  </i>
   <i type="logical" name="LELF"> F  </i>
   <i type="logical" name="LOPTICS"> F  </i>
   <v name="STM">      0.00000000      0.00000000      0.00000000      0.00000000      0.00000000      0.00000000      0.00000000</v>
  </separator>
  <separator name="performance" >
   <i type="int" name="NPAR">     6</i>
   <i type="int" name="NSIM">     4</i>
   <i type="int" name="NBLK">    -1</i>
   <i type="logical" name="LPLANE"> T  </i>
   <i type="logical" name="LSCALAPACK"> T  </i>
   <i type="logical" name="LSCAAWARE"> F  </i>
   <i type="logical" name="LSCALU"> F  </i>
   <i type="logical" name="LASYNC"> F  </i>
   <i type="logical" name="LORBITALREAL"> F  </i>
  </separator>
  <separator name="miscellaneous" >
   <i type="int" name="IDIOT">     3</i>
   <i type="int" name="PHON_NSTRUCT">    -1</i>
   <i type="logical" name="LMUSIC"> F  </i>
   <v name="POMASS">     10.81100000     95.94000000     28.08500000</v>
   <v name="DARWINR">      0.00000000      0.00000000      0.00000000</v>
   <v name="DARWINV">      1.00000000      1.00000000      1.00000000</v>
   <i type="logical" name="LCORR"> T  </i>
  </separator>
  <i type="logical" name="GGA_COMPAT"> T  </i>
  <i type="logical" name="LBERRY"> F  </i>
  <i type="int" name="ICORELEVEL">     0</i>
  <i type="logical" name="LDAU"> F  </i>
  <i type="int" name="I_CONSTRAINED_M">     0</i>
  <separator name="electronic exchange-correlation" >
   <i type="string" name="GGA">--</i>
   <i type="int" name="VOSKOWN">     0</i>
   <i type="logical" name="LHFCALC"> F  </i>
   <i type="string" name="PRECFOCK"></i>
   <i type="logical" name="LSYMGRAD"> F  </i>
   <i type="logical" name="LHFONE"> F  </i>
   <i type="logical" name="LRHFCALC"> F  </i>
   <i type="logical" name="LTHOMAS"> F  </i>
   <i type="logical" name="LMODELHF"> F  </i>
   <i type="logical" name="LFOCKACE"> F  </i>
   <i name="ENCUT4O">     -1.00000000</i>
   <i type="int" name="EXXOEP">     0</i>
   <i type="int" name="FOURORBIT">     0</i>
   <i name="AEXX">      0.00000000</i>
   <i name="HFALPHA">      0.00000000</i>
   <i name="MCALPHA">      0.00000000</i>
   <i name="ALDAX">      1.00000000</i>
   <i name="AGGAX">      1.00000000</i>
   <i name="ALDAC">      1.00000000</i>
   <i name="AGGAC">      1.00000000</i>
   <i type="int" name="NKREDX">     1</i>
   <i type="int" name="NKREDY">     1</i>
   <i type="int" name="NKREDZ">     1</i>
   <i type="logical" name="SHIFTRED"> F  </i>
   <i type="logical" name="ODDONLY"> F  </i>
   <i type="logical" name="EVENONLY"> F  </i>
   <i type="int" name="LMAXFOCK">     0</i>
   <i type="int" name="NMAXFOCKAE">     0</i>
   <i type="logical" name="LFOCKAEDFT"> F  </i>
   <i name="HFSCREEN">      0.00000000</i>
   <i name="HFSCREENC">      0.00000000</i>
   <i type="int" name="NBANDSGWLOW">     0</i>
  </separator>
  <separator name="vdW DFT" >
   <i type="logical" name="LUSE_VDW"> F  </i>
   <i name="Zab_VDW">     -0.84910000</i>
   <i name="PARAM1">      0.12340000</i>
   <i name="PARAM2">      1.00000000</i>
   <i name="PARAM3">      0.00000000</i>
  </separator>
  <separator name="model GW" >
   <i type="int" name="MODEL_GW">     0</i>
   <i name="MODEL_EPS0">      7.80845860</i>
   <i name="MODEL_ALPHA">      1.00000000</i>
  </separator>
  <separator name="linear response parameters" >
   <i type="logical" name="LEPSILON"> F  </i>
   <i type="logical" name="LRPA"> F  </i>
   <i type="logical" name="LNABLA"> F  </i>
   <i type="logical" name="LVEL"> F  </i>
   <i type="int" name="KINTER">     0</i>
   <i name="CSHIFT">      0.10000000</i>
   <i name="OMEGAMAX">     -1.00000000</i>
   <i name="DEG_THRESHOLD">      0.00200000</i>
   <i name="RTIME">     -0.10000000</i>
   <i name="WPLASMAI">      0.00000000</i>
   <v name="DFIELD">      0.00000000      0.00000000      0.00000000</v>
   <v name="WPLASMA">      0.00000000      0.00000000      0.00000000      0.00000000      0.00000000      0.00000000      0.00000000      0.00000000      0.00000000</v>
  </separator>
  <separator name="orbital magnetization" >
   <i type="logical" name="NUCIND"> F  </i>
   <v name="MAGPOS">      0.00000000      0.00000000      0.00000000</v>
   <i type="logical" name="LNICSALL"> T  </i>
   <i type="logical" name="ORBITALMAG"> F  </i>
   <i type="logical" name="LMAGBLOCH"> F  </i>
   <i type="logical" name="LCHIMAG"> F  </i>
   <i type="logical" name="LGAUGE"> T  </i>
   <i type="int" name="MAGATOM">     0</i>
   <v name="MAGDIPOL">      0.00000000      0.00000000      0.00000000</v>
   <v name="AVECCONST">      0.00000000      0.00000000      0.00000000</v>
  </separator>
  <separator name="response functions" >
   <i type="logical" name="LFINITE_TEMPERATURE"> F  </i>
   <i type="logical" name="LADDER"> F  </i>
   <i type="logical" name="LRPAFORCE"> F  </i>
   <i type="logical" name="LFXC"> F  </i>
   <i type="logical" name="LHARTREE"> T  </i>
   <i type="int" name="IBSE">     0</i>
   <v type="int" name="KPOINT">    -1     0     0     0</v>
   <i type="logical" name="LTCTC"> F  </i>
   <i type="logical" name="LTCTE"> F  </i>
   <i type="logical" name="LTETE"> F  </i>
   <i type="logical" name="LTRIPLET"> F  </i>
   <i type="logical" name="LFXCEPS"> F  </i>
   <i type="logical" name="LFXHEG"> F  </i>
   <i type="int" name="NATURALO">     2</i>
   <i type="logical" name="LHOLEGF"> F  </i>
   <i type="logical" name="L2ORDER"> F  </i>
   <i type="logical" name="LDMP1"> F  </i>
   <i type="logical" name="LMP2LT"> F  </i>
   <i type="logical" name="LSMP2LT"> F  </i>
   <i type="logical" name="LGWLF"> F  </i>
   <i name="ENCUTGW">     -2.00000000</i>
   <i name="ENCUTGWSOFT">     -2.00000000</i>
   <i name="ENCUTLF">     -1.00000000</i>
   <i type="logical" name="LESF_SPLINES"> F  </i>
   <i type="int" name="LMAXMP2">    -1</i>
   <i name="SCISSOR">      0.00000000</i>
   <i type="int" name="NOMEGA">     0</i>
   <i type="int" name="NOMEGAR">     0</i>
   <i type="int" name="NBANDSGW">    -1</i>
   <i type="int" name="NBANDSO">    -1</i>
   <i type="int" name="NBANDSV">    -1</i>
   <i type="int" name="NELM">   100</i>
   <i type="int" name="NELMHF">     1</i>
   <i type="int" name="DIM">     3</i>
   <i type="int" name="IESPILON">     4</i>
   <i type="int" name="ANTIRES">     0</i>
   <i name="OMEGAMAX">    -30.00000000</i>
   <i name="OMEGAMIN">    -30.00000000</i>
   <i name="OMEGATL">   -200.00000000</i>
   <i type="int" name="OMEGAGRID">     0</i>
   <i name="CSHIFT">     -0.10000000</i>
   <i type="logical" name="LSELFENERGY"> F  </i>
   <i type="logical" name="LSPECTRAL"> F  </i>
   <i type="logical" name="LSPECTRALGW"> F  </i>
   <i type="logical" name="LSINGLES"> F  </i>
   <i type="logical" name="LFERMIGW"> F  </i>
   <i type="logical" name="ODDONLYGW"> F  </i>
   <i type="logical" name="EVENONLYGW"> F  </i>
   <i type="int" name="NKREDLFX">     1</i>
   <i type="int" name="NKREDLFY">     1</i>
   <i type="int" name="NKREDLFZ">     1</i>
   <i type="int" name="MAXMEM">  2800</i>
   <i type="int" name="TELESCOPE">     0</i>
   <i type="int" name="NTAUPAR">    -1</i>
   <i type="int" name="NOMEGAPAR">    -1</i>
   <i name="DAMP_NEWTON">      0.80000001</i>
   <i name="LAMBDA">      1.00000000</i>
  </separator>
  <separator name="External order field" >
   <i name="OFIELD_KAPPA">      0.00000000</i>
   <v name="OFIELD_K">      0.00000000      0.00000000      0.00000000</v>
   <i name="OFIELD_Q6_NEAR">      0.00000000</i>
   <i name="OFIELD_Q6_FAR">      0.00000000</i>
   <i name="OFIELD_A">      0.00000000</i>
  </separator>
 </parameters>
 <atominfo>
  <atoms>      10 </atoms>
  <types>       3 </types>
  <array name="atoms" >
   <dimension dim="1">ion</dimension>
   <field type="string">element</field>
   <field type="int">atomtype</field>
   <set>
    <rc><c>B </c><c>   1</c></rc>
    <rc><c>B </c><c>   1</c></rc>
    <rc><c>Mo</c><c>   2</c></rc>
    <rc><c>Mo</c><c>   2</c></rc>
    <rc><c>Mo</c><c>   2</c></rc>
    <rc><c>Mo</c><c>   2</c></rc>
    <rc><c>Mo</c><c>   2</c></rc>
    <rc><c>Mo</c><c>   2</c></rc>
    <rc><c>Si</c><c>   3</c></rc>
    <rc><c>Si</c><c>   3</c></rc>
   </set>
  </array>
  <array name="atomtypes" >
   <dimension dim="1">type</dimension>
   <field type="int">atomspertype</field>
   <field type="string">element</field>
   <field>mass</field>
   <field>valence</field>
   <field type="string">pseudopotential</field>
   <set>
    <rc><c>   2</c><c>B </c><c>     10.81100000</c><c>      3.00000000</c><c>  PAW_PBE B 06Sep2000                   </c></rc>
    <rc><c>   6</c><c>Mo</c><c>     95.94000000</c><c>     14.00000000</c><c>  PAW_PBE Mo_sv 02Feb2006               </c></rc>
    <rc><c>   2</c><c>Si</c><c>     28.08500000</c><c>      4.00000000</c><c>  PAW_PBE Si 05Jan2001                  </c></rc>
   </set>
  </array>
 </atominfo>
 <structure name="initialpos" >
  <crystal>
   <varray name="basis" >
    <v>       4.92847065       0.00000000      -2.83468312 </v>
    <v>      -1.64901213       4.64441406      -2.83468312 </v>
    <v>       0.00000000       0.00000000       5.68553000 </v>
   </varray>
   <i name="volume">    130.14097666 </i>
   <varray name="rec_basis" >
    <v>       0.20290270       0.07204117       0.00000000 </v>
    <v>       0.00000000       0.21531241       0.00000000 </v>
    <v>       0.10116293       0.14326832       0.17588510 </v>
   </varray>
  </crystal>
  <varray name="positions" >
   <v>       0.00000000       0.50000000       0.50000000 </v>
   <v>       0.50000000       0.00000000       0.50000000 </v>
   <v>       0.74319000       0.24319000       0.98639000 </v>
   <v>       0.75000000       0.25000000       0.50000000 </v>
   <v>       0.25681000       0.75681000       0.01361000 </v>
   <v>       0.25000000       0.75000000       0.50000000 </v>
   <v>       0.24319000       0.25681000       0.50000000 </v>
   <v>       0.75681000       0.74319000       0.50000000 </v>
   <v>       0.25000000       0.25000000       0.00000000 </v>
   <v>       0.75000000       0.75000000       0.00000000 </v>
  </varray>
 </structure>
 <calculation>
  <scstep>
   <time name="total">   22.95   23.17</time>
   <energy>
    <i name="alphaZ">    641.95342466 </i>
    <i name="ewald">  -9532.06572696 </i>
    <i name="hartreedc">  -2353.06992746 </i>
    <i name="XCdc">    471.24303505 </i>
    <i name="pawpsdc">   9166.97638771 </i>
    <i name="pawaedc">  -9126.13493418 </i>
    <i name="eentropy">     -0.00067171 </i>
    <i name="bandstr">    313.17849809 </i>
    <i name="atom">  11522.16744521 </i>
    <i name="e_fr_energy">   1104.24753042 </i>
    <i name="e_wo_entrp">   1104.24820212 </i>
    <i name="e_0_energy">   1104.24786627 </i>
   </energy>
  </scstep>
  <scstep>
   <time name="total">   23.67   23.90</time>
   <energy>
    <i name="e_fr_energy">   -180.15773333 </i>
    <i name="e_wo_entrp">   -180.15694424 </i>
    <i name="e_0_energy">   -180.15733879 </i>
   </energy>
  </scstep>
  <scstep>
   <time name="total">   25.11   25.43</time>
   <energy>
    <i name="e_fr_energy">   -232.43486264 </i>
    <i name="e_wo_entrp">   -232.43417492 </i>
    <i name="e_0_energy">   -232.43451878 </i>
   </energy>
  </scstep>
  <scstep>
   <time name="total">   24.02   24.28</time>
   <energy>
    <i name="e_fr_energy">   -233.27093351 </i>
    <i name="e_wo_entrp">   -233.26989115 </i>
    <i name="e_0_energy">   -233.27041233 </i>
   </energy>
  </scstep>
  <scstep>
   <time name="total">   27.74   28.00</time>
   <energy>
    <i name="e_fr_energy">   -233.28920422 </i>
    <i name="e_wo_entrp">   -233.28815563 </i>
    <i name="e_0_energy">   -233.28867992 </i>
   </energy>
  </scstep>
  <scstep>
   <time name="total">   25.77   26.00</time>
   <energy>
    <i name="e_fr_energy">   -158.74805059 </i>
    <i name="e_wo_entrp">   -158.74666783 </i>
    <i name="e_0_energy">   -158.74735921 </i>
   </energy>
  </scstep>
  <scstep>
   <time name="total">   26.68   26.90</time>
   <energy>
    <i name="e_fr_energy">   -179.85856880 </i>
    <i name="e_wo_entrp">   -179.85710872 </i>
    <i name="e_0_energy">   -179.85783876 </i>
   </energy>
  </scstep>
  <scstep>
   <time name="total">   26.28   26.53</time>
   <energy>
    <i name="e_fr_energy">   -183.51599871 </i>
    <i name="e_wo_entrp">   -183.51434387 </i>
    <i name="e_0_energy">   -183.51517129 </i>
   </energy>
  </scstep>
  <scstep>
   <time name="total">   26.15   26.39</time>
   <energy>
    <i name="e_fr_energy">   -184.49606618 </i>
    <i name="e_wo_entrp">   -184.49431177 </i>
    <i name="e_0_energy">   -184.49518897 </i>
   </energy>
  </scstep>
  <scstep>
   <time name="total">   26.28   26.50</time>
   <energy>
    <i name="e_fr_energy">   -184.83273917 </i>
    <i name="e_wo_entrp">   -184.83078408 </i>
    <i name="e_0_energy">   -184.83176162 </i>
   </energy>
  </scstep>
  <scstep>
   <time name="total">   26.38   26.61</time>
   <energy>
    <i name="e_fr_energy">   -184.94020067 </i>
    <i name="e_wo_entrp">   -184.93835669 </i>
    <i name="e_0_energy">   -184.93927868 </i>
   </energy>
  </scstep>
  <scstep>
   <time name="total">   26.36   26.59</time>
   <energy>
    <i name="e_fr_energy">   -184.97909657 </i>
    <i name="e_wo_entrp">   -184.97733315 </i>
    <i name="e_0_energy">   -184.97821486 </i>
   </energy>
  </scstep>
  <scstep>
   <time name="total">   26.50   26.72</time>
   <energy>
    <i name="e_fr_energy">   -184.99334562 </i>
    <i name="e_wo_entrp">   -184.99166836 </i>
    <i name="e_0_energy">   -184.99250699 </i>
   </energy>
  </scstep>
  <scstep>
   <time name="total">   26.36   26.59</time>
   <energy>
    <i name="e_fr_energy">   -185.00181936 </i>
    <i name="e_wo_entrp">   -185.00014170 </i>
    <i name="e_0_energy">   -185.00098053 </i>
   </energy>
  </scstep>
  <scstep>
   <time name="total">   26.04   26.28</time>
   <energy>
    <i name="e_fr_energy">   -185.00611341 </i>
    <i name="e_wo_entrp">   -185.00442308 </i>
    <i name="e_0_energy">   -185.00526824 </i>
   </energy>
  </scstep>
  <scstep>
   <time name="total">   26.06   26.29</time>
   <energy>
    <i name="e_fr_energy">   -185.00795207 </i>
    <i name="e_wo_entrp">   -185.00624040 </i>
    <i name="e_0_energy">   -185.00709624 </i>
   </energy>
  </scstep>
  <scstep>
   <time name="total">   26.35   26.60</time>
   <energy>
    <i name="e_fr_energy">   -185.00852428 </i>
    <i name="e_wo_entrp">   -185.00681111 </i>
    <i name="e_0_energy">   -185.00766769 </i>
   </energy>
  </scstep>
  <scstep>
   <time name="total">   26.42   26.65</time>
   <energy>
    <i name="e_fr_energy">   -185.00879797 </i>
    <i name="e_wo_entrp">   -185.00707665 </i>
    <i name="e_0_energy">   -185.00793731 </i>
   </energy>
  </scstep>
  <scstep>
   <time name="total">   26.17   26.42</time>
   <energy>
    <i name="e_fr_energy">   -185.00893441 </i>
    <i name="e_wo_entrp">   -185.00721269 </i>
    <i name="e_0_energy">   -185.00807355 </i>
   </energy>
  </scstep>
  <scstep>
   <time name="total">   26.83   27.12</time>
   <energy>
    <i name="e_fr_energy">   -185.00898592 </i>
    <i name="e_wo_entrp">   -185.00726147 </i>
    <i name="e_0_energy">   -185.00812370 </i>
   </energy>
  </scstep>
  <scstep>
   <time name="total">   27.16   27.38</time>
   <energy>
    <i name="e_fr_energy">   -185.00900449 </i>
    <i name="e_wo_entrp">   -185.00728163 </i>
    <i name="e_0_energy">   -185.00814306 </i>
   </energy>
  </scstep>
  <scstep>
   <time name="total">   26.12   26.34</time>
   <energy>
    <i name="e_fr_energy">   -185.00901389 </i>
    <i name="e_wo_entrp">   -185.00729083 </i>
    <i name="e_0_energy">   -185.00815236 </i>
   </energy>
  </scstep>
  <scstep>
   <time name="total">   26.63   26.85</time>
   <energy>
    <i name="e_fr_energy">   -185.00901849 </i>
    <i name="e_wo_entrp">   -185.00729629 </i>
    <i name="e_0_energy">   -185.00815739 </i>
   </energy>
  </scstep>
  <scstep>
   <time name="total">   26.72   26.93</time>
   <energy>
    <i name="e_fr_energy">   -185.00902025 </i>
    <i name="e_wo_entrp">   -185.00729807 </i>
    <i name="e_0_energy">   -185.00815916 </i>
   </energy>
  </scstep>
  <scstep>
   <time name="total">   25.97   26.19</time>
   <energy>
    <i name="e_fr_energy">   -185.00902093 </i>
    <i name="e_wo_entrp">   -185.00729910 </i>
    <i name="e_0_energy">   -185.00816001 </i>
   </energy>
  </scstep>
  <scstep>
   <time name="total">   26.50   26.74</time>
   <energy>
    <i name="e_fr_energy">   -185.00902126 </i>
    <i name="e_wo_entrp">   -185.00729945 </i>
    <i name="e_0_energy">   -185.00816036 </i>
   </energy>
  </scstep>
  <scstep>
   <time name="total">   26.58   26.80</time>
   <energy>
    <i name="e_fr_energy">   -185.00902138 </i>
    <i name="e_wo_entrp">   -185.00729959 </i>
    <i name="e_0_energy">   -185.00816048 </i>
   </energy>
  </scstep>
  <scstep>
   <time name="total">   26.04   26.28</time>
   <energy>
    <i name="e_fr_energy">   -185.00902144 </i>
    <i name="e_wo_entrp">   -185.00729975 </i>
    <i name="e_0_energy">   -185.00816059 </i>
   </energy>
  </scstep>
  <scstep>
   <time name="total">   26.32   26.56</time>
   <energy>
    <i name="e_fr_energy">   -185.00902142 </i>
    <i name="e_wo_entrp">   -185.00729963 </i>
    <i name="e_0_energy">   -185.00816052 </i>
   </energy>
  </scstep>
  <scstep>
   <time name="total">   26.76   26.97</time>
   <energy>
    <i name="e_fr_energy">   -185.00902145 </i>
    <i name="e_wo_entrp">   -185.00729965 </i>
    <i name="e_0_energy">   -185.00816055 </i>
   </energy>
  </scstep>
  <scstep>
   <time name="total">   26.59   26.81</time>
   <energy>
    <i name="e_fr_energy">   -185.00902146 </i>
    <i name="e_wo_entrp">   -185.00729977 </i>
    <i name="e_0_energy">   -185.00816061 </i>
   </energy>
  </scstep>
  <scstep>
   <time name="total">   26.52   26.74</time>
   <energy>
    <i name="e_fr_energy">   -185.00902145 </i>
    <i name="e_wo_entrp">   -185.00729965 </i>
    <i name="e_0_energy">   -185.00816055 </i>
   </energy>
  </scstep>
  <scstep>
   <time name="total">   26.69   26.91</time>
   <energy>
    <i name="e_fr_energy">   -185.00902149 </i>
    <i name="e_wo_entrp">   -185.00729969 </i>
    <i name="e_0_energy">   -185.00816059 </i>
   </energy>
  </scstep>
  <scstep>
   <time name="total">   30.45   30.71</time>
   <energy>
    <i name="alphaZ">    641.95342466 </i>
    <i name="ewald">  -9532.06572696 </i>
    <i name="hartreedc">  -2228.50346852 </i>
    <i name="XCdc">    480.39439317 </i>
    <i name="pawpsdc">  12960.12255382 </i>
    <i name="pawaedc"> -12940.65778005 </i>
    <i name="eentropy">     -0.00172180 </i>
    <i name="bandstr">  -1088.41814103 </i>
    <i name="atom">  11522.16744521 </i>
    <i name="e_fr_energy">   -185.00902149 </i>
    <i name="e_wo_entrp">   -185.00729969 </i>
    <i name="e_0_energy">   -185.00816059 </i>
   </energy>
  </scstep>
  <structure>
   <crystal>
    <varray name="basis" >
     <v>       4.92847065       0.00000000      -2.83468312 </v>
     <v>      -1.64901213       4.64441406      -2.83468312 </v>
     <v>       0.00000000       0.00000000       5.68553000 </v>
    </varray>
    <i name="volume">    130.14097666 </i>
    <varray name="rec_basis" >
     <v>       0.20290270       0.07204117       0.00000000 </v>
     <v>       0.00000000       0.21531241       0.00000000 </v>
     <v>       0.10116293       0.14326832       0.17588510 </v>
    </varray>
   </crystal>
   <varray name="positions" >
    <v>       0.00000000       0.50000000       0.50000000 </v>
    <v>       0.50000000       0.00000000       0.50000000 </v>
    <v>       0.74319000       0.24319000       0.98639000 </v>
    <v>       0.75000000       0.25000000       0.50000000 </v>
    <v>       0.25681000       0.75681000       0.01361000 </v>
    <v>       0.25000000       0.75000000       0.50000000 </v>
    <v>       0.24319000       0.25681000       0.50000000 </v>
    <v>       0.75681000       0.74319000       0.50000000 </v>
    <v>       0.25000000       0.25000000       0.00000000 </v>
    <v>       0.75000000       0.75000000       0.00000000 </v>
   </varray>
  </structure>
  <varray name="forces" >
   <v>       0.00000000       0.00000000       0.00000000 </v>
   <v>       0.00000000       0.00000000       0.00000000 </v>
   <v>       0.00000000       0.00000000       0.00000000 </v>
   <v>       0.00000000       0.00000000       0.00000000 </v>
   <v>       0.00000000       0.00000000       0.00000000 </v>
   <v>       0.00000000       0.00000000       0.00000000 </v>
   <v>       0.00000000       0.00000000       0.00000000 </v>
   <v>       0.00000000       0.00000000       0.00000000 </v>
   <v>       0.00000000       0.00000000       0.00000000 </v>
   <v>       0.00000000       0.00000000       0.00000000 </v>
  </varray>
  <varray name="stress" >
   <v>       0.00000000       0.00000000       0.00000000 </v>
   <v>       0.00000000       0.00000000       0.00000000 </v>
   <v>       0.00000000       0.00000000       0.00000000 </v>
  </varray>
  <energy>
   <i name="e_fr_energy">   -185.00902149 </i>
   <i name="e_wo_entrp">   -185.00729969 </i>
   <i name="e_0_energy">   -185.00816059 </i>
  </energy>
  <time name="totalsc">  896.65  904.68</time>
  <eigenvalues>
   <array>
    <dimension dim="1">band</dimension>
    <dimension dim="2">kpoint</dimension>
    <dimension dim="3">spin</dimension>
    <field>eigene</field>
    <field>occ</field>
    <set>
     <set comment="spin 1">
      <set comment="kpoint 1">
       <r>  -50.8977    1.0000 </r>
       <r>  -50.7309    1.0000 </r>
       <r>  -50.7297    1.0000 </r>
       <r>  -50.7203    1.0000 </r>
       <r>  -50.6451    1.0000 </r>
       <r>  -50.6388    1.0000 </r>
       <r>  -25.3082    1.0000 </r>
       <r>  -24.7940    1.0000 </r>
       <r>  -24.7899    1.0000 </r>
       <r>  -24.7869    1.0000 </r>
       <r>  -24.5739    1.0000 </r>
       <r>  -24.5627    1.0000 </r>
       <r>  -24.5538    1.0000 </r>
       <r>  -24.0576    1.0000 </r>
       <r>  -24.0569    1.0000 </r>
       <r>  -24.0558    1.0000 </r>
       <r>  -23.8811    1.0000 </r>
       <r>  -23.8650    1.0000 </r>
       <r>  -23.8052    1.0000 </r>
       <r>  -23.8032    1.0000 </r>
       <r>  -23.7959    1.0000 </r>
       <r>  -23.7537    1.0000 </r>
       <r>  -23.7526    1.0000 </r>
       <r>  -23.7424    1.0000 </r>
       <r>    0.3514    1.0000 </r>
       <r>    1.8631    1.0000 </r>
       <r>    2.7064    1.0000 </r>
       <r>    4.7710    1.0000 </r>
       <r>    4.7720    1.0000 </r>
       <r>    4.7730    1.0000 </r>
       <r>    7.2105    1.0000 </r>
       <r>    7.5666    1.0000 </r>
       <r>    7.5710    1.0000 </r>
       <r>    7.5950    1.0000 </r>
       <r>    7.8389    1.0000 </r>
       <r>    7.8504    1.0000 </r>
       <r>    9.1366    1.0000 </r>
       <r>    9.1558    1.0000 </r>
       <r>    9.1652    1.0000 </r>
       <r>   10.4713    1.0000 </r>
       <r>   10.4720    1.0000 </r>
       <r>   10.5135    1.0000 </r>
       <r>   10.5660    1.0000 </r>
       <r>   10.5709    1.0000 </r>
       <r>   10.5732    1.0000 </r>
       <r>   10.5854    1.0000 </r>
       <r>   10.6244    1.0000 </r>
       <r>   10.6314    1.0000 </r>
       <r>   12.3314    0.0000 </r>
       <r>   12.3399    0.0000 </r>
       <r>   12.3511    0.0000 </r>
       <r>   13.2619    0.0000 </r>
       <r>   13.3037    0.0000 </r>
       <r>   13.4102    0.0000 </r>
       <r>   13.4781    0.0000 </r>
       <r>   13.9607    0.0000 </r>
       <r>   14.0255    0.0000 </r>
       <r>   14.0266    0.0000 </r>
       <r>   14.6986    0.0000 </r>
       <r>   16.2008    0.0000 </r>
      </set>
      <set comment="kpoint 2">
       <r>  -50.8914    1.0000 </r>
       <r>  -50.7352    1.0000 </r>
       <r>  -50.7271    1.0000 </r>
       <r>  -50.7190    1.0000 </r>
       <r>  -50.6482    1.0000 </r>
       <r>  -50.6420    1.0000 </r>
       <r>  -25.2752    1.0000 </r>
       <r>  -24.7987    1.0000 </r>
       <r>  -24.7605    1.0000 </r>
       <r>  -24.7570    1.0000 </r>
       <r>  -24.5591    1.0000 </r>
       <r>  -24.5475    1.0000 </r>
       <r>  -24.5383    1.0000 </r>
       <r>  -24.0700    1.0000 </r>
       <r>  -24.0692    1.0000 </r>
       <r>  -24.0463    1.0000 </r>
       <r>  -23.9037    1.0000 </r>
       <r>  -23.8872    1.0000 </r>
       <r>  -23.8452    1.0000 </r>
       <r>  -23.8078    1.0000 </r>
       <r>  -23.8013    1.0000 </r>
       <r>  -23.7684    1.0000 </r>
       <r>  -23.7657    1.0000 </r>
       <r>  -23.7559    1.0000 </r>
       <r>    0.4911    1.0000 </r>
       <r>    1.9667    1.0000 </r>
       <r>    2.7734    1.0000 </r>
       <r>    4.5617    1.0000 </r>
       <r>    4.9267    1.0000 </r>
       <r>    4.9283    1.0000 </r>
       <r>    7.2130    1.0000 </r>
       <r>    7.5277    1.0000 </r>
       <r>    7.6495    1.0000 </r>
       <r>    7.6692    1.0000 </r>
       <r>    7.8325    1.0000 </r>
       <r>    7.8434    1.0000 </r>
       <r>    8.6671    1.0000 </r>
       <r>    8.9551    1.0000 </r>
       <r>    8.9693    1.0000 </r>
       <r>   10.0578    1.0000 </r>
       <r>   10.3177    1.0000 </r>
       <r>   10.3333    1.0000 </r>
       <r>   10.5149    1.0000 </r>
       <r>   10.5355    1.0000 </r>
       <r>   10.7066    1.0000 </r>
       <r>   10.7640    1.0000 </r>
       <r>   10.7692    1.0000 </r>
       <r>   11.0081    1.0000 </r>
       <r>   12.3731    0.0000 </r>
       <r>   12.3952    0.0000 </r>
       <r>   12.4973    0.0000 </r>
       <r>   12.6975    0.0000 </r>
       <r>   12.7173    0.0000 </r>
       <r>   13.2885    0.0000 </r>
       <r>   13.3228    0.0000 </r>
       <r>   13.9637    0.0000 </r>
       <r>   14.7415    0.0000 </r>
       <r>   14.7506    0.0000 </r>
       <r>   14.8781    0.0000 </r>
       <r>   15.4448    0.0000 </r>
      </set>
      <set comment="kpoint 3">
       <r>  -50.8732    1.0000 </r>
       <r>  -50.7530    1.0000 </r>
       <r>  -50.7184    1.0000 </r>
       <r>  -50.7113    1.0000 </r>
       <r>  -50.6570    1.0000 </r>
       <r>  -50.6508    1.0000 </r>
       <r>  -25.1854    1.0000 </r>
       <r>  -24.8253    1.0000 </r>
       <r>  -24.6709    1.0000 </r>
       <r>  -24.6691    1.0000 </r>
       <r>  -24.5166    1.0000 </r>
       <r>  -24.5035    1.0000 </r>
       <r>  -24.4933    1.0000 </r>
       <r>  -24.1092    1.0000 </r>
       <r>  -24.1086    1.0000 </r>
       <r>  -24.0234    1.0000 </r>
       <r>  -23.9857    1.0000 </r>
       <r>  -23.9575    1.0000 </r>
       <r>  -23.9550    1.0000 </r>
       <r>  -23.8172    1.0000 </r>
       <r>  -23.8106    1.0000 </r>
       <r>  -23.7957    1.0000 </r>
       <r>  -23.7911    1.0000 </r>
       <r>  -23.7819    1.0000 </r>
       <r>    0.8931    1.0000 </r>
       <r>    2.2612    1.0000 </r>
       <r>    2.9170    1.0000 </r>
       <r>    4.0279    1.0000 </r>
       <r>    5.3766    1.0000 </r>
       <r>    5.3829    1.0000 </r>
       <r>    7.0344    1.0000 </r>
       <r>    7.3377    1.0000 </r>
       <r>    7.7872    1.0000 </r>
       <r>    7.8048    1.0000 </r>
       <r>    7.8563    1.0000 </r>
       <r>    7.8747    1.0000 </r>
       <r>    8.1337    1.0000 </r>
       <r>    8.6094    1.0000 </r>
       <r>    8.6195    1.0000 </r>
       <r>    9.2572    1.0000 </r>
       <r>    9.8021    1.0000 </r>
       <r>    9.8055    1.0000 </r>
       <r>   10.3126    1.0000 </r>
       <r>   10.3269    1.0000 </r>
       <r>   11.0656    1.0000 </r>
       <r>   11.0902    1.0000 </r>
       <r>   11.1258    1.0000 </r>
       <r>   11.5926    1.0000 </r>
       <r>   11.8725    1.0000 </r>
       <r>   11.8930    1.0000 </r>
       <r>   12.6357    0.0000 </r>
       <r>   12.7657    0.0000 </r>
       <r>   12.7761    0.0000 </r>
       <r>   13.3276    0.0000 </r>
       <r>   13.3422    0.0000 </r>
       <r>   13.9540    0.0000 </r>
       <r>   14.6323    0.0000 </r>
       <r>   15.1195    0.0000 </r>
       <r>   15.2597    0.0000 </r>
       <r>   15.2795    0.0000 </r>
      </set>
      <set comment="kpoint 4">
       <r>  -50.8459    1.0000 </r>
       <r>  -50.7808    1.0000 </r>
       <r>  -50.7057    1.0000 </r>
       <r>  -50.6990    1.0000 </r>
       <r>  -50.6697    1.0000 </r>
       <r>  -50.6636    1.0000 </r>
       <r>  -25.0663    1.0000 </r>
       <r>  -24.8748    1.0000 </r>
       <r>  -24.5448    1.0000 </r>
       <r>  -24.5427    1.0000 </r>
       <r>  -24.4516    1.0000 </r>
       <r>  -24.4390    1.0000 </r>
       <r>  -24.4300    1.0000 </r>
       <r>  -24.1752    1.0000 </r>
       <r>  -24.1712    1.0000 </r>
       <r>  -24.1361    1.0000 </r>
       <r>  -24.0894    1.0000 </r>
       <r>  -24.0799    1.0000 </r>
       <r>  -23.9552    1.0000 </r>
       <r>  -23.8439    1.0000 </r>
       <r>  -23.8256    1.0000 </r>
       <r>  -23.8196    1.0000 </r>
       <r>  -23.8019    1.0000 </r>
       <r>  -23.7954    1.0000 </r>
       <r>    1.5064    1.0000 </r>
       <r>    2.6865    1.0000 </r>
       <r>    2.8574    1.0000 </r>
       <r>    3.4529    1.0000 </r>
       <r>    6.0715    1.0000 </r>
       <r>    6.0870    1.0000 </r>
       <r>    6.6348    1.0000 </r>
       <r>    6.9537    1.0000 </r>
       <r>    7.5755    1.0000 </r>
       <r>    7.6062    1.0000 </r>
       <r>    8.0279    1.0000 </r>
       <r>    8.0382    1.0000 </r>
       <r>    8.1086    1.0000 </r>
       <r>    8.3201    1.0000 </r>
       <r>    8.3260    1.0000 </r>
       <r>    8.6502    1.0000 </r>
       <r>    9.2921    1.0000 </r>
       <r>    9.3026    1.0000 </r>
       <r>    9.9078    1.0000 </r>
       <r>    9.9148    1.0000 </r>
       <r>   11.3700    1.0000 </r>
       <r>   11.3869    1.0000 </r>
       <r>   11.7460    1.0000 </r>
       <r>   11.7906    1.0000 </r>
       <r>   11.8515    1.0000 </r>
       <r>   12.0798    0.0873 </r>
       <r>   12.5905    0.0000 </r>
       <r>   12.7691    0.0000 </r>
       <r>   12.7779    0.0000 </r>
       <r>   13.1209    0.0000 </r>
       <r>   13.1251    0.0000 </r>
       <r>   13.6416    0.0000 </r>
       <r>   14.1298    0.0000 </r>
       <r>   14.9393    0.0000 </r>
       <r>   15.4326    0.0000 </r>
       <r>   15.4744    0.0000 </r>
      </set>
      <set comment="kpoint 5">
       <r>  -50.8138    1.0000 </r>
       <r>  -50.8130    1.0000 </r>
       <r>  -50.6959    1.0000 </r>
       <r>  -50.6893    1.0000 </r>
       <r>  -50.6794    1.0000 </r>
       <r>  -50.6735    1.0000 </r>
       <r>  -24.9551    1.0000 </r>
       <r>  -24.9550    1.0000 </r>
       <r>  -24.4483    1.0000 </r>
       <r>  -24.4443    1.0000 </r>
       <r>  -24.4291    1.0000 </r>
       <r>  -24.4247    1.0000 </r>
       <r>  -24.3085    1.0000 </r>
       <r>  -24.3057    1.0000 </r>
       <r>  -24.2230    1.0000 </r>
       <r>  -24.2182    1.0000 </r>
       <r>  -24.1467    1.0000 </r>
       <r>  -24.1446    1.0000 </r>
       <r>  -23.9011    1.0000 </r>
       <r>  -23.9008    1.0000 </r>
       <r>  -23.8283    1.0000 </r>
       <r>  -23.8231    1.0000 </r>
       <r>  -23.8046    1.0000 </r>
       <r>  -23.7996    1.0000 </r>
       <r>    2.2393    1.0000 </r>
       <r>    2.2399    1.0000 </r>
       <r>    3.1103    1.0000 </r>
       <r>    3.1106    1.0000 </r>
       <r>    6.5810    1.0000 </r>
       <r>    6.5817    1.0000 </r>
       <r>    6.8522    1.0000 </r>
       <r>    6.8542    1.0000 </r>
       <r>    6.9989    1.0000 </r>
       <r>    6.9995    1.0000 </r>
       <r>    8.0836    1.0000 </r>
       <r>    8.0882    1.0000 </r>
       <r>    8.1622    1.0000 </r>
       <r>    8.1671    1.0000 </r>
       <r>    8.3073    1.0000 </r>
       <r>    8.3077    1.0000 </r>
       <r>    9.4405    1.0000 </r>
       <r>    9.4427    1.0000 </r>
       <r>    9.4584    1.0000 </r>
       <r>    9.4606    1.0000 </r>
       <r>   11.5266    1.0000 </r>
       <r>   11.5279    1.0000 </r>
       <r>   11.9167    1.0000 </r>
       <r>   11.9179    1.0000 </r>
       <r>   12.3867    0.0000 </r>
       <r>   12.3884    0.0000 </r>
       <r>   12.6144    0.0000 </r>
       <r>   12.6144    0.0000 </r>
       <r>   12.8046    0.0000 </r>
       <r>   12.8058    0.0000 </r>
       <r>   12.8362    0.0000 </r>
       <r>   12.8396    0.0000 </r>
       <r>   14.5012    0.0000 </r>
       <r>   14.5032    0.0000 </r>
       <r>   15.5855    0.0000 </r>
       <r>   15.6151    0.0000 </r>
      </set>
      <set comment="kpoint 6">
       <r>  -50.8811    1.0000 </r>
       <r>  -50.7391    1.0000 </r>
       <r>  -50.7312    1.0000 </r>
       <r>  -50.7120    1.0000 </r>
       <r>  -50.6521    1.0000 </r>
       <r>  -50.6479    1.0000 </r>
       <r>  -25.2225    1.0000 </r>
       <r>  -24.7906    1.0000 </r>
       <r>  -24.7504    1.0000 </r>
       <r>  -24.6883    1.0000 </r>
       <r>  -24.5461    1.0000 </r>
       <r>  -24.5219    1.0000 </r>
       <r>  -24.5029    1.0000 </r>
       <r>  -24.1032    1.0000 </r>
       <r>  -24.0695    1.0000 </r>
       <r>  -24.0453    1.0000 </r>
       <r>  -23.9551    1.0000 </r>
       <r>  -23.9160    1.0000 </r>
       <r>  -23.8857    1.0000 </r>
       <r>  -23.8355    1.0000 </r>
       <r>  -23.8002    1.0000 </r>
       <r>  -23.7911    1.0000 </r>
       <r>  -23.7826    1.0000 </r>
       <r>  -23.7765    1.0000 </r>
       <r>    0.7186    1.0000 </r>
       <r>    2.1336    1.0000 </r>
       <r>    2.8719    1.0000 </r>
       <r>    4.3491    1.0000 </r>
       <r>    4.9545    1.0000 </r>
       <r>    5.2902    1.0000 </r>
       <r>    7.1972    1.0000 </r>
       <r>    7.5370    1.0000 </r>
       <r>    7.6003    1.0000 </r>
       <r>    7.6482    1.0000 </r>
       <r>    7.8635    1.0000 </r>
       <r>    7.9802    1.0000 </r>
       <r>    8.2939    1.0000 </r>
       <r>    8.4658    1.0000 </r>
       <r>    8.9212    1.0000 </r>
       <r>    9.8101    1.0000 </r>
       <r>    9.8220    1.0000 </r>
       <r>    9.9621    1.0000 </r>
       <r>   10.4460    1.0000 </r>
       <r>   10.4806    1.0000 </r>
       <r>   10.7832    1.0000 </r>
       <r>   11.0183    1.0000 </r>
       <r>   11.0523    1.0000 </r>
       <r>   11.3343    1.0000 </r>
       <r>   11.8777    1.0000 </r>
       <r>   12.3283    0.0000 </r>
       <r>   12.3482    0.0000 </r>
       <r>   12.5047    0.0000 </r>
       <r>   12.9638    0.0000 </r>
       <r>   13.3112    0.0000 </r>
       <r>   13.3563    0.0000 </r>
       <r>   14.3559    0.0000 </r>
       <r>   14.7421    0.0000 </r>
       <r>   15.0163    0.0000 </r>
       <r>   15.1078    0.0000 </r>
       <r>   15.3395    0.0000 </r>
      </set>
      <set comment="kpoint 7">
       <r>  -50.8599    1.0000 </r>
       <r>  -50.7592    1.0000 </r>
       <r>  -50.7256    1.0000 </r>
       <r>  -50.6995    1.0000 </r>
       <r>  -50.6652    1.0000 </r>
       <r>  -50.6550    1.0000 </r>
       <r>  -25.1203    1.0000 </r>
       <r>  -24.8147    1.0000 </r>
       <r>  -24.6711    1.0000 </r>
       <r>  -24.5727    1.0000 </r>
       <r>  -24.5066    1.0000 </r>
       <r>  -24.4752    1.0000 </r>
       <r>  -24.4365    1.0000 </r>
       <r>  -24.1731    1.0000 </r>
       <r>  -24.1145    1.0000 </r>
       <r>  -24.0845    1.0000 </r>
       <r>  -24.0157    1.0000 </r>
       <r>  -23.9867    1.0000 </r>
       <r>  -23.9527    1.0000 </r>
       <r>  -23.8578    1.0000 </r>
       <r>  -23.8248    1.0000 </r>
       <r>  -23.8152    1.0000 </r>
       <r>  -23.8079    1.0000 </r>
       <r>  -23.7961    1.0000 </r>
       <r>    1.1919    1.0000 </r>
       <r>    2.4710    1.0000 </r>
       <r>    2.9974    1.0000 </r>
       <r>    3.8225    1.0000 </r>
       <r>    5.3269    1.0000 </r>
       <r>    5.9123    1.0000 </r>
       <r>    6.9555    1.0000 </r>
       <r>    7.2847    1.0000 </r>
       <r>    7.4524    1.0000 </r>
       <r>    7.6922    1.0000 </r>
       <r>    7.8978    1.0000 </r>
       <r>    8.0230    1.0000 </r>
       <r>    8.1257    1.0000 </r>
       <r>    8.1961    1.0000 </r>
       <r>    8.6686    1.0000 </r>
       <r>    9.1100    1.0000 </r>
       <r>    9.1572    1.0000 </r>
       <r>    9.6076    1.0000 </r>
       <r>   10.2213    1.0000 </r>
       <r>   10.2297    1.0000 </r>
       <r>   11.1362    1.0000 </r>
       <r>   11.1729    1.0000 </r>
       <r>   11.4799    1.0000 </r>
       <r>   11.5693    1.0000 </r>
       <r>   11.7687    1.0000 </r>
       <r>   11.8888    1.0000 </r>
       <r>   12.2847    0.0000 </r>
       <r>   12.7072    0.0000 </r>
       <r>   13.1377    0.0000 </r>
       <r>   13.2683    0.0000 </r>
       <r>   13.4059    0.0000 </r>
       <r>   14.2192    0.0000 </r>
       <r>   14.5067    0.0000 </r>
       <r>   15.2152    0.0000 </r>
       <r>   15.2379    0.0000 </r>
       <r>   15.4482    0.0000 </r>
      </set>
      <set comment="kpoint 8">
       <r>  -50.8310    1.0000 </r>
       <r>  -50.7883    1.0000 </r>
       <r>  -50.7139    1.0000 </r>
       <r>  -50.6892    1.0000 </r>
       <r>  -50.6769    1.0000 </r>
       <r>  -50.6656    1.0000 </r>
       <r>  -24.9997    1.0000 </r>
       <r>  -24.8717    1.0000 </r>
       <r>  -24.5456    1.0000 </r>
       <r>  -24.4503    1.0000 </r>
       <r>  -24.4383    1.0000 </r>
       <r>  -24.4235    1.0000 </r>
       <r>  -24.3654    1.0000 </r>
       <r>  -24.2745    1.0000 </r>
       <r>  -24.2368    1.0000 </r>
       <r>  -24.1433    1.0000 </r>
       <r>  -24.1281    1.0000 </r>
       <r>  -24.0526    1.0000 </r>
       <r>  -23.9404    1.0000 </r>
       <r>  -23.8671    1.0000 </r>
       <r>  -23.8653    1.0000 </r>
       <r>  -23.8369    1.0000 </r>
       <r>  -23.8221    1.0000 </r>
       <r>  -23.7991    1.0000 </r>
       <r>    1.8500    1.0000 </r>
       <r>    2.7767    1.0000 </r>
       <r>    2.8986    1.0000 </r>
       <r>    3.3379    1.0000 </r>
       <r>    5.9852    1.0000 </r>
       <r>    6.6120    1.0000 </r>
       <r>    6.7102    1.0000 </r>
       <r>    6.8467    1.0000 </r>
       <r>    7.0794    1.0000 </r>
       <r>    7.6223    1.0000 </r>
       <r>    7.8622    1.0000 </r>
       <r>    7.9227    1.0000 </r>
       <r>    8.0597    1.0000 </r>
       <r>    8.1250    1.0000 </r>
       <r>    8.3981    1.0000 </r>
       <r>    8.5754    1.0000 </r>
       <r>    9.0495    1.0000 </r>
       <r>    9.4826    1.0000 </r>
       <r>    9.7841    1.0000 </r>
       <r>    9.8140    1.0000 </r>
       <r>   11.2621    1.0000 </r>
       <r>   11.3825    1.0000 </r>
       <r>   11.7406    1.0000 </r>
       <r>   11.8341    1.0000 </r>
       <r>   11.9590    1.0000 </r>
       <r>   12.1286    0.0000 </r>
       <r>   12.2986    0.0000 </r>
       <r>   12.8589    0.0000 </r>
       <r>   12.9604    0.0000 </r>
       <r>   13.1232    0.0000 </r>
       <r>   13.2889    0.0000 </r>
       <r>   13.3186    0.0000 </r>
       <r>   14.5911    0.0000 </r>
       <r>   14.9395    0.0000 </r>
       <r>   15.3048    0.0000 </r>
       <r>   15.4900    0.0000 </r>
      </set>
      <set comment="kpoint 9">
       <r>  -50.8206    1.0000 </r>
       <r>  -50.7987    1.0000 </r>
       <r>  -50.7028    1.0000 </r>
       <r>  -50.6977    1.0000 </r>
       <r>  -50.6826    1.0000 </r>
       <r>  -50.6628    1.0000 </r>
       <r>  -24.9627    1.0000 </r>
       <r>  -24.8966    1.0000 </r>
       <r>  -24.4898    1.0000 </r>
       <r>  -24.4585    1.0000 </r>
       <r>  -24.4297    1.0000 </r>
       <r>  -24.3856    1.0000 </r>
       <r>  -24.3617    1.0000 </r>
       <r>  -24.2745    1.0000 </r>
       <r>  -24.2530    1.0000 </r>
       <r>  -24.2183    1.0000 </r>
       <r>  -24.1146    1.0000 </r>
       <r>  -24.0862    1.0000 </r>
       <r>  -23.9255    1.0000 </r>
       <r>  -23.8862    1.0000 </r>
       <r>  -23.8599    1.0000 </r>
       <r>  -23.8384    1.0000 </r>
       <r>  -23.8293    1.0000 </r>
       <r>  -23.7959    1.0000 </r>
       <r>    2.0848    1.0000 </r>
       <r>    2.5775    1.0000 </r>
       <r>    3.0158    1.0000 </r>
       <r>    3.2715    1.0000 </r>
       <r>    6.3411    1.0000 </r>
       <r>    6.5150    1.0000 </r>
       <r>    6.6671    1.0000 </r>
       <r>    6.7456    1.0000 </r>
       <r>    6.9870    1.0000 </r>
       <r>    7.5435    1.0000 </r>
       <r>    7.8372    1.0000 </r>
       <r>    7.9592    1.0000 </r>
       <r>    8.0960    1.0000 </r>
       <r>    8.1986    1.0000 </r>
       <r>    8.2597    1.0000 </r>
       <r>    8.4094    1.0000 </r>
       <r>    9.2590    1.0000 </r>
       <r>    9.4754    1.0000 </r>
       <r>    9.5865    1.0000 </r>
       <r>    9.7184    1.0000 </r>
       <r>   11.2546    1.0000 </r>
       <r>   11.3643    1.0000 </r>
       <r>   11.7541    1.0000 </r>
       <r>   11.9543    1.0000 </r>
       <r>   12.0585    0.5585 </r>
       <r>   12.2575    0.0000 </r>
       <r>   12.3802    0.0000 </r>
       <r>   12.6880    0.0000 </r>
       <r>   13.0532    0.0000 </r>
       <r>   13.0724    0.0000 </r>
       <r>   13.1521    0.0000 </r>
       <r>   13.1784    0.0000 </r>
       <r>   14.5525    0.0000 </r>
       <r>   14.8834    0.0000 </r>
       <r>   15.1374    0.0000 </r>
       <r>   15.6868    0.0000 </r>
      </set>
      <set comment="kpoint 10">
       <r>  -50.8511    1.0000 </r>
       <r>  -50.7678    1.0000 </r>
       <r>  -50.7138    1.0000 </r>
       <r>  -50.7029    1.0000 </r>
       <r>  -50.6785    1.0000 </r>
       <r>  -50.6504    1.0000 </r>
       <r>  -25.0800    1.0000 </r>
       <r>  -24.8269    1.0000 </r>
       <r>  -24.6197    1.0000 </r>
       <r>  -24.5447    1.0000 </r>
       <r>  -24.5060    1.0000 </r>
       <r>  -24.4351    1.0000 </r>
       <r>  -24.4146    1.0000 </r>
       <r>  -24.1773    1.0000 </r>
       <r>  -24.1556    1.0000 </r>
       <r>  -24.1316    1.0000 </r>
       <r>  -24.0429    1.0000 </r>
       <r>  -24.0072    1.0000 </r>
       <r>  -23.9689    1.0000 </r>
       <r>  -23.8482    1.0000 </r>
       <r>  -23.8427    1.0000 </r>
       <r>  -23.8288    1.0000 </r>
       <r>  -23.8277    1.0000 </r>
       <r>  -23.7823    1.0000 </r>
       <r>    1.3900    1.0000 </r>
       <r>    2.5998    1.0000 </r>
       <r>    3.0041    1.0000 </r>
       <r>    3.6835    1.0000 </r>
       <r>    5.6159    1.0000 </r>
       <r>    5.9532    1.0000 </r>
       <r>    6.8778    1.0000 </r>
       <r>    7.0234    1.0000 </r>
       <r>    7.3229    1.0000 </r>
       <r>    7.8671    1.0000 </r>
       <r>    7.9639    1.0000 </r>
       <r>    8.0279    1.0000 </r>
       <r>    8.0933    1.0000 </r>
       <r>    8.1961    1.0000 </r>
       <r>    8.4482    1.0000 </r>
       <r>    8.9003    1.0000 </r>
       <r>    9.0573    1.0000 </r>
       <r>    9.5114    1.0000 </r>
       <r>   10.1075    1.0000 </r>
       <r>   10.1254    1.0000 </r>
       <r>   11.1529    1.0000 </r>
       <r>   11.2262    1.0000 </r>
       <r>   11.4318    1.0000 </r>
       <r>   11.5821    1.0000 </r>
       <r>   11.9361    1.0000 </r>
       <r>   12.0718    0.2147 </r>
       <r>   12.1343    0.0000 </r>
       <r>   13.0026    0.0000 </r>
       <r>   13.0286    0.0000 </r>
       <r>   13.2471    0.0000 </r>
       <r>   13.3404    0.0000 </r>
       <r>   13.9890    0.0000 </r>
       <r>   14.3297    0.0000 </r>
       <r>   14.9769    0.0000 </r>
       <r>   15.2315    0.0000 </r>
       <r>   15.5776    0.0000 </r>
      </set>
      <set comment="kpoint 11">
       <r>  -50.8752    1.0000 </r>
       <r>  -50.7435    1.0000 </r>
       <r>  -50.7233    1.0000 </r>
       <r>  -50.7153    1.0000 </r>
       <r>  -50.6647    1.0000 </r>
       <r>  -50.6417    1.0000 </r>
       <r>  -25.1921    1.0000 </r>
       <r>  -24.7860    1.0000 </r>
       <r>  -24.7219    1.0000 </r>
       <r>  -24.6714    1.0000 </r>
       <r>  -24.5495    1.0000 </r>
       <r>  -24.4991    1.0000 </r>
       <r>  -24.4794    1.0000 </r>
       <r>  -24.1054    1.0000 </r>
       <r>  -24.0882    1.0000 </r>
       <r>  -24.0417    1.0000 </r>
       <r>  -24.0017    1.0000 </r>
       <r>  -23.9319    1.0000 </r>
       <r>  -23.8948    1.0000 </r>
       <r>  -23.8292    1.0000 </r>
       <r>  -23.8207    1.0000 </r>
       <r>  -23.8163    1.0000 </r>
       <r>  -23.8118    1.0000 </r>
       <r>  -23.7561    1.0000 </r>
       <r>    0.8492    1.0000 </r>
       <r>    2.2252    1.0000 </r>
       <r>    2.9301    1.0000 </r>
       <r>    4.3036    1.0000 </r>
       <r>    5.0993    1.0000 </r>
       <r>    5.2780    1.0000 </r>
       <r>    7.1997    1.0000 </r>
       <r>    7.3715    1.0000 </r>
       <r>    7.5301    1.0000 </r>
       <r>    7.7310    1.0000 </r>
       <r>    7.8605    1.0000 </r>
       <r>    8.1535    1.0000 </r>
       <r>    8.1908    1.0000 </r>
       <r>    8.3548    1.0000 </r>
       <r>    8.7173    1.0000 </r>
       <r>    9.5673    1.0000 </r>
       <r>    9.6940    1.0000 </r>
       <r>    9.8500    1.0000 </r>
       <r>   10.4159    1.0000 </r>
       <r>   10.4504    1.0000 </r>
       <r>   10.9716    1.0000 </r>
       <r>   11.0165    1.0000 </r>
       <r>   11.1305    1.0000 </r>
       <r>   11.2779    1.0000 </r>
       <r>   11.5596    1.0000 </r>
       <r>   12.1223    0.0000 </r>
       <r>   12.4185    0.0000 </r>
       <r>   12.7990    0.0000 </r>
       <r>   13.2043    0.0000 </r>
       <r>   13.2638    0.0000 </r>
       <r>   13.4229    0.0000 </r>
       <r>   14.2492    0.0000 </r>
       <r>   14.7331    0.0000 </r>
       <r>   15.0558    0.0000 </r>
       <r>   15.0927    0.0000 </r>
       <r>   15.4528    0.0000 </r>
      </set>
      <set comment="kpoint 12">
       <r>  -50.8893    1.0000 </r>
       <r>  -50.7310    1.0000 </r>
       <r>  -50.7298    1.0000 </r>
       <r>  -50.7204    1.0000 </r>
       <r>  -50.6537    1.0000 </r>
       <r>  -50.6387    1.0000 </r>
       <r>  -25.2641    1.0000 </r>
       <r>  -24.7742    1.0000 </r>
       <r>  -24.7675    1.0000 </r>
       <r>  -24.7565    1.0000 </r>
       <r>  -24.5635    1.0000 </r>
       <r>  -24.5433    1.0000 </r>
       <r>  -24.5233    1.0000 </r>
       <r>  -24.0655    1.0000 </r>
       <r>  -24.0646    1.0000 </r>
       <r>  -24.0600    1.0000 </r>
       <r>  -23.9304    1.0000 </r>
       <r>  -23.8723    1.0000 </r>
       <r>  -23.8405    1.0000 </r>
       <r>  -23.8172    1.0000 </r>
       <r>  -23.8103    1.0000 </r>
       <r>  -23.7840    1.0000 </r>
       <r>  -23.7830    1.0000 </r>
       <r>  -23.7425    1.0000 </r>
       <r>    0.5367    1.0000 </r>
       <r>    1.9992    1.0000 </r>
       <r>    2.7987    1.0000 </r>
       <r>    4.7125    1.0000 </r>
       <r>    4.8619    1.0000 </r>
       <r>    4.8635    1.0000 </r>
       <r>    7.2387    1.0000 </r>
       <r>    7.6112    1.0000 </r>
       <r>    7.6263    1.0000 </r>
       <r>    7.6388    1.0000 </r>
       <r>    7.6400    1.0000 </r>
       <r>    8.0343    1.0000 </r>
       <r>    8.6842    1.0000 </r>
       <r>    8.7042    1.0000 </r>
       <r>    8.9194    1.0000 </r>
       <r>   10.1506    1.0000 </r>
       <r>   10.1737    1.0000 </r>
       <r>   10.2074    1.0000 </r>
       <r>   10.5196    1.0000 </r>
       <r>   10.5624    1.0000 </r>
       <r>   10.7112    1.0000 </r>
       <r>   10.8387    1.0000 </r>
       <r>   10.9376    1.0000 </r>
       <r>   10.9395    1.0000 </r>
       <r>   11.8947    1.0000 </r>
       <r>   12.1665    0.0000 </r>
       <r>   12.6265    0.0000 </r>
       <r>   12.6273    0.0000 </r>
       <r>   13.2493    0.0000 </r>
       <r>   13.3599    0.0000 </r>
       <r>   13.4760    0.0000 </r>
       <r>   14.0870    0.0000 </r>
       <r>   14.1455    0.0000 </r>
       <r>   14.9647    0.0000 </r>
       <r>   15.1634    0.0000 </r>
       <r>   15.4320    0.0000 </r>
      </set>
      <set comment="kpoint 13">
       <r>  -50.8373    1.0000 </r>
       <r>  -50.7698    1.0000 </r>
       <r>  -50.7319    1.0000 </r>
       <r>  -50.6892    1.0000 </r>
       <r>  -50.6767    1.0000 </r>
       <r>  -50.6601    1.0000 </r>
       <r>  -25.0121    1.0000 </r>
       <r>  -24.7961    1.0000 </r>
       <r>  -24.6410    1.0000 </r>
       <r>  -24.4745    1.0000 </r>
       <r>  -24.4488    1.0000 </r>
       <r>  -24.4237    1.0000 </r>
       <r>  -24.3658    1.0000 </r>
       <r>  -24.2809    1.0000 </r>
       <r>  -24.2449    1.0000 </r>
       <r>  -24.1025    1.0000 </r>
       <r>  -24.0552    1.0000 </r>
       <r>  -23.9637    1.0000 </r>
       <r>  -23.9545    1.0000 </r>
       <r>  -23.9231    1.0000 </r>
       <r>  -23.8932    1.0000 </r>
       <r>  -23.8465    1.0000 </r>
       <r>  -23.8342    1.0000 </r>
       <r>  -23.8001    1.0000 </r>
       <r>    1.7130    1.0000 </r>
       <r>    2.8136    1.0000 </r>
       <r>    3.0868    1.0000 </r>
       <r>    3.4549    1.0000 </r>
       <r>    5.4999    1.0000 </r>
       <r>    6.6318    1.0000 </r>
       <r>    6.7489    1.0000 </r>
       <r>    7.0751    1.0000 </r>
       <r>    7.1434    1.0000 </r>
       <r>    7.4834    1.0000 </r>
       <r>    7.6549    1.0000 </r>
       <r>    7.9017    1.0000 </r>
       <r>    7.9985    1.0000 </r>
       <r>    8.3350    1.0000 </r>
       <r>    8.4975    1.0000 </r>
       <r>    8.6896    1.0000 </r>
       <r>    8.7403    1.0000 </r>
       <r>    9.6157    1.0000 </r>
       <r>   10.0548    1.0000 </r>
       <r>   10.0759    1.0000 </r>
       <r>   11.1157    1.0000 </r>
       <r>   11.2342    1.0000 </r>
       <r>   11.4570    1.0000 </r>
       <r>   11.6127    1.0000 </r>
       <r>   11.6555    1.0000 </r>
       <r>   12.0493    0.7876 </r>
       <r>   12.3205    0.0000 </r>
       <r>   12.9327    0.0000 </r>
       <r>   13.1318    0.0000 </r>
       <r>   13.3057    0.0000 </r>
       <r>   13.4854    0.0000 </r>
       <r>   13.6728    0.0000 </r>
       <r>   15.0280    0.0000 </r>
       <r>   15.2518    0.0000 </r>
       <r>   15.2739    0.0000 </r>
       <r>   15.7681    0.0000 </r>
      </set>
      <set comment="kpoint 14">
       <r>  -50.8086    1.0000 </r>
       <r>  -50.7925    1.0000 </r>
       <r>  -50.7262    1.0000 </r>
       <r>  -50.7003    1.0000 </r>
       <r>  -50.6769    1.0000 </r>
       <r>  -50.6610    1.0000 </r>
       <r>  -24.8919    1.0000 </r>
       <r>  -24.8367    1.0000 </r>
       <r>  -24.5385    1.0000 </r>
       <r>  -24.4241    1.0000 </r>
       <r>  -24.4136    1.0000 </r>
       <r>  -24.4039    1.0000 </r>
       <r>  -24.3369    1.0000 </r>
       <r>  -24.3303    1.0000 </r>
       <r>  -24.3055    1.0000 </r>
       <r>  -24.1377    1.0000 </r>
       <r>  -24.1182    1.0000 </r>
       <r>  -24.0140    1.0000 </r>
       <r>  -23.9529    1.0000 </r>
       <r>  -23.9223    1.0000 </r>
       <r>  -23.9082    1.0000 </r>
       <r>  -23.9014    1.0000 </r>
       <r>  -23.8492    1.0000 </r>
       <r>  -23.7976    1.0000 </r>
       <r>    2.3862    1.0000 </r>
       <r>    2.7672    1.0000 </r>
       <r>    3.1634    1.0000 </r>
       <r>    3.1951    1.0000 </r>
       <r>    6.0357    1.0000 </r>
       <r>    6.4253    1.0000 </r>
       <r>    6.5137    1.0000 </r>
       <r>    6.7309    1.0000 </r>
       <r>    7.3963    1.0000 </r>
       <r>    7.5067    1.0000 </r>
       <r>    7.6439    1.0000 </r>
       <r>    7.7510    1.0000 </r>
       <r>    7.8650    1.0000 </r>
       <r>    8.0424    1.0000 </r>
       <r>    8.2785    1.0000 </r>
       <r>    8.3191    1.0000 </r>
       <r>    9.2673    1.0000 </r>
       <r>    9.6502    1.0000 </r>
       <r>    9.8017    1.0000 </r>
       <r>    9.8272    1.0000 </r>
       <r>   11.0828    1.0000 </r>
       <r>   11.1087    1.0000 </r>
       <r>   11.2742    1.0000 </r>
       <r>   11.5045    1.0000 </r>
       <r>   11.9697    1.0000 </r>
       <r>   12.4137    0.0000 </r>
       <r>   12.7697    0.0000 </r>
       <r>   12.9748    0.0000 </r>
       <r>   13.0245    0.0000 </r>
       <r>   13.1757    0.0000 </r>
       <r>   13.2771    0.0000 </r>
       <r>   13.3398    0.0000 </r>
       <r>   14.6022    0.0000 </r>
       <r>   15.0771    0.0000 </r>
       <r>   15.2078    0.0000 </r>
       <r>   15.3412    0.0000 </r>
      </set>
      <set comment="kpoint 15">
       <r>  -50.8205    1.0000 </r>
       <r>  -50.7778    1.0000 </r>
       <r>  -50.7150    1.0000 </r>
       <r>  -50.7116    1.0000 </r>
       <r>  -50.6908    1.0000 </r>
       <r>  -50.6496    1.0000 </r>
       <r>  -24.9293    1.0000 </r>
       <r>  -24.7949    1.0000 </r>
       <r>  -24.5541    1.0000 </r>
       <r>  -24.5071    1.0000 </r>
       <r>  -24.4238    1.0000 </r>
       <r>  -24.3862    1.0000 </r>
       <r>  -24.3240    1.0000 </r>
       <r>  -24.2646    1.0000 </r>
       <r>  -24.2466    1.0000 </r>
       <r>  -24.2203    1.0000 </r>
       <r>  -24.0704    1.0000 </r>
       <r>  -24.0426    1.0000 </r>
       <r>  -23.9642    1.0000 </r>
       <r>  -23.9442    1.0000 </r>
       <r>  -23.8969    1.0000 </r>
       <r>  -23.8730    1.0000 </r>
       <r>  -23.8550    1.0000 </r>
       <r>  -23.7830    1.0000 </r>
       <r>    2.1036    1.0000 </r>
       <r>    2.9537    1.0000 </r>
       <r>    3.0271    1.0000 </r>
       <r>    3.5371    1.0000 </r>
       <r>    5.8670    1.0000 </r>
       <r>    6.2706    1.0000 </r>
       <r>    6.3138    1.0000 </r>
       <r>    6.8563    1.0000 </r>
       <r>    7.1589    1.0000 </r>
       <r>    7.6624    1.0000 </r>
       <r>    7.7111    1.0000 </r>
       <r>    7.9572    1.0000 </r>
       <r>    7.9787    1.0000 </r>
       <r>    8.0423    1.0000 </r>
       <r>    8.3366    1.0000 </r>
       <r>    8.3755    1.0000 </r>
       <r>    9.1962    1.0000 </r>
       <r>    9.5392    1.0000 </r>
       <r>    9.8898    1.0000 </r>
       <r>   10.1099    1.0000 </r>
       <r>   11.0163    1.0000 </r>
       <r>   11.1073    1.0000 </r>
       <r>   11.1463    1.0000 </r>
       <r>   11.4112    1.0000 </r>
       <r>   12.1637    0.0000 </r>
       <r>   12.2763    0.0000 </r>
       <r>   12.4532    0.0000 </r>
       <r>   12.7328    0.0000 </r>
       <r>   13.0520    0.0000 </r>
       <r>   13.2523    0.0000 </r>
       <r>   13.3973    0.0000 </r>
       <r>   13.6420    0.0000 </r>
       <r>   14.3661    0.0000 </r>
       <r>   14.9417    0.0000 </r>
       <r>   15.3770    0.0000 </r>
       <r>   15.4458    0.0000 </r>
      </set>
      <set comment="kpoint 16">
       <r>  -50.8465    1.0000 </r>
       <r>  -50.7501    1.0000 </r>
       <r>  -50.7229    1.0000 </r>
       <r>  -50.7108    1.0000 </r>
       <r>  -50.6935    1.0000 </r>
       <r>  -50.6410    1.0000 </r>
       <r>  -25.0430    1.0000 </r>
       <r>  -24.7350    1.0000 </r>
       <r>  -24.6607    1.0000 </r>
       <r>  -24.5514    1.0000 </r>
       <r>  -24.5467    1.0000 </r>
       <r>  -24.3925    1.0000 </r>
       <r>  -24.3725    1.0000 </r>
       <r>  -24.1954    1.0000 </r>
       <r>  -24.1496    1.0000 </r>
       <r>  -24.1399    1.0000 </r>
       <r>  -24.0336    1.0000 </r>
       <r>  -24.0255    1.0000 </r>
       <r>  -23.9545    1.0000 </r>
       <r>  -23.9170    1.0000 </r>
       <r>  -23.8722    1.0000 </r>
       <r>  -23.8570    1.0000 </r>
       <r>  -23.8510    1.0000 </r>
       <r>  -23.7566    1.0000 </r>
       <r>    1.4998    1.0000 </r>
[...]
       <r>    3.6160    1.0000 </r>
       <r>    5.4891    1.0000 </r>
       <r>    6.2588    1.0000 </r>
       <r>    6.8606    1.0000 </r>
       <r>    7.0254    1.0000 </r>
       <r>    7.2874    1.0000 </r>
       <r>    7.6541    1.0000 </r>
       <r>    7.7992    1.0000 </r>
       <r>    7.9822    1.0000 </r>
       <r>    8.0943    1.0000 </r>
       <r>    8.2760    1.0000 </r>
       <r>    8.5137    1.0000 </r>
       <r>    8.7526    1.0000 </r>
       <r>    8.9508    1.0000 </r>
       <r>    9.5389    1.0000 </r>
       <r>   10.1049    1.0000 </r>
       <r>   10.1164    1.0000 </r>
       <r>   11.1604    1.0000 </r>
       <r>   11.2100    1.0000 </r>
       <r>   11.4027    1.0000 </r>
       <r>   11.6765    1.0000 </r>
       <r>   11.8316    1.0000 </r>
       <r>   12.0012    1.0000 </r>
       <r>   12.1962    0.0000 </r>
       <r>   12.8262    0.0000 </r>
       <r>   13.1889    0.0000 </r>
       <r>   13.2208    0.0000 </r>
       <r>   13.4333    0.0000 </r>
       <r>   13.8770    0.0000 </r>
       <r>   14.7917    0.0000 </r>
       <r>   15.1520    0.0000 </r>
       <r>   15.2549    0.0000 </r>
       <r>   15.5181    0.0000 </r>
      </set>
      <set comment="kpoint 165">
       <r>  -50.8426    1.0000 </r>
       <r>  -50.7543    1.0000 </r>
       <r>  -50.7317    1.0000 </r>
       <r>  -50.7000    1.0000 </r>
       <r>  -50.6868    1.0000 </r>
       <r>  -50.6497    1.0000 </r>
       <r>  -25.0203    1.0000 </r>
       <r>  -24.7432    1.0000 </r>
       <r>  -24.6638    1.0000 </r>
       <r>  -24.5481    1.0000 </r>
       <r>  -24.5016    1.0000 </r>
       <r>  -24.3679    1.0000 </r>
       <r>  -24.3671    1.0000 </r>
       <r>  -24.2206    1.0000 </r>
       <r>  -24.2042    1.0000 </r>
       <r>  -24.1047    1.0000 </r>
       <r>  -24.0633    1.0000 </r>
       <r>  -23.9948    1.0000 </r>
       <r>  -23.9464    1.0000 </r>
       <r>  -23.9397    1.0000 </r>
       <r>  -23.8944    1.0000 </r>
       <r>  -23.8533    1.0000 </r>
       <r>  -23.8438    1.0000 </r>
       <r>  -23.7833    1.0000 </r>
       <r>    1.6223    1.0000 </r>
       <r>    2.7189    1.0000 </r>
       <r>    3.1767    1.0000 </r>
       <r>    3.8891    1.0000 </r>
       <r>    5.3619    1.0000 </r>
       <r>    5.9505    1.0000 </r>
       <r>    6.5414    1.0000 </r>
       <r>    7.1583    1.0000 </r>
       <r>    7.5360    1.0000 </r>
       <r>    7.5867    1.0000 </r>
       <r>    7.6768    1.0000 </r>
       <r>    7.8276    1.0000 </r>
       <r>    8.1779    1.0000 </r>
       <r>    8.3021    1.0000 </r>
       <r>    8.3938    1.0000 </r>
       <r>    8.5820    1.0000 </r>
       <r>    9.1361    1.0000 </r>
       <r>    9.4793    1.0000 </r>
       <r>   10.2589    1.0000 </r>
       <r>   10.3068    1.0000 </r>
       <r>   10.9835    1.0000 </r>
       <r>   11.0540    1.0000 </r>
       <r>   11.1346    1.0000 </r>
       <r>   11.4969    1.0000 </r>
       <r>   11.6495    1.0000 </r>
       <r>   12.0585    0.5589 </r>
       <r>   12.4934    0.0000 </r>
       <r>   12.7018    0.0000 </r>
       <r>   13.1708    0.0000 </r>
       <r>   13.2252    0.0000 </r>
       <r>   13.5314    0.0000 </r>
       <r>   14.0311    0.0000 </r>
       <r>   14.4450    0.0000 </r>
       <r>   15.1290    0.0000 </r>
       <r>   15.5821    0.0000 </r>
       <r>   15.9822    0.0000 </r>
      </set>
     </set>
    </set>
   </array>
  </eigenvalues>
  <separator name="orbital magnetization" >
   <v name="MAGDIPOLOUT">      0.00000000      0.00000000      0.00000000</v>
  </separator>
  <dos>
   <i name="efermi">     12.06060551 </i>
   <total>
    <array>
     <dimension dim="1">gridpoints</dimension>
     <dimension dim="2">spin</dimension>
     <field>energy</field>
     <field>total</field>
     <field>integrated</field>
     <set>
      <set comment="spin 1">
       <r>   -54.2980     0.0000     0.0000 </r>
       <r>   -54.0486     0.0000     0.0000 </r>
       <r>   -53.7993     0.0000     0.0000 </r>
       <r>   -53.5499     0.0000     0.0000 </r>
       <r>   -53.3006     0.0000     0.0000 </r>
       <r>   -53.0512     0.0000     0.0000 </r>
       <r>   -52.8019     0.0000     0.0000 </r>
       <r>   -52.5525     0.0000     0.0000 </r>
       <r>   -52.3032     0.0000     0.0000 </r>
       <r>   -52.0538     0.0000     0.0000 </r>
       <r>   -51.8045     0.0000     0.0000 </r>
       <r>   -51.5551     0.0000     0.0000 </r>
       <r>   -51.3057     0.0000     0.0000 </r>
       <r>   -51.0564     0.0000     0.0000 </r>
       <r>   -50.8070     6.8385     1.7052 </r>
       <r>   -50.5577    24.4384    12.0000 </r>
       <r>   -50.3083     0.0000    12.0000 </r>
       <r>   -50.0590     0.0000    12.0000 </r>
       <r>   -49.8096     0.0000    12.0000 </r>
       <r>   -49.5603     0.0000    12.0000 </r>
       <r>   -49.3109     0.0000    12.0000 </r>
       <r>   -49.0616     0.0000    12.0000 </r>
       <r>   -48.8122     0.0000    12.0000 </r>
       <r>   -48.5629     0.0000    12.0000 </r>
       <r>   -48.3135     0.0000    12.0000 </r>
       <r>   -48.0642     0.0000    12.0000 </r>
       <r>   -47.8148     0.0000    12.0000 </r>
       <r>   -47.5655     0.0000    12.0000 </r>
       <r>   -47.3161     0.0000    12.0000 </r>
       <r>   -47.0668     0.0000    12.0000 </r>
       <r>   -46.8174     0.0000    12.0000 </r>
       <r>   -46.5681     0.0000    12.0000 </r>
       <r>   -46.3187     0.0000    12.0000 </r>
       <r>   -46.0694     0.0000    12.0000 </r>
       <r>   -45.8200     0.0000    12.0000 </r>
       <r>   -45.5707     0.0000    12.0000 </r>
       <r>   -45.3213     0.0000    12.0000 </r>
       <r>   -45.0720     0.0000    12.0000 </r>
       <r>   -44.8226     0.0000    12.0000 </r>
       <r>   -44.5733     0.0000    12.0000 </r>
       <r>   -44.3239     0.0000    12.0000 </r>
       <r>   -44.0746     0.0000    12.0000 </r>
       <r>   -43.8252     0.0000    12.0000 </r>
       <r>   -43.5758     0.0000    12.0000 </r>
       <r>   -43.3265     0.0000    12.0000 </r>
       <r>   -43.0771     0.0000    12.0000 </r>
       <r>   -42.8278     0.0000    12.0000 </r>
       <r>   -42.5784     0.0000    12.0000 </r>
       <r>   -42.3291     0.0000    12.0000 </r>
       <r>   -42.0797     0.0000    12.0000 </r>
       <r>   -41.8304     0.0000    12.0000 </r>
       <r>   -41.5810     0.0000    12.0000 </r>
       <r>   -41.3317     0.0000    12.0000 </r>
       <r>   -41.0823     0.0000    12.0000 </r>
       <r>   -40.8330     0.0000    12.0000 </r>
       <r>   -40.5836     0.0000    12.0000 </r>
       <r>   -40.3343     0.0000    12.0000 </r>
       <r>   -40.0849     0.0000    12.0000 </r>
       <r>   -39.8356     0.0000    12.0000 </r>
       <r>   -39.5862     0.0000    12.0000 </r>
       <r>   -39.3369     0.0000    12.0000 </r>
       <r>   -39.0875     0.0000    12.0000 </r>
       <r>   -38.8382     0.0000    12.0000 </r>
       <r>   -38.5888     0.0000    12.0000 </r>
       <r>   -38.3395     0.0000    12.0000 </r>
       <r>   -38.0901     0.0000    12.0000 </r>
       <r>   -37.8408     0.0000    12.0000 </r>
       <r>   -37.5914     0.0000    12.0000 </r>
       <r>   -37.3421     0.0000    12.0000 </r>
       <r>   -37.0927     0.0000    12.0000 </r>
       <r>   -36.8434     0.0000    12.0000 </r>
       <r>   -36.5940     0.0000    12.0000 </r>
       <r>   -36.3447     0.0000    12.0000 </r>
       <r>   -36.0953     0.0000    12.0000 </r>
       <r>   -35.8460     0.0000    12.0000 </r>
       <r>   -35.5966     0.0000    12.0000 </r>
       <r>   -35.3472     0.0000    12.0000 </r>
       <r>   -35.0979     0.0000    12.0000 </r>
       <r>   -34.8485     0.0000    12.0000 </r>
       <r>   -34.5992     0.0000    12.0000 </r>
       <r>   -34.3498     0.0000    12.0000 </r>
       <r>   -34.1005     0.0000    12.0000 </r>
       <r>   -33.8511     0.0000    12.0000 </r>
       <r>   -33.6018     0.0000    12.0000 </r>
       <r>   -33.3524     0.0000    12.0000 </r>
       <r>   -33.1031     0.0000    12.0000 </r>
       <r>   -32.8537     0.0000    12.0000 </r>
       <r>   -32.6044     0.0000    12.0000 </r>
       <r>   -32.3550     0.0000    12.0000 </r>
       <r>   -32.1057     0.0000    12.0000 </r>
       <r>   -31.8563     0.0000    12.0000 </r>
       <r>   -31.6070     0.0000    12.0000 </r>
       <r>   -31.3576     0.0000    12.0000 </r>
       <r>   -31.1083     0.0000    12.0000 </r>
       <r>   -30.8589     0.0000    12.0000 </r>
       <r>   -30.6096     0.0000    12.0000 </r>
       <r>   -30.3602     0.0000    12.0000 </r>
       <r>   -30.1109     0.0000    12.0000 </r>
       <r>   -29.8615     0.0000    12.0000 </r>
       <r>   -29.6122     0.0000    12.0000 </r>
       <r>   -29.3628     0.0000    12.0000 </r>
       <r>   -29.1135     0.0000    12.0000 </r>
       <r>   -28.8641     0.0000    12.0000 </r>
       <r>   -28.6148     0.0000    12.0000 </r>
       <r>   -28.3654     0.0000    12.0000 </r>
       <r>   -28.1161     0.0000    12.0000 </r>
       <r>   -27.8667     0.0000    12.0000 </r>
       <r>   -27.6174     0.0000    12.0000 </r>
       <r>   -27.3680     0.0000    12.0000 </r>
       <r>   -27.1186     0.0000    12.0000 </r>
       <r>   -26.8693     0.0000    12.0000 </r>
       <r>   -26.6199     0.0000    12.0000 </r>
       <r>   -26.3706     0.0000    12.0000 </r>
       <r>   -26.1212     0.0000    12.0000 </r>
       <r>   -25.8719     0.0000    12.0000 </r>
       <r>   -25.6225     0.0000    12.0000 </r>
       <r>   -25.3732     0.0000    12.0000 </r>
       <r>   -25.1238     1.2531    12.3159 </r>
       <r>   -24.8745     4.5142    13.7610 </r>
       <r>   -24.6251     7.2246    16.9785 </r>
       <r>   -24.3758    22.0431    24.2847 </r>
       <r>   -24.1264    17.9342    30.9893 </r>
       <r>   -23.8771    27.0607    41.1296 </r>
       <r>   -23.6277     3.7876    48.0000 </r>
       <r>   -23.3784     0.0000    48.0000 </r>
       <r>   -23.1290     0.0000    48.0000 </r>
       <r>   -22.8797     0.0000    48.0000 </r>
       <r>   -22.6303     0.0000    48.0000 </r>
       <r>   -22.3810     0.0000    48.0000 </r>
       <r>   -22.1316     0.0000    48.0000 </r>
       <r>   -21.8823     0.0000    48.0000 </r>
       <r>   -21.6329     0.0000    48.0000 </r>
       <r>   -21.3836     0.0000    48.0000 </r>
       <r>   -21.1342     0.0000    48.0000 </r>
       <r>   -20.8849     0.0000    48.0000 </r>
       <r>   -20.6355     0.0000    48.0000 </r>
       <r>   -20.3862     0.0000    48.0000 </r>
       <r>   -20.1368     0.0000    48.0000 </r>
       <r>   -19.8875     0.0000    48.0000 </r>
       <r>   -19.6381     0.0000    48.0000 </r>
       <r>   -19.3887     0.0000    48.0000 </r>
       <r>   -19.1394     0.0000    48.0000 </r>
       <r>   -18.8900     0.0000    48.0000 </r>
       <r>   -18.6407     0.0000    48.0000 </r>
       <r>   -18.3913     0.0000    48.0000 </r>
       <r>   -18.1420     0.0000    48.0000 </r>
       <r>   -17.8926     0.0000    48.0000 </r>
       <r>   -17.6433     0.0000    48.0000 </r>
       <r>   -17.3939     0.0000    48.0000 </r>
       <r>   -17.1446     0.0000    48.0000 </r>
       <r>   -16.8952     0.0000    48.0000 </r>
       <r>   -16.6459     0.0000    48.0000 </r>
       <r>   -16.3965     0.0000    48.0000 </r>
       <r>   -16.1472     0.0000    48.0000 </r>
       <r>   -15.8978     0.0000    48.0000 </r>
       <r>   -15.6485     0.0000    48.0000 </r>
       <r>   -15.3991     0.0000    48.0000 </r>
       <r>   -15.1498     0.0000    48.0000 </r>
       <r>   -14.9004     0.0000    48.0000 </r>
       <r>   -14.6511     0.0000    48.0000 </r>
       <r>   -14.4017     0.0000    48.0000 </r>
       <r>   -14.1524     0.0000    48.0000 </r>
       <r>   -13.9030     0.0000    48.0000 </r>
       <r>   -13.6537     0.0000    48.0000 </r>
       <r>   -13.4043     0.0000    48.0000 </r>
       <r>   -13.1550     0.0000    48.0000 </r>
       <r>   -12.9056     0.0000    48.0000 </r>
       <r>   -12.6563     0.0000    48.0000 </r>
       <r>   -12.4069     0.0000    48.0000 </r>
       <r>   -12.1576     0.0000    48.0000 </r>
       <r>   -11.9082     0.0000    48.0000 </r>
       <r>   -11.6589     0.0000    48.0000 </r>
       <r>   -11.4095     0.0000    48.0000 </r>
       <r>   -11.1601     0.0000    48.0000 </r>
       <r>   -10.9108     0.0000    48.0000 </r>
       <r>   -10.6614     0.0000    48.0000 </r>
       <r>   -10.4121     0.0000    48.0000 </r>
       <r>   -10.1627     0.0000    48.0000 </r>
       <r>    -9.9134     0.0000    48.0000 </r>
       <r>    -9.6640     0.0000    48.0000 </r>
       <r>    -9.4147     0.0000    48.0000 </r>
       <r>    -9.1653     0.0000    48.0000 </r>
       <r>    -8.9160     0.0000    48.0000 </r>
       <r>    -8.6666     0.0000    48.0000 </r>
       <r>    -8.4173     0.0000    48.0000 </r>
       <r>    -8.1679     0.0000    48.0000 </r>
       <r>    -7.9186     0.0000    48.0000 </r>
       <r>    -7.6692     0.0000    48.0000 </r>
       <r>    -7.4199     0.0000    48.0000 </r>
       <r>    -7.1705     0.0000    48.0000 </r>
       <r>    -6.9212     0.0000    48.0000 </r>
       <r>    -6.6718     0.0000    48.0000 </r>
       <r>    -6.4225     0.0000    48.0000 </r>
       <r>    -6.1731     0.0000    48.0000 </r>
       <r>    -5.9238     0.0000    48.0000 </r>
       <r>    -5.6744     0.0000    48.0000 </r>
       <r>    -5.4251     0.0000    48.0000 </r>
       <r>    -5.1757     0.0000    48.0000 </r>
       <r>    -4.9264     0.0000    48.0000 </r>
       <r>    -4.6770     0.0000    48.0000 </r>
       <r>    -4.4277     0.0000    48.0000 </r>
       <r>    -4.1783     0.0000    48.0000 </r>
       <r>    -3.9290     0.0000    48.0000 </r>
       <r>    -3.6796     0.0000    48.0000 </r>
       <r>    -3.4302     0.0000    48.0000 </r>
       <r>    -3.1809     0.0000    48.0000 </r>
       <r>    -2.9315     0.0000    48.0000 </r>
       <r>    -2.6822     0.0000    48.0000 </r>
       <r>    -2.4328     0.0000    48.0000 </r>
       <r>    -2.1835     0.0000    48.0000 </r>
       <r>    -1.9341     0.0000    48.0000 </r>
       <r>    -1.6848     0.0000    48.0000 </r>
       <r>    -1.4354     0.0000    48.0000 </r>
       <r>    -1.1861     0.0000    48.0000 </r>
       <r>    -0.9367     0.0000    48.0000 </r>
       <r>    -0.6874     0.0000    48.0000 </r>
       <r>    -0.4380     0.0000    48.0000 </r>
       <r>    -0.1887     0.0000    48.0000 </r>
       <r>     0.0607     0.0000    48.0000 </r>
       <r>     0.3100     0.0000    48.0000 </r>
       <r>     0.5594     0.1909    48.0511 </r>
       <r>     0.8087     0.2625    48.1245 </r>
       <r>     1.0581     0.1189    48.2345 </r>
       <r>     1.3074     0.5447    48.4310 </r>
       <r>     1.5568     0.4242    48.6093 </r>
       <r>     1.8061     0.7582    48.8661 </r>
       <r>     2.0555     0.9310    49.1974 </r>
       <r>     2.3048     1.2856    49.6469 </r>
       <r>     2.5542     2.0131    50.3457 </r>
       <r>     2.8035     2.0552    51.1201 </r>
       <r>     3.0529     4.9883    52.8654 </r>
       <r>     3.3022     3.2812    54.2730 </r>
       <r>     3.5516     1.5513    54.9806 </r>
       <r>     3.8009     0.7860    55.3349 </r>
       <r>     4.0503     0.6533    55.6004 </r>
       <r>     4.2996     0.4025    55.7948 </r>
       <r>     4.5490     0.1795    55.9371 </r>
       <r>     4.7984     0.1241    56.0066 </r>
       <r>     5.0477     0.5112    56.1761 </r>
       <r>     5.2971     1.1695    56.5624 </r>
       <r>     5.5464     1.4766    57.0904 </r>
       <r>     5.7958     1.6783    57.7171 </r>
       <r>     6.0451     2.3444    58.5950 </r>
       <r>     6.2945     2.2201    59.5432 </r>
       <r>     6.5438     3.4475    60.8978 </r>
       <r>     6.7932     3.0146    62.0955 </r>
       <r>     7.0425     2.6276    63.1031 </r>
       <r>     7.2919     3.7530    64.4150 </r>
       <r>     7.5412     3.9741    65.9458 </r>
       <r>     7.7906     9.1078    69.4412 </r>
       <r>     8.0399     9.2458    73.2360 </r>
       <r>     8.2893     8.1270    76.7626 </r>
       <r>     8.5386     3.1609    78.3680 </r>
       <r>     8.7880     2.1824    79.2421 </r>
       <r>     9.0373     2.1310    79.8959 </r>
       <r>     9.2867     2.9568    80.9838 </r>
       <r>     9.5360     3.7689    82.2731 </r>
       <r>     9.7854     4.4030    84.0701 </r>
       <r>    10.0347     3.2551    85.4401 </r>
       <r>    10.2841     3.1454    86.7600 </r>
       <r>    10.5334     2.6263    87.9500 </r>
       <r>    10.7828     1.5165    88.4268 </r>
       <r>    11.0321     6.1194    90.2759 </r>
       <r>    11.2815     7.8318    93.5258 </r>
       <r>    11.5308     3.9799    95.1174 </r>
       <r>    11.7802     2.5786    96.2402 </r>
       <r>    12.0295     3.8706    97.7776 </r>
       <r>    12.2789     3.1929    99.2233 </r>
       <r>    12.5282     5.1886   101.2347 </r>
       <r>    12.7776     4.4746   102.7650 </r>
       <r>    13.0270     4.4088   104.6931 </r>
       <r>    13.2763     9.3575   107.9410 </r>
       <r>    13.5257     5.5219   110.3352 </r>
       <r>    13.7750     2.0714   111.2873 </r>
       <r>    14.0244     0.8700   111.7655 </r>
       <r>    14.2737     1.5027   112.3157 </r>
       <r>    14.5231     1.6382   113.0439 </r>
       <r>    14.7724     2.1845   113.8051 </r>
       <r>    15.0218     3.3319   115.0600 </r>
       <r>    15.2711     6.0371   117.4047 </r>
       <r>    15.5205     3.1847   118.9434 </r>
       <r>    15.7698     1.3103   119.5802 </r>
       <r>    16.0192     0.5253   119.7664 </r>
       <r>    16.2685     0.1921   119.8431 </r>
       <r>    16.5179     0.1025   119.8867 </r>
       <r>    16.7672     0.1650   119.9370 </r>
       <r>    17.0166     0.0696   119.9896 </r>
       <r>    17.2659     0.0279   120.0000 </r>
       <r>    17.5153     0.0000   120.0000 </r>
       <r>    17.7646     0.0000   120.0000 </r>
       <r>    18.0140     0.0000   120.0000 </r>
       <r>    18.2633     0.0000   120.0000 </r>
       <r>    18.5127     0.0000   120.0000 </r>
       <r>    18.7620     0.0000   120.0000 </r>
       <r>    19.0114     0.0000   120.0000 </r>
       <r>    19.2607     0.0000   120.0000 </r>
       <r>    19.5101     0.0000   120.0000 </r>
       <r>    19.7594     0.0000   120.0000 </r>
       <r>    20.0088     0.0000   120.0000 </r>
       <r>    20.2581     0.0000   120.0000 </r>
       <r>    20.5075     0.0000   120.0000 </r>
      </set>
     </set>
    </array>
   </total>
  </dos>
 </calculation>
 <structure name="finalpos" >
  <crystal>
   <varray name="basis" >
    <v>       4.92847065       0.00000000      -2.83468312 </v>
    <v>      -1.64901213       4.64441406      -2.83468312 </v>
    <v>       0.00000000       0.00000000       5.68553000 </v>
   </varray>
   <i name="volume">    130.14097666 </i>
   <varray name="rec_basis" >
    <v>       0.20290270       0.07204117       0.00000000 </v>
    <v>       0.00000000       0.21531241       0.00000000 </v>
    <v>       0.10116293       0.14326832       0.17588510 </v>
   </varray>
  </crystal>
  <varray name="positions" >
   <v>       0.00000000       0.50000000       0.50000000 </v>
   <v>       0.50000000       0.00000000       0.50000000 </v>
   <v>       0.74319000       0.24319000       0.98639000 </v>
   <v>       0.75000000       0.25000000       0.50000000 </v>
   <v>       0.25681000       0.75681000       0.01361000 </v>
   <v>       0.25000000       0.75000000       0.50000000 </v>
   <v>       0.24319000       0.25681000       0.50000000 </v>
   <v>       0.75681000       0.74319000       0.50000000 </v>
   <v>       0.25000000       0.25000000       0.00000000 </v>
   <v>       0.75000000       0.75000000       0.00000000 </v>
  </varray>
 </structure>
</modeling>
