 vasp.6.2.0 18Jan21 (build Jan 05 2022 15:41:44) complex                        
  
 executed on             LinuxIFC date 2025.05.07  18:02:31
 running on   24 total cores
 distrk:  each k-point on   12 cores,    2 groups
 distr:  one band on NCORE=   2 cores,    6 groups


--------------------------------------------------------------------------------------------------------


 INCAR:
   SYSTEM = routine with relax: pwdword
   ICHARG = 2
   NPAR = 6
   KPAR = 2
   NCORE = 2
   ADDGRID = T
   PREC = Acc
   ENCUT = 600
   METAGGA = R2SCAN
   LASPH = .TRUE.
   LMIXTAU = .FALSE.
   ALGO = A
   EDIFF = 1E-9
   NELM = 100
   NELMIN = 6
   IALGO = 38
   LREAL = F
   NSW = 0
   ISIF = -1
   ISMEAR = 0
   SIGMA = 0.02

 POTCAR:    PAW_PBE B 06Sep2000                   
 POTCAR:    PAW_PBE Mo_sv 02Feb2006               
 POTCAR:    PAW_PBE Si 05Jan2001                  
 -----------------------------------------------------------------------------
|                                                                             |
|           W    W    AA    RRRRR   N    N  II  N    N   GGGG   !!!           |
|           W    W   A  A   R    R  NN   N  II  NN   N  G    G  !!!           |
|           W    W  A    A  R    R  N N  N  II  N N  N  G       !!!           |
|           W WW W  AAAAAA  RRRRR   N  N N  II  N  N N  G  GGG   !            |
|           WW  WW  A    A  R   R   N   NN  II  N   NN  G    G                |
|           W    W  A    A  R    R  N    N  II  N    N   GGGG   !!!           |
|                                                                             |
|     For optimal performance we recommend to set                             |
|       NCORE = 2 up to number-of-cores-per-socket                            |
|     NCORE specifies how many cores store one orbital (NPAR=cpu/NCORE).      |
|     This setting can greatly improve the performance of VASP for DFT.       |
|     The default, NCORE=1 might be grossly inefficient on modern             |
|     multi-core architectures or massively parallel machines. Do your        |
|     own testing! More info at https://www.vasp.at/wiki/index.php/NCORE      |
|     Unfortunately you need to use the default for GW and RPA                |
|     calculations (for HF NCORE is supported but not extensively tested      |
|     yet).                                                                   |
|                                                                             |
 -----------------------------------------------------------------------------

 POTCAR:    PAW_PBE B 06Sep2000                   
   VRHFIN =B: s2p1                                                                                  
   LEXCH  = PE                                                                                      
   EATOM  =    71.1703 eV,    5.2309 Ry                                                             
                                                                                                    
   TITEL  = PAW_PBE B 06Sep2000                                                                     
   LULTRA =        F    use ultrasoft PP ?                                                          
   IUNSCR =        1    unscreen: 0-lin 1-nonlin 2-no                                               
   RPACOR =    1.200    partial core radius                                                         
   POMASS =   10.811; ZVAL   =    3.000    mass and valenz                                          
   RCORE  =    1.700    outmost cutoff radius                                                       
   RWIGS  =    1.710; RWIGS  =    0.905    wigner-seitz radius (au A)                               
   ENMAX  =  318.614; ENMIN  =  238.960 eV                                                          
   ICORE  =        2    local potential                                                             
   LCOR   =        T    correct aug charges                                                         
   LPAW   =        T    paw PP                                                                      
   EAUG   =  535.514                                                                                
   DEXC   =    0.000                                                                                
   RMAX   =    1.732    core radius for proj-oper                                                   
   RAUG   =    1.300    factor for augmentation sphere                                              
   RDEP   =    1.757    radius for radial grids                                                     
   RDEPT  =    1.436    core radius for aug-charge                                                  
                                                                                                    
   Atomic configuration                                                                             
    4 entries                                                                                       
     n  l   j            E        occ.                                                              
     1  0  0.50      -180.5896   2.0000                                                             
     2  0  0.50        -9.4431   2.0000                                                             
     2  1  0.50        -3.6068   1.0000                                                             
     3  2  1.50        -4.0817   0.0000                                                             
   Description                                                                                      
     l       E           TYP  RCUT    TYP  RCUT                                                     
     0     -9.4430752     23  1.500                                                                 
     0      0.8675899     23  1.500                                                                 
     1     -3.6067955     23  1.700                                                                 
     1      6.1086146     23  1.700                                                                 
     2     -4.0817478      7  1.700                                                                 
  local pseudopotential read in
  partial core-charges read in
  partial kinetic energy density read in
  atomic valenz-charges read in
  non local Contribution for L=           0  read in
    real space projection operators read in
  non local Contribution for L=           0  read in
    real space projection operators read in
  non local Contribution for L=           1  read in
    real space projection operators read in
  non local Contribution for L=           1  read in
    real space projection operators read in
    PAW grid and wavefunctions read in
 
   number of l-projection  operators is LMAX  =           4
   number of lm-projection operators is LMMAX =           8
 
 POTCAR:    PAW_PBE Mo_sv 02Feb2006               
   VRHFIN =Mo: 4p5s4d                                                                               
   LEXCH  = PE                                                                                      
   EATOM  =  1862.2866 eV,  136.8742 Ry                                                             
                                                                                                    
   TITEL  = PAW_PBE Mo_sv 02Feb2006                                                                 
   LULTRA =        F    use ultrasoft PP ?                                                          
   IUNSCR =        1    unscreen: 0-lin 1-nonlin 2-no                                               
   RPACOR =    2.200    partial core radius                                                         
   POMASS =   95.940; ZVAL   =   14.000    mass and valenz                                          
   RCORE  =    2.500    outmost cutoff radius                                                       
   RWIGS  =    2.750; RWIGS  =    1.455    wigner-seitz radius (au A)                               
   ENMAX  =  242.676; ENMIN  =  182.007 eV                                                          
   ICORE  =        3    local potential                                                             
   LCOR   =        T    correct aug charges                                                         
   LPAW   =        T    paw PP                                                                      
   EAUG   =  446.014                                                                                
   DEXC   =    0.000                                                                                
   RMAX   =    2.563    core radius for proj-oper                                                   
   RAUG   =    1.300    factor for augmentation sphere                                              
   RDEP   =    2.641    radius for radial grids                                                     
   RDEPT  =    2.031    core radius for aug-charge                                                  
                                                                                                    
   Atomic configuration                                                                             
   11 entries                                                                                       
     n  l   j            E        occ.                                                              
     1  0  0.50    -19819.0341   2.0000                                                             
     2  0  0.50     -2799.0127   2.0000                                                             
     2  1  1.50     -2502.0276   6.0000                                                             
     3  0  0.50      -476.4449   2.0000                                                             
     3  1  1.50      -379.1496   6.0000                                                             
     3  2  2.50      -220.9367  10.0000                                                             
     4  0  0.50       -64.3378   2.0000                                                             
     5  0  0.50        -4.0862   1.0000                                                             
     4  1  1.50       -38.4773   6.0000                                                             
     4  2  2.50        -3.7535   5.0000                                                             
     4  3  2.50        -1.3606   0.0000                                                             
   Description                                                                                      
     l       E           TYP  RCUT    TYP  RCUT                                                     
     0    -64.3377829     23  2.100                                                                 
     0     -4.0861640     23  2.400                                                                 
     1    -38.4772993     23  2.100                                                                 
     1     13.6058260     23  2.100                                                                 
     2     -3.7534941     23  2.400                                                                 
     2     -5.1140767     23  2.400                                                                 
     3     -4.0817478     23  2.500                                                                 
  local pseudopotential read in
  partial core-charges read in
  partial kinetic energy density read in
  atomic valenz-charges read in
  non local Contribution for L=           0  read in
    real space projection operators read in
  non local Contribution for L=           0  read in
    real space projection operators read in
  non local Contribution for L=           1  read in
    real space projection operators read in
  non local Contribution for L=           1  read in
    real space projection operators read in
  non local Contribution for L=           2  read in
    real space projection operators read in
  non local Contribution for L=           2  read in
    real space projection operators read in
    PAW grid and wavefunctions read in
 
   number of l-projection  operators is LMAX  =           6
   number of lm-projection operators is LMMAX =          18
 
 POTCAR:    PAW_PBE Si 05Jan2001                  
   VRHFIN =Si: s2p2                                                                                 
   LEXCH  = PE                                                                                      
   EATOM  =   103.0669 eV,    7.5752 Ry                                                             
                                                                                                    
   TITEL  = PAW_PBE Si 05Jan2001                                                                    
   LULTRA =        F    use ultrasoft PP ?                                                          
   IUNSCR =        1    unscreen: 0-lin 1-nonlin 2-no                                               
   RPACOR =    1.500    partial core radius                                                         
   POMASS =   28.085; ZVAL   =    4.000    mass and valenz                                          
   RCORE  =    1.900    outmost cutoff radius                                                       
   RWIGS  =    2.480; RWIGS  =    1.312    wigner-seitz radius (au A)                               
   ENMAX  =  245.345; ENMIN  =  184.009 eV                                                          
   ICORE  =        2    local potential                                                             
   LCOR   =        T    correct aug charges                                                         
   LPAW   =        T    paw PP                                                                      
   EAUG   =  322.069                                                                                
   DEXC   =    0.000                                                                                
   RMAX   =    1.950    core radius for proj-oper                                                   
   RAUG   =    1.300    factor for augmentation sphere                                              
   RDEP   =    1.993    radius for radial grids                                                     
   RDEPT  =    1.837    core radius for aug-charge                                                  
                                                                                                    
   Atomic configuration                                                                             
    6 entries                                                                                       
     n  l   j            E        occ.                                                              
     1  0  0.50     -1785.8828   2.0000                                                             
     2  0  0.50      -139.4969   2.0000                                                             
     2  1  1.50       -95.5546   6.0000                                                             
     3  0  0.50       -10.8127   2.0000                                                             
     3  1  0.50        -4.0811   2.0000                                                             
     3  2  1.50        -4.0817   0.0000                                                             
   Description                                                                                      
     l       E           TYP  RCUT    TYP  RCUT                                                     
     0    -10.8127223     23  1.900                                                                 
     0     -7.6451159     23  1.900                                                                 
     1     -4.0811372     23  1.900                                                                 
     1      2.4879257     23  1.900                                                                 
     2     -4.0817478      7  1.900                                                                 
  local pseudopotential read in
  partial core-charges read in
  partial kinetic energy density read in
  atomic valenz-charges read in
  non local Contribution for L=           0  read in
    real space projection operators read in
  non local Contribution for L=           0  read in
    real space projection operators read in
  non local Contribution for L=           1  read in
    real space projection operators read in
  non local Contribution for L=           1  read in
    real space projection operators read in
    PAW grid and wavefunctions read in
 
   number of l-projection  operators is LMAX  =           4
   number of lm-projection operators is LMMAX =           8
 
  PAW_PBE B 06Sep2000                   :
 energy of atom  1       EATOM=  -71.1703
 kinetic energy error for atom=    0.0007 (will be added to EATOM!!)
  PAW_PBE Mo_sv 02Feb2006               :
 energy of atom  2       EATOM=-1862.2866
 kinetic energy error for atom=    0.0041 (will be added to EATOM!!)
  PAW_PBE Si 05Jan2001                  :
 energy of atom  3       EATOM= -103.0669
 kinetic energy error for atom=    0.0003 (will be added to EATOM!!)
 
 
 POSCAR: EA141
  positions in direct lattice
  No initial velocities read in

 METAGGA = R2SCA    LMAXTAU =  6    LMIXTAU =  F

 exchange correlation table for  LEXCH =        8
   RHO(1)=    0.500       N(1)  =     2000
   RHO(2)=  100.500       N(2)  =     4000
 


--------------------------------------------------------------------------------------------------------


 ion  position               nearest neighbor table
   1  0.500  0.000  0.500-   3 2.35   5 2.35   6 2.36   7 2.36
   2  0.000  0.500  0.500-   6 2.35   7 2.35   3 2.36   5 2.36
   3  0.250  0.750  0.000-   1 2.35   4 2.35   8 2.35   2 2.36  10 3.26   9 3.26  10 3.26   9 3.26
                             6 3.33   7 3.33   7 3.33   6 3.33
   4  0.500  0.500  0.000-   9 2.25  10 2.25   3 2.35   5 2.35   6 2.35   7 2.35
   5  0.750  0.250  1.000-   1 2.35   4 2.35   8 2.35   2 2.36   9 3.26  10 3.26   9 3.26  10 3.26
                             7 3.33   6 3.33   6 3.33   7 3.33
   6  0.750  0.750  0.500-   2 2.35   8 2.35   4 2.35   1 2.36  10 3.26  10 3.26   9 3.26   9 3.26
                             3 3.33   5 3.33   5 3.33   3 3.33
   7  0.250  0.250  0.500-   2 2.35   4 2.35   8 2.35   1 2.36   9 3.26   9 3.26  10 3.26  10 3.26
                             5 3.33   3 3.33   3 3.33   5 3.33
   8  0.000  0.000  0.000-   9 2.25  10 2.25   3 2.35   5 2.35   7 2.35   6 2.35
   9  0.250  0.250  0.000-   4 2.25   8 2.25   5 3.26   3 3.26   7 3.26   7 3.26   5 3.26   3 3.26
                             6 3.26   6 3.26
  10  0.750  0.750  0.000-   4 2.25   8 2.25   5 3.26   3 3.26   6 3.26   6 3.26   3 3.26   5 3.26
                             7 3.26   7 3.26
 
  LATTYP: Found a body centered tetragonal cell.
 ALAT       =     6.6599338139
 C/A-ratio  =     1.3521844636
  
  Lattice vectors:
  
 A1 = (   5.7244216909,   0.0000000000,  -3.1117305257)
 A2 = (  -2.0238885016,   5.3547062505,  -3.1117305257)
 A3 = (   0.0000000000,   0.0000000000,   6.5155100000)


Analysis of symmetry for initial positions (statically):
=====================================================================
 Subroutine PRICEL returns:
 Original cell was already a primitive cell.
 

 Routine SETGRP: Setting up the symmetry group for a 
 body centered tetragonal supercell.


 Subroutine GETGRP returns: Found 16 space group operations
 (whereof  8 operations were pure point group operations)
 out of a pool of 16 trial point group operations.


The static configuration has the point symmetry C_4h.
 The point group associated with its full space group is D_4h.


Analysis of symmetry for dynamics (positions and initial velocities):
=====================================================================
 Subroutine PRICEL returns:
 Original cell was already a primitive cell.
 

 Routine SETGRP: Setting up the symmetry group for a 
 body centered tetragonal supercell.


 Subroutine GETGRP returns: Found 16 space group operations
 (whereof  8 operations were pure point group operations)
 out of a pool of 16 trial point group operations.


The dynamic configuration has the point symmetry C_4h.
 The point group associated with its full space group is D_4h.


 Subroutine INISYM returns: Found 16 space group operations
 (whereof  8 operations are pure point group operations),
 and found     1 'primitive' translations


----------------------------------------------------------------------------------------

                                     Primitive cell                                     

  volume of cell :     199.7173

  direct lattice vectors                    reciprocal lattice vectors
     5.724421691  0.000000000 -3.111730526     0.174690135  0.066026658  0.000000000
    -2.023888502  5.354706250 -3.111730526     0.000000000  0.186751608  0.000000000
     0.000000000  0.000000000  6.515510000     0.083429943  0.120723910  0.153479927

  length of vectors
     6.515510000  6.515510000  6.515510000     0.186751608  0.186751608  0.212346193

  position of ions in fractional coordinates (direct lattice)
     0.500000000  0.000000000  0.500000000
     1.000000000  0.500000000  0.500000000
     0.250130000  0.750130000  0.000260000
     0.500000000  0.500000000  1.000000000
     0.749870000  0.249870000  0.999740000
     0.750130000  0.749870000  0.500000000
     0.249870000  0.250130000  0.500000000
     0.000000000  0.000000000  0.000000000
     0.250000000  0.250000000  1.000000000
     0.750000000  0.750000000  1.000000000

  ion indices of the primitive-cell ions
   primitive index   ion index
                 1           1
                 2           2
                 3           3
                 4           4
                 5           5
                 6           6
                 7           7
                 8           8
                 9           9
                10          10

----------------------------------------------------------------------------------------

 
 
 KPOINTS: EA                                      

Automatic generation of k-mesh.
 Grid dimensions read from file:
 generate k-points for:    7    7    8

 Generating k-lattice:

  Cartesian coordinates                     Fractional coordinates (reciprocal lattice)
     0.024955734  0.009432380  0.000000000     0.142857143 -0.000000000  0.000000000
     0.000000000  0.026678801  0.000000000     0.000000000  0.142857143  0.000000000
     0.010428743  0.015090489  0.019184991    -0.000000000 -0.000000000  0.125000000

  Length of vectors
     0.026678801  0.026678801  0.026543274

  Shift w.r.t. Gamma in fractional coordinates (k-lattice)
     0.000000000  0.000000000  0.000000000

 -----------------------------------------------------------------------------
|                                                                             |
|           W    W    AA    RRRRR   N    N  II  N    N   GGGG   !!!           |
|           W    W   A  A   R    R  NN   N  II  NN   N  G    G  !!!           |
|           W    W  A    A  R    R  N N  N  II  N N  N  G       !!!           |
|           W WW W  AAAAAA  RRRRR   N  N N  II  N  N N  G  GGG   !            |
|           WW  WW  A    A  R   R   N   NN  II  N   NN  G    G                |
|           W    W  A    A  R    R  N    N  II  N    N   GGGG   !!!           |
|                                                                             |
|     Your reciprocal lattice and k-lattice belong to different lattice       |
|     classes:                                                                |
|                                                                             |
|        The reciprocal lattice is body-centered tetragonal,                  |
|        whereas your k-lattice is base-centered monoclinic.                  |
|                                                                             |
|     Results are often still useful ...                                      |
|                                                                             |
 -----------------------------------------------------------------------------

 WARNING: IBZKPT: internal override: KBLOWUP is changed to .FALSE.
      ... skipping the blow-up phase ...

 
 Subroutine IBZKPT returns following result:
 ===========================================
 
 Found    116 irreducible k-points:
 
 Following reciprocal coordinates:
            Coordinates               Weight
  0.000000  0.000000  0.000000      1.000000
  0.142857  0.000000  0.000000      4.000000
  0.285714  0.000000  0.000000      4.000000
  0.428571 -0.000000  0.000000      4.000000
  0.142857  0.142857  0.000000      2.000000
  0.285714  0.142857  0.000000      4.000000
  0.428571  0.142857  0.000000      4.000000
 -0.428571  0.142857  0.000000      4.000000
 -0.285714  0.142857  0.000000      4.000000
 -0.142857  0.142857  0.000000      2.000000
  0.285714  0.285714  0.000000      2.000000
  0.428571  0.285714  0.000000      4.000000
 -0.428571  0.285714  0.000000      4.000000
 -0.285714  0.285714  0.000000      2.000000
  0.428571  0.428571  0.000000      2.000000
 -0.428571  0.428571  0.000000      2.000000
  0.000000  0.000000  0.125000      2.000000
  0.142857  0.000000  0.125000      4.000000
  0.285714  0.000000  0.125000      4.000000
  0.428571 -0.000000  0.125000      4.000000
 -0.428571  0.000000  0.125000      4.000000
 -0.285714  0.000000  0.125000      4.000000
 -0.142857  0.000000  0.125000      4.000000
  0.142857  0.142857  0.125000      2.000000
  0.285714  0.142857  0.125000      4.000000
  0.428571  0.142857  0.125000      4.000000
 -0.428571  0.142857  0.125000      4.000000
 -0.285714  0.142857  0.125000      4.000000
 -0.142857  0.142857  0.125000      4.000000
  0.285714  0.285714  0.125000      2.000000
  0.428571  0.285714  0.125000      4.000000
 -0.428571  0.285714  0.125000      4.000000
 -0.285714  0.285714  0.125000      4.000000
 -0.142857  0.285714  0.125000      4.000000
  0.428571  0.428571  0.125000      2.000000
 -0.428571  0.428571  0.125000      4.000000
 -0.285714  0.428571  0.125000      4.000000
 -0.142857  0.428571  0.125000      4.000000
 -0.428571 -0.428571  0.125000      2.000000
 -0.285714 -0.428571  0.125000      4.000000
 -0.142857 -0.428571  0.125000      4.000000
 -0.285714 -0.285714  0.125000      2.000000
 -0.142857 -0.285714  0.125000      4.000000
 -0.142857 -0.142857  0.125000      2.000000
  0.000000  0.000000  0.250000      2.000000
  0.142857  0.000000  0.250000      4.000000
  0.285714  0.000000  0.250000      4.000000
  0.428571 -0.000000  0.250000      4.000000
 -0.428571  0.000000  0.250000      4.000000
 -0.285714  0.000000  0.250000      4.000000
 -0.142857  0.000000  0.250000      4.000000
  0.142857  0.142857  0.250000      2.000000
  0.285714  0.142857  0.250000      4.000000
  0.428571  0.142857  0.250000      4.000000
 -0.428571  0.142857  0.250000      4.000000
 -0.285714  0.142857  0.250000      4.000000
 -0.142857  0.142857  0.250000      4.000000
  0.285714  0.285714  0.250000      2.000000
  0.428571  0.285714  0.250000      4.000000
 -0.428571  0.285714  0.250000      4.000000
 -0.285714  0.285714  0.250000      4.000000
 -0.142857  0.285714  0.250000      4.000000
  0.428571  0.428571  0.250000      2.000000
 -0.428571  0.428571  0.250000      4.000000
 -0.285714  0.428571  0.250000      4.000000
 -0.142857  0.428571  0.250000      4.000000
 -0.428571 -0.428571  0.250000      2.000000
 -0.285714 -0.428571  0.250000      4.000000
 -0.142857 -0.428571  0.250000      4.000000
 -0.285714 -0.285714  0.250000      2.000000
 -0.142857 -0.285714  0.250000      4.000000
 -0.142857 -0.142857  0.250000      2.000000
  0.000000  0.000000  0.375000      2.000000
  0.142857  0.000000  0.375000      4.000000
  0.285714  0.000000  0.375000      4.000000
  0.428571  0.000000  0.375000      4.000000
 -0.428571  0.000000  0.375000      4.000000
 -0.285714  0.000000  0.375000      4.000000
 -0.142857  0.000000  0.375000      4.000000
  0.142857  0.142857  0.375000      2.000000
  0.285714  0.142857  0.375000      4.000000
  0.428571  0.142857  0.375000      4.000000
 -0.428571  0.142857  0.375000      4.000000
 -0.285714  0.142857  0.375000      4.000000
 -0.142857  0.142857  0.375000      4.000000
  0.285714  0.285714  0.375000      2.000000
  0.428571  0.285714  0.375000      4.000000
 -0.428571  0.285714  0.375000      4.000000
 -0.285714  0.285714  0.375000      4.000000
 -0.142857  0.285714  0.375000      4.000000
  0.428571  0.428571  0.375000      2.000000
 -0.428571  0.428571  0.375000      4.000000
 -0.285714  0.428571  0.375000      4.000000
 -0.142857  0.428571  0.375000      4.000000
 -0.428571 -0.428571  0.375000      2.000000
 -0.285714 -0.428571  0.375000      4.000000
 -0.142857 -0.428571  0.375000      4.000000
 -0.285714 -0.285714  0.375000      2.000000
 -0.142857 -0.285714  0.375000      4.000000
 -0.142857 -0.142857  0.375000      2.000000
  0.000000  0.000000  0.500000      1.000000
  0.142857 -0.000000  0.500000      4.000000
  0.285714 -0.000000  0.500000      4.000000
  0.428571  0.000000  0.500000      4.000000
  0.142857  0.142857  0.500000      2.000000
  0.285714  0.142857  0.500000      4.000000
  0.428571  0.142857  0.500000      4.000000
 -0.428571  0.142857  0.500000      4.000000
 -0.285714  0.142857  0.500000      4.000000
 -0.142857  0.142857  0.500000      2.000000
  0.285714  0.285714  0.500000      2.000000
  0.428571  0.285714  0.500000      4.000000
 -0.428571  0.285714  0.500000      4.000000
 -0.285714  0.285714  0.500000      2.000000
  0.428571  0.428571  0.500000      2.000000
 -0.428571  0.428571  0.500000      2.000000
 
 Following cartesian coordinates:
            Coordinates               Weight
  0.000000  0.000000  0.000000      1.000000
  0.024956  0.009432  0.000000      4.000000
  0.049911  0.018865  0.000000      4.000000
  0.074867  0.028297  0.000000      4.000000
  0.024956  0.036111  0.000000      2.000000
  0.049911  0.045544  0.000000      4.000000
  0.074867  0.054976  0.000000      4.000000
 -0.074867 -0.001618  0.000000      4.000000
 -0.049911  0.007814  0.000000      4.000000
 -0.024956  0.017246  0.000000      2.000000
  0.049911  0.072222  0.000000      2.000000
  0.074867  0.081655  0.000000      4.000000
 -0.074867  0.025060  0.000000      4.000000
 -0.049911  0.034493  0.000000      2.000000
  0.074867  0.108334  0.000000      2.000000
 -0.074867  0.051739  0.000000      2.000000
  0.010429  0.015090  0.019185      2.000000
  0.035384  0.024523  0.019185      4.000000
  0.060340  0.033955  0.019185      4.000000
  0.085296  0.043388  0.019185      4.000000
 -0.064438 -0.013207  0.019185      4.000000
 -0.039483 -0.003774  0.019185      4.000000
 -0.014527  0.005658  0.019185      4.000000
  0.035384  0.051202  0.019185      2.000000
  0.060340  0.060634  0.019185      4.000000
  0.085296  0.070066  0.019185      4.000000
 -0.064438  0.013472  0.019185      4.000000
 -0.039483  0.022905  0.019185      4.000000
 -0.014527  0.032337  0.019185      4.000000
  0.060340  0.087313  0.019185      2.000000
  0.085296  0.096745  0.019185      4.000000
 -0.064438  0.040151  0.019185      4.000000
 -0.039483  0.049583  0.019185      4.000000
 -0.014527  0.059016  0.019185      4.000000
  0.085296  0.123424  0.019185      2.000000
 -0.064438  0.066830  0.019185      4.000000
 -0.039483  0.076262  0.019185      4.000000
 -0.014527  0.085695  0.019185      4.000000
 -0.064438 -0.093243  0.019185      2.000000
 -0.039483 -0.083811  0.019185      4.000000
 -0.014527 -0.074378  0.019185      4.000000
 -0.039483 -0.057132  0.019185      2.000000
 -0.014527 -0.047699  0.019185      4.000000
 -0.014527 -0.021021  0.019185      2.000000
  0.020857  0.030181  0.038370      2.000000
  0.045813  0.039613  0.038370      4.000000
  0.070769  0.049046  0.038370      4.000000
  0.095725  0.058478  0.038370      4.000000
 -0.054010  0.001884  0.038370      4.000000
 -0.029054  0.011316  0.038370      4.000000
 -0.004098  0.020749  0.038370      4.000000
  0.045813  0.066292  0.038370      2.000000
  0.070769  0.075725  0.038370      4.000000
  0.095725  0.085157  0.038370      4.000000
 -0.054010  0.028563  0.038370      4.000000
 -0.029054  0.037995  0.038370      4.000000
 -0.004098  0.047427  0.038370      4.000000
  0.070769  0.102403  0.038370      2.000000
  0.095725  0.111836  0.038370      4.000000
 -0.054010  0.055241  0.038370      4.000000
 -0.029054  0.064674  0.038370      4.000000
 -0.004098  0.074106  0.038370      4.000000
  0.095725  0.138515  0.038370      2.000000
 -0.054010  0.081920  0.038370      4.000000
 -0.029054  0.091353  0.038370      4.000000
 -0.004098  0.100785  0.038370      4.000000
 -0.054010 -0.078153  0.038370      2.000000
 -0.029054 -0.068720  0.038370      4.000000
 -0.004098 -0.059288  0.038370      4.000000
 -0.029054 -0.042041  0.038370      2.000000
 -0.004098 -0.032609  0.038370      4.000000
 -0.004098 -0.005930  0.038370      2.000000
  0.031286  0.045271  0.057555      2.000000
  0.056242  0.054704  0.057555      4.000000
  0.081198  0.064136  0.057555      4.000000
  0.106153  0.073569  0.057555      4.000000
 -0.043581  0.016974  0.057555      4.000000
 -0.018625  0.026407  0.057555      4.000000
  0.006330  0.035839  0.057555      4.000000
  0.056242  0.081383  0.057555      2.000000
  0.081198  0.090815  0.057555      4.000000
  0.106153  0.100247  0.057555      4.000000
 -0.043581  0.043653  0.057555      4.000000
 -0.018625  0.053086  0.057555      4.000000
  0.006330  0.062518  0.057555      4.000000
  0.081198  0.117494  0.057555      2.000000
  0.106153  0.126926  0.057555      4.000000
 -0.043581  0.070332  0.057555      4.000000
 -0.018625  0.079764  0.057555      4.000000
  0.006330  0.089197  0.057555      4.000000
  0.106153  0.153605  0.057555      2.000000
 -0.043581  0.097011  0.057555      4.000000
 -0.018625  0.106443  0.057555      4.000000
  0.006330  0.115875  0.057555      4.000000
 -0.043581 -0.063062  0.057555      2.000000
 -0.018625 -0.053630  0.057555      4.000000
  0.006330 -0.044197  0.057555      4.000000
 -0.018625 -0.026951  0.057555      2.000000
  0.006330 -0.017519  0.057555      4.000000
  0.006330  0.009160  0.057555      2.000000
  0.041715  0.060362  0.076740      1.000000
  0.066671  0.069794  0.076740      4.000000
  0.091626  0.079227  0.076740      4.000000
  0.116582  0.088659  0.076740      4.000000
  0.066671  0.096473  0.076740      2.000000
  0.091626  0.105906  0.076740      4.000000
  0.116582  0.115338  0.076740      4.000000
 -0.033152  0.058744  0.076740      4.000000
 -0.008196  0.068176  0.076740      4.000000
  0.016759  0.077608  0.076740      2.000000
  0.091626  0.132584  0.076740      2.000000
  0.116582  0.142017  0.076740      4.000000
 -0.033152  0.085422  0.076740      4.000000
 -0.008196  0.094855  0.076740      2.000000
  0.116582  0.168695  0.076740      2.000000
 -0.033152  0.112101  0.076740      2.000000
 


--------------------------------------------------------------------------------------------------------




 Dimension of arrays:
   k-points           NKPTS =    116   k-points in BZ     NKDIM =    116   number of bands    NBANDS=     60
   number of dos      NEDOS =    301   number of ions     NIONS =     10
   non local maximal  LDIM  =      6   non local SUM 2l+1 LMDIM =     18
   total plane-waves  NPLWV = 157464
   max r-space proj   IRMAX =      1   max aug-charges    IRDMAX= 276003
   dimension x,y,z NGX =    54 NGY =   54 NGZ =   54
   dimension x,y,z NGXF=   108 NGYF=  108 NGZF=  108
   support grid    NGXF=   216 NGYF=  216 NGZF=  216
   ions per type =               2   6   2
   NGX,Y,Z   is equivalent  to a cutoff of  13.78, 13.78, 13.78 a.u.
   NGXF,Y,Z  is equivalent  to a cutoff of  27.56, 27.56, 27.56 a.u.

 SYSTEM =  routine with relax: pwdword             
 POSCAR =  EA141                                   

 Startparameter for this run:
   NWRITE =      2    write-flag & timer
   PREC   = acc       normal or accurate (medium, high low for compatibility)
   ISTART =      0    job   : 0-new  1-cont  2-samecut
   ICHARG =      2    charge: 1-file 2-atom 10-const
   ISPIN  =      1    spin polarized calculation?
   LNONCOLLINEAR =      F non collinear calculations
   LSORBIT =      F    spin-orbit coupling
   INIWAV =      1    electr: 0-lowe 1-rand  2-diag
   LASPH  =      T    aspherical Exc in radial PAW
   METAGGA=      F    non-selfconsistent MetaGGA calc.

 Electronic Relaxation 1
   ENCUT  =  600.0 eV  44.10 Ry    6.64 a.u.  13.01 13.01 13.01*2*pi/ulx,y,z
   ENINI  =  600.0     initial cutoff
   ENAUG  =  535.5 eV  augmentation charge cutoff
   NELM   =    100;   NELMIN=  6; NELMDL= -5     # of ELM steps 
   EDIFF  = 0.1E-08   stopping-criterion for ELM
   LREAL  =      F    real-space projection
   NLSPLINE    = F    spline interpolate recip. space projectors
   LCOMPAT=      F    compatible to vasp.4.4
   GGA_COMPAT  = T    GGA compatible to vasp.4.4-vasp.4.6
   LMAXPAW     = -100 max onsite density
   LMAXMIX     =    2 max onsite mixed and CHGCAR
   VOSKOWN=      0    Vosko Wilk Nusair interpolation
   ROPT   =    0.00000   0.00000   0.00000
 Ionic relaxation
   EDIFFG = 0.1E-07   stopping-criterion for IOM
   NSW    =      0    number of steps for IOM
   NBLOCK =      1;   KBLOCK =      1    inner block; outer block 
   IBRION =     -1    ionic relax: 0-MD 1-quasi-New 2-CG
   NFREE  =      0    steps in history (QN), initial steepest desc. (CG)
   ISIF   =     -1    stress and relaxation
   IWAVPR =     10    prediction:  0-non 1-charg 2-wave 3-comb
   ISYM   =      2    0-nonsym 1-usesym 2-fastsym
   LCORR  =      T    Harris-Foulkes like correction to forces

   POTIM  = 0.5000    time-step for ionic-motion
   TEIN   =    0.0    initial temperature
   TEBEG  =    0.0;   TEEND  =   0.0 temperature during run
   SMASS  =  -3.00    Nose mass-parameter (am)
   estimated Nose-frequenzy (Omega)   =  0.10E-29 period in steps = 0.13E+47 mass=  -0.970E-27a.u.
   SCALEE = 1.0000    scale energy and forces
   NPACO  =    256;   APACO  = 16.0  distance and # of slots for P.C.
   PSTRESS=    0.0 pullay stress

  Mass of Ions in am
   POMASS =  10.81 95.94 28.09
  Ionic Valenz
   ZVAL   =   3.00 14.00  4.00
  Atomic Wigner-Seitz radii
   RWIGS  =  -1.00 -1.00 -1.00
  virtual crystal weights 
   VCA    =   1.00  1.00  1.00
   NELECT =      98.0000    total number of electrons
   NUPDOWN=      -1.0000    fix difference up-down

 DOS related values:
   EMIN   =  10.00;   EMAX   =-10.00  energy-range for DOS
   EFERMI =   0.00
   ISMEAR =     0;   SIGMA  =   0.02  broadening in eV -4-tet -1-fermi 0-gaus

 Electronic relaxation 2 (details)
   IALGO  =     58    algorithm
   LDIAG  =      T    sub-space diagonalisation (order eigenvalues)
   LSUBROT=      F    optimize rotation matrix (better conditioning)
   TURBO    =      0    0=normal 1=particle mesh
   IRESTART =      0    0=no restart 2=restart with 2 vectors
   NREBOOT  =      0    no. of reboots
   NMIN     =      0    reboot dimension
   EREF     =   0.00    reference energy to select bands
   IMIX   =      4    mixing-type and parameters
     AMIX     =   0.40;   BMIX     =  1.00
     AMIX_MAG =   1.60;   BMIX_MAG =  1.00
     AMIN     =   0.10
     WC   =   100.;   INIMIX=   1;  MIXPRE=   1;  MAXMIX= -45

 Intra band minimization:
   WEIMIN = 0.0000     energy-eigenvalue tresh-hold
   EBREAK =  0.42E-11  absolut break condition
   DEPER  =   0.30     relativ break condition  

   TIME   =   0.40     timestep for ELM

  volume/ion in A,a.u.               =      19.97       134.78
  Fermi-wavevector in a.u.,A,eV,Ry     =   1.291254  2.440116 22.685490  1.667336
  Thomas-Fermi vector in A             =   2.423035
 
 Write flags
   LWAVE        =      T    write WAVECAR
   LDOWNSAMPLE  =      F    k-point downsampling of WAVECAR
   LCHARG       =      T    write CHGCAR
   LVTOT        =      F    write LOCPOT, total local potential
   LVHAR        =      F    write LOCPOT, Hartree potential only
   LELF         =      F    write electronic localiz. function (ELF)
   LORBIT       =      0    0 simple, 1 ext, 2 COOP (PROOUT), +10 PAW based schemes


 Dipole corrections
   LMONO  =      F    monopole corrections only (constant potential shift)
   LDIPOL =      F    correct potential (dipole corrections)
   IDIPOL =      0    1-x, 2-y, 3-z, 4-all directions 
   EPSILON=  1.0000000 bulk dielectric constant

 Exchange correlation treatment:
   GGA     =    --    GGA type
   LEXCH   =     8    internal setting for exchange type
   VOSKOWN=      0    Vosko Wilk Nusair interpolation
   LHFCALC =     F    Hartree Fock is set to
   LHFONE  =     F    Hartree Fock one center treatment
   AEXX    =    0.0000 exact exchange contribution

 Linear response parameters
   LEPSILON=     F    determine dielectric tensor
   LRPA    =     F    only Hartree local field effects (RPA)
   LNABLA  =     F    use nabla operator in PAW spheres
   LVEL    =     F    velocity operator in full k-point grid
   LINTERFAST=   F  fast interpolation
   KINTER  =     0    interpolate to denser k-point grid
   CSHIFT  =0.1000    complex shift for real part using Kramers Kronig
   OMEGAMAX=  -1.0    maximum frequency
   DEG_THRESHOLD= 0.2000000E-02 threshold for treating states as degnerate
   RTIME   =   -0.100 relaxation time in fs
  (WPLASMAI=    0.000 imaginary part of plasma frequency in eV, 0.658/RTIME)
   DFIELD  = 0.0000000 0.0000000 0.0000000 field for delta impulse in time
 
 Orbital magnetization related:
   ORBITALMAG=     F  switch on orbital magnetization
   LCHIMAG   =     F  perturbation theory with respect to B field
   DQ        =  0.001000  dq finite difference perturbation B field
   LLRAUG    =     F  two centre corrections for induced B field



--------------------------------------------------------------------------------------------------------


 Static calculation
 charge density and potential will be updated during run
 non-spin polarized calculation
 Conjugate gradient for all bands (Freysoldt, et al. PRB 79, 241103 (2009))
 preconditioned conjugated gradient                                        
 perform sub-space diagonalisation
    before iterative eigenvector-optimisation
 modified Broyden-mixing scheme, WC =      100.0
 initial mixing is a Kerker type mixing with AMIX =  0.4000 and BMIX =      1.0000
 Hartree-type preconditioning will be used
 using additional bands           11
 reciprocal scheme for non local part
 use partial core corrections
 no Harris-corrections to forces 
 use gradient corrections 
 use of overlap-Matrix (Vanderbilt PP)
 Gauss-broadening in eV      SIGMA  =   0.02


--------------------------------------------------------------------------------------------------------


  energy-cutoff  :      600.00
  volume of cell :      199.72
      direct lattice vectors                 reciprocal lattice vectors
     5.724421691  0.000000000 -3.111730526     0.174690135  0.066026658  0.000000000
    -2.023888502  5.354706250 -3.111730526     0.000000000  0.186751608  0.000000000
     0.000000000  0.000000000  6.515510000     0.083429943  0.120723910  0.153479927

  length of vectors
     6.515510000  6.515510000  6.515510000     0.186751608  0.186751608  0.212346193


 
 k-points in units of 2pi/SCALE and weight: EA                                      
   0.00000000  0.00000000  0.00000000       0.003
   0.02495573  0.00943238  0.00000000       0.010
   0.04991147  0.01886476  0.00000000       0.010
   0.07486720  0.02829714  0.00000000       0.010
   0.02495573  0.03611118  0.00000000       0.005
   0.04991147  0.04554356  0.00000000       0.010
   0.07486720  0.05497594  0.00000000       0.010
  -0.07486720 -0.00161834  0.00000000       0.010
  -0.04991147  0.00781404  0.00000000       0.010
  -0.02495573  0.01724642  0.00000000       0.005
   0.04991147  0.07222236  0.00000000       0.005
   0.07486720  0.08165474  0.00000000       0.010
  -0.07486720  0.02506046  0.00000000       0.010
  -0.04991147  0.03449284  0.00000000       0.005
   0.07486720  0.10833354  0.00000000       0.005
  -0.07486720  0.05173926  0.00000000       0.005
   0.01042874  0.01509049  0.01918499       0.005
   0.03538448  0.02452287  0.01918499       0.010
   0.06034021  0.03395525  0.01918499       0.010
   0.08529594  0.04338763  0.01918499       0.010
  -0.06443846 -0.01320665  0.01918499       0.010
  -0.03948272 -0.00377427  0.01918499       0.010
  -0.01452699  0.00565811  0.01918499       0.010
   0.03538448  0.05120167  0.01918499       0.005
   0.06034021  0.06063405  0.01918499       0.010
   0.08529594  0.07006643  0.01918499       0.010
  -0.06443846  0.01347215  0.01918499       0.010
  -0.03948272  0.02290453  0.01918499       0.010
  -0.01452699  0.03233691  0.01918499       0.010
   0.06034021  0.08731285  0.01918499       0.005
   0.08529594  0.09674523  0.01918499       0.010
  -0.06443846  0.04015095  0.01918499       0.010
  -0.03948272  0.04958333  0.01918499       0.010
  -0.01452699  0.05901571  0.01918499       0.010
   0.08529594  0.12342403  0.01918499       0.005
  -0.06443846  0.06682975  0.01918499       0.010
  -0.03948272  0.07626213  0.01918499       0.010
  -0.01452699  0.08569451  0.01918499       0.010
  -0.06443846 -0.09324305  0.01918499       0.005
  -0.03948272 -0.08381067  0.01918499       0.010
  -0.01452699 -0.07437829  0.01918499       0.010
  -0.03948272 -0.05713187  0.01918499       0.005
  -0.01452699 -0.04769949  0.01918499       0.010
  -0.01452699 -0.02102069  0.01918499       0.005
   0.02085749  0.03018098  0.03836998       0.005
   0.04581322  0.03961336  0.03836998       0.010
   0.07076895  0.04904574  0.03836998       0.010
   0.09572469  0.05847812  0.03836998       0.010
  -0.05400972  0.00188384  0.03836998       0.010
  -0.02905398  0.01131622  0.03836998       0.010
  -0.00409825  0.02074860  0.03836998       0.010
   0.04581322  0.06629216  0.03836998       0.005
   0.07076895  0.07572454  0.03836998       0.010
   0.09572469  0.08515692  0.03836998       0.010
  -0.05400972  0.02856264  0.03836998       0.010
  -0.02905398  0.03799502  0.03836998       0.010
  -0.00409825  0.04742740  0.03836998       0.010
   0.07076895  0.10240334  0.03836998       0.005
   0.09572469  0.11183572  0.03836998       0.010
  -0.05400972  0.05524144  0.03836998       0.010
  -0.02905398  0.06467382  0.03836998       0.010
  -0.00409825  0.07410620  0.03836998       0.010
   0.09572469  0.13851452  0.03836998       0.005
  -0.05400972  0.08192024  0.03836998       0.010
  -0.02905398  0.09135262  0.03836998       0.010
  -0.00409825  0.10078500  0.03836998       0.010
  -0.05400972 -0.07815256  0.03836998       0.005
  -0.02905398 -0.06872018  0.03836998       0.010
  -0.00409825 -0.05928781  0.03836998       0.010
  -0.02905398 -0.04204138  0.03836998       0.005
  -0.00409825 -0.03260900  0.03836998       0.010
  -0.00409825 -0.00593020  0.03836998       0.005
   0.03128623  0.04527147  0.05755497       0.005
   0.05624196  0.05470385  0.05755497       0.010
   0.08119770  0.06413623  0.05755497       0.010
   0.10615343  0.07356861  0.05755497       0.010
  -0.04358097  0.01697433  0.05755497       0.010
  -0.01862524  0.02640671  0.05755497       0.010
   0.00633049  0.03583909  0.05755497       0.010
   0.05624196  0.08138265  0.05755497       0.005
   0.08119770  0.09081503  0.05755497       0.010
   0.10615343  0.10024741  0.05755497       0.010
  -0.04358097  0.04365313  0.05755497       0.010
  -0.01862524  0.05308551  0.05755497       0.010
   0.00633049  0.06251789  0.05755497       0.010
   0.08119770  0.11749383  0.05755497       0.005
   0.10615343  0.12692621  0.05755497       0.010
  -0.04358097  0.07033193  0.05755497       0.010
  -0.01862524  0.07976431  0.05755497       0.010
   0.00633049  0.08919669  0.05755497       0.010
   0.10615343  0.15360501  0.05755497       0.005
  -0.04358097  0.09701073  0.05755497       0.010
  -0.01862524  0.10644311  0.05755497       0.010
   0.00633049  0.11587549  0.05755497       0.010
  -0.04358097 -0.06306208  0.05755497       0.005
  -0.01862524 -0.05362970  0.05755497       0.010
   0.00633049 -0.04419732  0.05755497       0.010
  -0.01862524 -0.02695090  0.05755497       0.005
   0.00633049 -0.01751852  0.05755497       0.010
   0.00633049  0.00916029  0.05755497       0.005
   0.04171497  0.06036196  0.07673996       0.003
   0.06667071  0.06979433  0.07673996       0.010
   0.09162644  0.07922671  0.07673996       0.010
   0.11658217  0.08865909  0.07673996       0.010
   0.06667071  0.09647314  0.07673996       0.005
   0.09162644  0.10590552  0.07673996       0.010
   0.11658217  0.11533790  0.07673996       0.010
  -0.03315223  0.05874362  0.07673996       0.010
  -0.00819650  0.06817600  0.07673996       0.010
   0.01675924  0.07760838  0.07673996       0.005
   0.09162644  0.13258432  0.07673996       0.005
   0.11658217  0.14201670  0.07673996       0.010
  -0.03315223  0.08542242  0.07673996       0.010
  -0.00819650  0.09485480  0.07673996       0.005
   0.11658217  0.16869550  0.07673996       0.005
  -0.03315223  0.11210122  0.07673996       0.005
 
 k-points in reciprocal lattice and weights: EA                                      
   0.00000000  0.00000000  0.00000000       0.003
   0.14285714  0.00000000  0.00000000       0.010
   0.28571429  0.00000000  0.00000000       0.010
   0.42857143 -0.00000000  0.00000000       0.010
   0.14285714  0.14285714  0.00000000       0.005
   0.28571429  0.14285714  0.00000000       0.010
   0.42857143  0.14285714  0.00000000       0.010
  -0.42857143  0.14285714  0.00000000       0.010
  -0.28571429  0.14285714  0.00000000       0.010
  -0.14285714  0.14285714  0.00000000       0.005
   0.28571429  0.28571429  0.00000000       0.005
   0.42857143  0.28571429  0.00000000       0.010
  -0.42857143  0.28571429  0.00000000       0.010
  -0.28571429  0.28571429  0.00000000       0.005
   0.42857143  0.42857143  0.00000000       0.005
  -0.42857143  0.42857143  0.00000000       0.005
   0.00000000  0.00000000  0.12500000       0.005
   0.14285714  0.00000000  0.12500000       0.010
   0.28571429  0.00000000  0.12500000       0.010
   0.42857143 -0.00000000  0.12500000       0.010
  -0.42857143  0.00000000  0.12500000       0.010
  -0.28571429  0.00000000  0.12500000       0.010
  -0.14285714  0.00000000  0.12500000       0.010
   0.14285714  0.14285714  0.12500000       0.005
   0.28571429  0.14285714  0.12500000       0.010
   0.42857143  0.14285714  0.12500000       0.010
  -0.42857143  0.14285714  0.12500000       0.010
  -0.28571429  0.14285714  0.12500000       0.010
  -0.14285714  0.14285714  0.12500000       0.010
   0.28571429  0.28571429  0.12500000       0.005
   0.42857143  0.28571429  0.12500000       0.010
  -0.42857143  0.28571429  0.12500000       0.010
  -0.28571429  0.28571429  0.12500000       0.010
  -0.14285714  0.28571429  0.12500000       0.010
   0.42857143  0.42857143  0.12500000       0.005
  -0.42857143  0.42857143  0.12500000       0.010
  -0.28571429  0.42857143  0.12500000       0.010
  -0.14285714  0.42857143  0.12500000       0.010
  -0.42857143 -0.42857143  0.12500000       0.005
  -0.28571429 -0.42857143  0.12500000       0.010
  -0.14285714 -0.42857143  0.12500000       0.010
  -0.28571429 -0.28571429  0.12500000       0.005
  -0.14285714 -0.28571429  0.12500000       0.010
  -0.14285714 -0.14285714  0.12500000       0.005
   0.00000000  0.00000000  0.25000000       0.005
   0.14285714  0.00000000  0.25000000       0.010
   0.28571429  0.00000000  0.25000000       0.010
   0.42857143 -0.00000000  0.25000000       0.010
  -0.42857143  0.00000000  0.25000000       0.010
  -0.28571429  0.00000000  0.25000000       0.010
  -0.14285714  0.00000000  0.25000000       0.010
   0.14285714  0.14285714  0.25000000       0.005
   0.28571429  0.14285714  0.25000000       0.010
   0.42857143  0.14285714  0.25000000       0.010
  -0.42857143  0.14285714  0.25000000       0.010
  -0.28571429  0.14285714  0.25000000       0.010
  -0.14285714  0.14285714  0.25000000       0.010
   0.28571429  0.28571429  0.25000000       0.005
   0.42857143  0.28571429  0.25000000       0.010
  -0.42857143  0.28571429  0.25000000       0.010
  -0.28571429  0.28571429  0.25000000       0.010
  -0.14285714  0.28571429  0.25000000       0.010
   0.42857143  0.42857143  0.25000000       0.005
  -0.42857143  0.42857143  0.25000000       0.010
  -0.28571429  0.42857143  0.25000000       0.010
  -0.14285714  0.42857143  0.25000000       0.010
  -0.42857143 -0.42857143  0.25000000       0.005
  -0.28571429 -0.42857143  0.25000000       0.010
  -0.14285714 -0.42857143  0.25000000       0.010
  -0.28571429 -0.28571429  0.25000000       0.005
  -0.14285714 -0.28571429  0.25000000       0.010
  -0.14285714 -0.14285714  0.25000000       0.005
   0.00000000  0.00000000  0.37500000       0.005
   0.14285714  0.00000000  0.37500000       0.010
   0.28571429  0.00000000  0.37500000       0.010
   0.42857143  0.00000000  0.37500000       0.010
  -0.42857143  0.00000000  0.37500000       0.010
  -0.28571429  0.00000000  0.37500000       0.010
  -0.14285714  0.00000000  0.37500000       0.010
   0.14285714  0.14285714  0.37500000       0.005
   0.28571429  0.14285714  0.37500000       0.010
   0.42857143  0.14285714  0.37500000       0.010
  -0.42857143  0.14285714  0.37500000       0.010
  -0.28571429  0.14285714  0.37500000       0.010
  -0.14285714  0.14285714  0.37500000       0.010
   0.28571429  0.28571429  0.37500000       0.005
   0.42857143  0.28571429  0.37500000       0.010
  -0.42857143  0.28571429  0.37500000       0.010
  -0.28571429  0.28571429  0.37500000       0.010
  -0.14285714  0.28571429  0.37500000       0.010
   0.42857143  0.42857143  0.37500000       0.005
  -0.42857143  0.42857143  0.37500000       0.010
  -0.28571429  0.42857143  0.37500000       0.010
  -0.14285714  0.42857143  0.37500000       0.010
  -0.42857143 -0.42857143  0.37500000       0.005
  -0.28571429 -0.42857143  0.37500000       0.010
  -0.14285714 -0.42857143  0.37500000       0.010
  -0.28571429 -0.28571429  0.37500000       0.005
  -0.14285714 -0.28571429  0.37500000       0.010
  -0.14285714 -0.14285714  0.37500000       0.005
   0.00000000  0.00000000  0.50000000       0.003
   0.14285714 -0.00000000  0.50000000       0.010
   0.28571429 -0.00000000  0.50000000       0.010
   0.42857143  0.00000000  0.50000000       0.010
   0.14285714  0.14285714  0.50000000       0.005
   0.28571429  0.14285714  0.50000000       0.010
   0.42857143  0.14285714  0.50000000       0.010
  -0.42857143  0.14285714  0.50000000       0.010
  -0.28571429  0.14285714  0.50000000       0.010
  -0.14285714  0.14285714  0.50000000       0.005
   0.28571429  0.28571429  0.50000000       0.005
   0.42857143  0.28571429  0.50000000       0.010
  -0.42857143  0.28571429  0.50000000       0.010
  -0.28571429  0.28571429  0.50000000       0.005
   0.42857143  0.42857143  0.50000000       0.005
  -0.42857143  0.42857143  0.50000000       0.005
 
 position of ions in fractional coordinates (direct lattice) 
   0.50000000  0.00000000  0.50000000
   0.00000000  0.50000000  0.50000000
   0.25013000  0.75013000  0.00026000
   0.50000000  0.50000000  0.00000000
   0.74987000  0.24987000  0.99974000
   0.75013000  0.74987000  0.50000000
   0.24987000  0.25013000  0.50000000
   0.00000000  0.00000000  0.00000000
   0.25000000  0.25000000  0.00000000
   0.75000000  0.75000000  0.00000000
 
 position of ions in cartesian coordinates  (Angst):
   2.86221085  0.00000000  1.70188974
  -1.01194425  2.67735313  1.70188974
  -0.08632988  4.01672580 -3.11084554
   1.85026659  2.67735313 -3.11173053
   3.78686307  1.33798045  3.40289449
   2.77640717  4.01533358 -1.40984079
   0.92412602  1.33937267  1.70188974
   0.00000000  0.00000000  0.00000000
   0.92513330  1.33867656 -1.55586526
   2.77539989  4.01602969 -4.66759579
 


--------------------------------------------------------------------------------------------------------


 k-point   1 :   0.0000 0.0000 0.0000  plane waves:    6629
 k-point   2 :   0.1429 0.0000 0.0000  plane waves:    6643
 k-point   3 :   0.2857 0.0000 0.0000  plane waves:    6656
 k-point   4 :   0.4286-0.0000 0.0000  plane waves:    6664
 k-point   5 :   0.1429 0.1429 0.0000  plane waves:    6665
 k-point   6 :   0.2857 0.1429 0.0000  plane waves:    6657
 k-point   7 :   0.4286 0.1429 0.0000  plane waves:    6666
 k-point   8 :  -0.4286 0.1429 0.0000  plane waves:    6660
 k-point   9 :  -0.2857 0.1429 0.0000  plane waves:    6650
 k-point  10 :  -0.1429 0.1429 0.0000  plane waves:    6645
 k-point  11 :   0.2857 0.2857 0.0000  plane waves:    6670
 k-point  12 :   0.4286 0.2857 0.0000  plane waves:    6662
 k-point  13 :  -0.4286 0.2857 0.0000  plane waves:    6660
 k-point  14 :  -0.2857 0.2857 0.0000  plane waves:    6653
 k-point  15 :   0.4286 0.4286 0.0000  plane waves:    6649
 k-point  16 :  -0.4286 0.4286 0.0000  plane waves:    6632
 k-point  17 :   0.0000 0.0000 0.1250  plane waves:    6647
 k-point  18 :   0.1429 0.0000 0.1250  plane waves:    6658
 k-point  19 :   0.2857 0.0000 0.1250  plane waves:    6657
 k-point  20 :   0.4286-0.0000 0.1250  plane waves:    6662
 k-point  21 :  -0.4286 0.0000 0.1250  plane waves:    6654
 k-point  22 :  -0.2857 0.0000 0.1250  plane waves:    6657
 k-point  23 :  -0.1429 0.0000 0.1250  plane waves:    6636
 k-point  24 :   0.1429 0.1429 0.1250  plane waves:    6661
 k-point  25 :   0.2857 0.1429 0.1250  plane waves:    6675
 k-point  26 :   0.4286 0.1429 0.1250  plane waves:    6664
 k-point  27 :  -0.4286 0.1429 0.1250  plane waves:    6663
 k-point  28 :  -0.2857 0.1429 0.1250  plane waves:    6659
 k-point  29 :  -0.1429 0.1429 0.1250  plane waves:    6660
 k-point  30 :   0.2857 0.2857 0.1250  plane waves:    6670
 k-point  31 :   0.4286 0.2857 0.1250  plane waves:    6673
 k-point  32 :  -0.4286 0.2857 0.1250  plane waves:    6663
 k-point  33 :  -0.2857 0.2857 0.1250  plane waves:    6669
 k-point  34 :  -0.1429 0.2857 0.1250  plane waves:    6656
 k-point  35 :   0.4286 0.4286 0.1250  plane waves:    6651
 k-point  36 :  -0.4286 0.4286 0.1250  plane waves:    6646
 k-point  37 :  -0.2857 0.4286 0.1250  plane waves:    6665
 k-point  38 :  -0.1429 0.4286 0.1250  plane waves:    6684
 k-point  39 :  -0.4286-0.4286 0.1250  plane waves:    6654
 k-point  40 :  -0.2857-0.4286 0.1250  plane waves:    6674
 k-point  41 :  -0.1429-0.4286 0.1250  plane waves:    6680
 k-point  42 :  -0.2857-0.2857 0.1250  plane waves:    6667
 k-point  43 :  -0.1429-0.2857 0.1250  plane waves:    6662
 k-point  44 :  -0.1429-0.1429 0.1250  plane waves:    6625
 k-point  45 :   0.0000 0.0000 0.2500  plane waves:    6657
 k-point  46 :   0.1429 0.0000 0.2500  plane waves:    6663
 k-point  47 :   0.2857 0.0000 0.2500  plane waves:    6663
 k-point  48 :   0.4286-0.0000 0.2500  plane waves:    6666
 k-point  49 :  -0.4286 0.0000 0.2500  plane waves:    6662
 k-point  50 :  -0.2857 0.0000 0.2500  plane waves:    6650
 k-point  51 :  -0.1429 0.0000 0.2500  plane waves:    6660
 k-point  52 :   0.1429 0.1429 0.2500  plane waves:    6667
 k-point  53 :   0.2857 0.1429 0.2500  plane waves:    6676
 k-point  54 :   0.4286 0.1429 0.2500  plane waves:    6667
 k-point  55 :  -0.4286 0.1429 0.2500  plane waves:    6657
 k-point  56 :  -0.2857 0.1429 0.2500  plane waves:    6659
 k-point  57 :  -0.1429 0.1429 0.2500  plane waves:    6676
 k-point  58 :   0.2857 0.2857 0.2500  plane waves:    6675
 k-point  59 :   0.4286 0.2857 0.2500  plane waves:    6661
 k-point  60 :  -0.4286 0.2857 0.2500  plane waves:    6661
 k-point  61 :  -0.2857 0.2857 0.2500  plane waves:    6681
 k-point  62 :  -0.1429 0.2857 0.2500  plane waves:    6674
 k-point  63 :   0.4286 0.4286 0.2500  plane waves:    6657
 k-point  64 :  -0.4286 0.4286 0.2500  plane waves:    6672
 k-point  65 :  -0.2857 0.4286 0.2500  plane waves:    6681
 k-point  66 :  -0.1429 0.4286 0.2500  plane waves:    6672
 k-point  67 :  -0.4286-0.4286 0.2500  plane waves:    6681
 k-point  68 :  -0.2857-0.4286 0.2500  plane waves:    6677
 k-point  69 :  -0.1429-0.4286 0.2500  plane waves:    6681
 k-point  70 :  -0.2857-0.2857 0.2500  plane waves:    6690
 k-point  71 :  -0.1429-0.2857 0.2500  plane waves:    6662
 k-point  72 :  -0.1429-0.1429 0.2500  plane waves:    6652
 k-point  73 :   0.0000 0.0000 0.3750  plane waves:    6647
 k-point  74 :   0.1429 0.0000 0.3750  plane waves:    6647
 k-point  75 :   0.2857 0.0000 0.3750  plane waves:    6660
 k-point  76 :   0.4286 0.0000 0.3750  plane waves:    6663
 k-point  77 :  -0.4286 0.0000 0.3750  plane waves:    6651
 k-point  78 :  -0.2857 0.0000 0.3750  plane waves:    6660
 k-point  79 :  -0.1429 0.0000 0.3750  plane waves:    6666
 k-point  80 :   0.1429 0.1429 0.3750  plane waves:    6655
 k-point  81 :   0.2857 0.1429 0.3750  plane waves:    6665
 k-point  82 :   0.4286 0.1429 0.3750  plane waves:    6664
 k-point  83 :  -0.4286 0.1429 0.3750  plane waves:    6680
 k-point  84 :  -0.2857 0.1429 0.3750  plane waves:    6666
 k-point  85 :  -0.1429 0.1429 0.3750  plane waves:    6658
 k-point  86 :   0.2857 0.2857 0.3750  plane waves:    6664
 k-point  87 :   0.4286 0.2857 0.3750  plane waves:    6665
 k-point  88 :  -0.4286 0.2857 0.3750  plane waves:    6684
 k-point  89 :  -0.2857 0.2857 0.3750  plane waves:    6664
 k-point  90 :  -0.1429 0.2857 0.3750  plane waves:    6662
 k-point  91 :   0.4286 0.4286 0.3750  plane waves:    6680
 k-point  92 :  -0.4286 0.4286 0.3750  plane waves:    6694
 k-point  93 :  -0.2857 0.4286 0.3750  plane waves:    6676
 k-point  94 :  -0.1429 0.4286 0.3750  plane waves:    6666
 k-point  95 :  -0.4286-0.4286 0.3750  plane waves:    6693
 k-point  96 :  -0.2857-0.4286 0.3750  plane waves:    6687
 k-point  97 :  -0.1429-0.4286 0.3750  plane waves:    6677
 k-point  98 :  -0.2857-0.2857 0.3750  plane waves:    6680
 k-point  99 :  -0.1429-0.2857 0.3750  plane waves:    6656
 k-point 100 :  -0.1429-0.1429 0.3750  plane waves:    6661
 k-point 101 :   0.0000 0.0000 0.5000  plane waves:    6670
 k-point 102 :   0.1429-0.0000 0.5000  plane waves:    6647
 k-point 103 :   0.2857-0.0000 0.5000  plane waves:    6671
 k-point 104 :   0.4286 0.0000 0.5000  plane waves:    6673
 k-point 105 :   0.1429 0.1429 0.5000  plane waves:    6659
 k-point 106 :   0.2857 0.1429 0.5000  plane waves:    6667
 k-point 107 :   0.4286 0.1429 0.5000  plane waves:    6673
 k-point 108 :  -0.4286 0.1429 0.5000  plane waves:    6678
 k-point 109 :  -0.2857 0.1429 0.5000  plane waves:    6659
 k-point 110 :  -0.1429 0.1429 0.5000  plane waves:    6660
 k-point 111 :   0.2857 0.2857 0.5000  plane waves:    6668
 k-point 112 :   0.4286 0.2857 0.5000  plane waves:    6683
 k-point 113 :  -0.4286 0.2857 0.5000  plane waves:    6683
 k-point 114 :  -0.2857 0.2857 0.5000  plane waves:    6680
 k-point 115 :   0.4286 0.4286 0.5000  plane waves:    6696
 k-point 116 :  -0.4286 0.4286 0.5000  plane waves:    6692

 maximum and minimum number of plane-waves per node :      3403     3262

 maximum number of plane-waves:      6696
 maximum index in each direction: 
   IXMAX=   13   IYMAX=   13   IZMAX=   13
   IXMIN=  -13   IYMIN=  -13   IZMIN=  -13


 parallel 3D FFT for wavefunctions:
    minimum data exchange during FFTs selected (reduces bandwidth)
 parallel 3D FFT for charge:
    minimum data exchange during FFTs selected (reduces bandwidth)


 total amount of memory used by VASP MPI-rank0   419939. kBytes
=======================================================================

   base      :      30000. kBytes
   nonl-proj :     168310. kBytes
   fftplans  :      17769. kBytes
   grid      :      13358. kBytes
   one-center:         77. kBytes
   wavefun   :     190425. kBytes
 
     INWAV:  cpu time    0.0001: real time    0.0001
 Broyden mixing: mesh for mixing (old mesh)
   NGX = 27   NGY = 27   NGZ = 27
  (NGX  =108   NGY  =108   NGZ  =108)
  gives a total of  19683 points

 initial charge density was supplied:
 charge density of overlapping atoms calculated
 number of electron      98.0000000 magnetization 
 keeping initial charge density in first step


--------------------------------------------------------------------------------------------------------


 Maximum index for augmentation-charges        22455 (set IRDMAX)


--------------------------------------------------------------------------------------------------------


 First call to EWALD:  gamma=   0.303
 Maximum number of real-space cells 3x 3x 3
 Maximum number of reciprocal cells 3x 3x 3

    FEWALD:  cpu time    0.0023: real time    0.0023


--------------------------------------- Iteration      1(   1)  ---------------------------------------


    POTLOK:  cpu time    0.2410: real time    0.2433
    SETDIJ:  cpu time    0.6099: real time    0.6156
    TRIAL :  cpu time   29.0508: real time   29.3547
    CORREC:  cpu time    0.0020: real time    0.0020
    --------------------------------------------
      LOOP:  cpu time   30.0158: real time   30.3343

 eigenvalue-minimisations  : 15036
 total energy-change (2. order) : 0.1008176E+04  (-0.6496875E+04)
 number of electron      98.0000000 magnetization 
 augmentation part       98.0000000 magnetization 

 Free energy of the ion-electron system (eV)
  ---------------------------------------------------
  alpha Z        PSCENC =       418.31351498
  Ewald energy   TEWEN  =     -7181.75520467
  -Hartree energ DENC   =     -3884.06478394
  -exchange      EXHF   =         0.00000000
  -V(xc)+E(xc)   XCENC  =       461.28135926
  PAW double counting   =      9166.97638771    -9126.13493418
  entropy T*S    EENTRO =        -0.00153293
  eigenvalues    EBANDS =      -368.60580475
  atomic energy  EATOM  =     11522.16744521
  ---------------------------------------------------
  free energy    TOTEN  =      1008.17644671 eV

  energy without entropy =     1008.17797964  energy(sigma->0) =     1008.17721317


--------------------------------------------------------------------------------------------------------




--------------------------------------- Iteration      1(   2)  ---------------------------------------


    TRIAL :  cpu time   32.6491: real time   32.9747
    CORREC:  cpu time    0.0017: real time    0.0017
    --------------------------------------------
      LOOP:  cpu time   32.6538: real time   32.9797

 eigenvalue-minimisations  : 15396
 total energy-change (2. order) :-0.1171981E+04  (-0.1137946E+04)
 number of electron      98.0000000 magnetization 
 augmentation part       98.0000000 magnetization 

 Free energy of the ion-electron system (eV)
  ---------------------------------------------------
  alpha Z        PSCENC =       418.31351498
  Ewald energy   TEWEN  =     -7181.75520467
  -Hartree energ DENC   =     -3884.06478394
  -exchange      EXHF   =         0.00000000
  -V(xc)+E(xc)   XCENC  =       461.28135926
  PAW double counting   =      9166.97638771    -9126.13493418
  entropy T*S    EENTRO =        -0.00187065
  eigenvalues    EBANDS =     -1540.58687546
  atomic energy  EATOM  =     11522.16744521
  ---------------------------------------------------
  free energy    TOTEN  =      -163.80496172 eV

  energy without entropy =     -163.80309107  energy(sigma->0) =     -163.80402640


--------------------------------------------------------------------------------------------------------




--------------------------------------- Iteration      1(   3)  ---------------------------------------


    TRIAL :  cpu time   36.7159: real time   37.0736
    CORREC:  cpu time    0.0144: real time    0.0145
    --------------------------------------------
      LOOP:  cpu time   36.7329: real time   37.0909

 eigenvalue-minimisations  : 18372
 total energy-change (2. order) :-0.4961406E+02  (-0.4749533E+02)
 number of electron      98.0000000 magnetization 
 augmentation part       98.0000000 magnetization 

 Free energy of the ion-electron system (eV)
  ---------------------------------------------------
  alpha Z        PSCENC =       418.31351498
  Ewald energy   TEWEN  =     -7181.75520467
  -Hartree energ DENC   =     -3884.06478394
  -exchange      EXHF   =         0.00000000
  -V(xc)+E(xc)   XCENC  =       461.28135926
  PAW double counting   =      9166.97638771    -9126.13493418
  entropy T*S    EENTRO =        -0.00127838
  eigenvalues    EBANDS =     -1590.20152349
  atomic energy  EATOM  =     11522.16744521
  ---------------------------------------------------
  free energy    TOTEN  =      -213.41901749 eV

  energy without entropy =     -213.41773910  energy(sigma->0) =     -213.41837830


--------------------------------------------------------------------------------------------------------




--------------------------------------- Iteration      1(   4)  ---------------------------------------


    TRIAL :  cpu time   35.5783: real time   35.9410
    CORREC:  cpu time    0.0019: real time    0.0019
    --------------------------------------------
      LOOP:  cpu time   35.5813: real time   35.9458

 eigenvalue-minimisations  : 17400
 total energy-change (2. order) :-0.1411478E+01  (-0.1384248E+01)
 number of electron      98.0000000 magnetization 
 augmentation part       98.0000000 magnetization 

 Free energy of the ion-electron system (eV)
  ---------------------------------------------------
  alpha Z        PSCENC =       418.31351498
  Ewald energy   TEWEN  =     -7181.75520467
  -Hartree energ DENC   =     -3884.06478394
  -exchange      EXHF   =         0.00000000
  -V(xc)+E(xc)   XCENC  =       461.28135926
  PAW double counting   =      9166.97638771    -9126.13493418
  entropy T*S    EENTRO =        -0.00117538
  eigenvalues    EBANDS =     -1591.61310479
  atomic energy  EATOM  =     11522.16744521
  ---------------------------------------------------
  free energy    TOTEN  =      -214.83049578 eV

  energy without entropy =     -214.82932040  energy(sigma->0) =     -214.82990809


--------------------------------------------------------------------------------------------------------




--------------------------------------- Iteration      1(   5)  ---------------------------------------


    TRIAL :  cpu time   36.8589: real time   37.2247
    CORREC:  cpu time    0.0019: real time    0.0019
    CHARGE:  cpu time    2.2844: real time    2.3025
    --------------------------------------------
      LOOP:  cpu time   39.1463: real time   39.5321

 eigenvalue-minimisations  : 17940
 total energy-change (2. order) :-0.4243604E-01  (-0.4230917E-01)
 number of electron      98.0000001 magnetization 
 augmentation part       12.7924790 magnetization 

 Free energy of the ion-electron system (eV)
  ---------------------------------------------------
  alpha Z        PSCENC =       418.31351498
  Ewald energy   TEWEN  =     -7181.75520467
  -Hartree energ DENC   =     -3884.06478394
  -exchange      EXHF   =         0.00000000
  -V(xc)+E(xc)   XCENC  =       461.28135926
  PAW double counting   =      9166.97638771    -9126.13493418
  entropy T*S    EENTRO =        -0.00121234
  eigenvalues    EBANDS =     -1591.65550386
  atomic energy  EATOM  =     11522.16744521
  ---------------------------------------------------
  free energy    TOTEN  =      -214.87293181 eV

  energy without entropy =     -214.87171947  energy(sigma->0) =     -214.87232564


--------------------------------------------------------------------------------------------------------




--------------------------------------- Iteration      1(   6)  ---------------------------------------


    POTLOK:  cpu time    0.1711: real time    0.1724
    SETDIJ:  cpu time    0.6017: real time    0.6060
    TRIAL :  cpu time   26.9031: real time   31.5071
    CORREC:  cpu time    7.9755: real time    8.0465
    CHARGE:  cpu time    2.9958: real time    3.0182
    --------------------------------------------
      LOOP:  cpu time   38.6575: real time   43.3611

 eigenvalue-minimisations  :     0
 total energy-change (2. order) : 0.7144258E+02  (-0.2122464E+02)
 number of electron      98.0000001 magnetization 
 augmentation part       14.1778803 magnetization 

 Free energy of the ion-electron system (eV)
  ---------------------------------------------------
  alpha Z        PSCENC =       418.31351498
  Ewald energy   TEWEN  =     -7181.75520467
  -Hartree energ DENC   =     -3644.45544617
  -exchange      EXHF   =         0.00000000
  -V(xc)+E(xc)   XCENC  =       463.28108934
  PAW double counting   =     13066.00287896   -13061.17905079
  entropy T*S    EENTRO =        -0.00188477
  eigenvalues    EBANDS =     -1725.80436516
  atomic energy  EATOM  =     11522.16744521
  ---------------------------------------------------
  free energy    TOTEN  =      -143.43035065 eV

  energy without entropy =     -143.42846588  energy(sigma->0) =     -143.42940826


--------------------------------------------------------------------------------------------------------




--------------------------------------- Iteration      1(   7)  ---------------------------------------


    POTLOK:  cpu time    0.1432: real time    0.1443
    SETDIJ:  cpu time    0.6005: real time    0.6051
    TRIAL :  cpu time   25.8516: real time   26.0950
    CORREC:  cpu time    9.8315: real time    9.9158
    CHARGE:  cpu time    2.2462: real time    2.2649
    --------------------------------------------
      LOOP:  cpu time   38.6814: real time   39.0345

 eigenvalue-minimisations  :     0
 total energy-change (2. order) :-0.2230102E+02  (-0.3670196E+01)
 number of electron      98.0000001 magnetization 
 augmentation part       14.3038865 magnetization 

 Free energy of the ion-electron system (eV)
  ---------------------------------------------------
  alpha Z        PSCENC =       418.31351498
  Ewald energy   TEWEN  =     -7181.75520467
  -Hartree energ DENC   =     -3759.12251213
  -exchange      EXHF   =         0.00000000
  -V(xc)+E(xc)   XCENC  =       469.26905649
  PAW double counting   =     12705.23900502   -12690.34170238
  entropy T*S    EENTRO =        -0.00254231
  eigenvalues    EBANDS =     -1649.49909244
  atomic energy  EATOM  =     11522.16744521
  ---------------------------------------------------
  free energy    TOTEN  =      -165.73137468 eV

  energy without entropy =     -165.72883237  energy(sigma->0) =     -165.73010352


--------------------------------------------------------------------------------------------------------




--------------------------------------- Iteration      1(   8)  ---------------------------------------


    POTLOK:  cpu time    0.1438: real time    0.1448
    SETDIJ:  cpu time    0.6146: real time    0.6191
    TRIAL :  cpu time   28.1443: real time   28.4097
    CORREC:  cpu time    8.9637: real time    9.0388
    CHARGE:  cpu time    3.1854: real time    3.2091
    --------------------------------------------
      LOOP:  cpu time   41.0587: real time   41.4290

 eigenvalue-minimisations  :     0
 total energy-change (2. order) :-0.3635814E+01  (-0.9278348E+00)
 number of electron      98.0000001 magnetization 
 augmentation part       14.3312811 magnetization 

 Free energy of the ion-electron system (eV)
  ---------------------------------------------------
  alpha Z        PSCENC =       418.31351498
  Ewald energy   TEWEN  =     -7181.75520467
  -Hartree energ DENC   =     -3799.09124156
  -exchange      EXHF   =         0.00000000
  -V(xc)+E(xc)   XCENC  =       470.90818122
  PAW double counting   =     12419.97888033   -12400.83341462
  entropy T*S    EENTRO =        -0.00225528
  eigenvalues    EBANDS =     -1619.05280713
  atomic energy  EATOM  =     11522.16744521
  ---------------------------------------------------
  free energy    TOTEN  =      -169.36718853 eV

  energy without entropy =     -169.36493325  energy(sigma->0) =     -169.36606089


--------------------------------------------------------------------------------------------------------




--------------------------------------- Iteration      1(   9)  ---------------------------------------


    POTLOK:  cpu time    0.1447: real time    0.1457
    SETDIJ:  cpu time    0.6347: real time    0.6395
    TRIAL :  cpu time   31.8064: real time   32.0866
    CORREC:  cpu time   10.8631: real time   10.9529
    CHARGE:  cpu time    2.9250: real time    2.9475
    --------------------------------------------
      LOOP:  cpu time   46.3799: real time   46.7793

 eigenvalue-minimisations  :     0
 total energy-change (2. order) :-0.9306063E+00  (-0.3691452E+00)
 number of electron      98.0000001 magnetization 
 augmentation part       14.2977796 magnetization 

 Free energy of the ion-electron system (eV)
  ---------------------------------------------------
  alpha Z        PSCENC =       418.31351498
  Ewald energy   TEWEN  =     -7181.75520467
  -Hartree energ DENC   =     -3811.81047150
  -exchange      EXHF   =         0.00000000
  -V(xc)+E(xc)   XCENC  =       471.34230515
  PAW double counting   =     12249.46267725   -12228.46528228
  entropy T*S    EENTRO =        -0.00224375
  eigenvalues    EBANDS =     -1609.55052374
  atomic energy  EATOM  =     11522.16744521
  ---------------------------------------------------
  free energy    TOTEN  =      -170.29779488 eV

  energy without entropy =     -170.29555113  energy(sigma->0) =     -170.29667301


--------------------------------------------------------------------------------------------------------




--------------------------------------- Iteration      1(  10)  ---------------------------------------


    POTLOK:  cpu time    0.1454: real time    0.1464
    SETDIJ:  cpu time    0.6161: real time    0.6207
    TRIAL :  cpu time   31.9272: real time   32.2108
    CORREC:  cpu time    9.2917: real time    9.3712
    CHARGE:  cpu time    2.6428: real time    2.6624
    --------------------------------------------
      LOOP:  cpu time   44.6284: real time   45.0175

 eigenvalue-minimisations  :     0
 total energy-change (2. order) :-0.3689214E+00  (-0.1695306E+00)
 number of electron      98.0000001 magnetization 
 augmentation part       14.2933291 magnetization 

 Free energy of the ion-electron system (eV)
  ---------------------------------------------------
  alpha Z        PSCENC =       418.31351498
  Ewald energy   TEWEN  =     -7181.75520467
  -Hartree energ DENC   =     -3810.07393386
  -exchange      EXHF   =         0.00000000
  -V(xc)+E(xc)   XCENC  =       471.33120889
  PAW double counting   =     12141.31309665   -12119.49574636
  entropy T*S    EENTRO =        -0.00235906
  eigenvalues    EBANDS =     -1612.46485344
  atomic energy  EATOM  =     11522.16744521
  ---------------------------------------------------
  free energy    TOTEN  =      -170.66671633 eV

  energy without entropy =     -170.66435727  energy(sigma->0) =     -170.66553680


--------------------------------------------------------------------------------------------------------




--------------------------------------- Iteration      1(  11)  ---------------------------------------


    POTLOK:  cpu time    0.1479: real time    0.1488
    SETDIJ:  cpu time    1.0738: real time    1.0810
    TRIAL :  cpu time   31.8710: real time   32.1382
    CORREC:  cpu time    9.1328: real time    9.2080
    CHARGE:  cpu time    2.7159: real time    2.7362
    --------------------------------------------
      LOOP:  cpu time   44.9837: real time   45.3554

 eigenvalue-minimisations  :     0
 total energy-change (2. order) :-0.1696689E+00  (-0.6648068E-01)
 number of electron      98.0000001 magnetization 
[...]
     10     -30.5481      2.00000
     11     -30.2341      2.00000
     12     -30.1704      2.00000
     13     -30.1063      2.00000
     14     -30.1015      2.00000
     15     -30.0542      2.00000
     16     -29.9850      2.00000
     17     -29.9506      2.00000
     18     -29.9343      2.00000
     19     -29.5873      2.00000
     20     -29.5718      2.00000
     21     -29.5456      2.00000
     22     -28.9747      2.00000
     23     -28.7222      2.00000
     24     -28.3690      2.00000
     25      -2.4031      2.00000
     26      -1.1448      2.00000
     27      -0.7850      2.00000
     28      -0.3810      2.00000
     29       1.6016      2.00000
     30       1.6720      2.00000
     31       1.8363      2.00000
     32       1.8621      2.00000
     33       1.9949      2.00000
     34       2.0160      2.00000
     35       2.4011      2.00000
     36       2.7489      2.00000
     37       2.8158      2.00000
     38       3.2265      2.00000
     39       3.4218      2.00000
     40       4.0457      2.00000
     41       4.3057      2.00000
     42       4.3670      2.00000
     43       4.5661      2.00000
     44       5.2171      2.00000
     45       5.2893      2.00000
     46       5.3921      2.00000
     47       5.5564      2.00000
     48       5.9404      2.00000
     49       6.2324      2.00000
     50       6.5221      0.00000
     51       6.8419      0.00000
     52       6.9361      0.00000
     53       7.2344      0.00000
     54       7.2587      0.00000
     55       7.4646      0.00000
     56       7.8624      0.00000
     57       8.2486      0.00000
     58       8.3874      0.00000
     59       8.4565      0.00000
     60       9.1068      0.00000

 k-point   110 :      -0.1429    0.1429    0.5000
  band No.  band energies     occupation 
      1     -56.8564      2.00000
      2     -56.8179      2.00000
      3     -56.7292      2.00000
      4     -56.7237      2.00000
      5     -56.0047      2.00000
      6     -55.9642      2.00000
      7     -31.6514      2.00000
      8     -31.5056      2.00000
      9     -30.8488      2.00000
     10     -30.3587      2.00000
     11     -30.2205      2.00000
     12     -30.1807      2.00000
     13     -30.1163      2.00000
     14     -30.1078      2.00000
     15     -30.1056      2.00000
     16     -29.9851      2.00000
     17     -29.9697      2.00000
     18     -29.9660      2.00000
     19     -29.6763      2.00000
     20     -29.5729      2.00000
     21     -29.5576      2.00000
     22     -29.2711      2.00000
     23     -28.5091      2.00000
     24     -28.3252      2.00000
     25      -2.4876      2.00000
     26      -0.8330      2.00000
     27      -0.7137      2.00000
     28      -0.5125      2.00000
     29       1.5741      2.00000
     30       1.6485      2.00000
     31       1.7967      2.00000
     32       1.8456      2.00000
     33       1.9865      2.00000
     34       2.0281      2.00000
     35       2.0757      2.00000
     36       2.6706      2.00000
     37       2.7064      2.00000
     38       3.2906      2.00000
     39       3.6054      2.00000
     40       3.8802      2.00000
     41       4.3935      2.00000
     42       4.5725      2.00000
     43       4.6648      2.00000
     44       5.2729      2.00000
     45       5.4001      2.00000
     46       5.5762      2.00000
     47       5.7054      2.00000
     48       6.0041      2.00000
     49       6.0074      2.00000
     50       6.6280      0.00000
     51       6.7585      0.00000
     52       6.8386      0.00000
     53       6.8678      0.00000
     54       7.2804      0.00000
     55       7.3751      0.00000
     56       7.7993      0.00000
     57       8.2680      0.00000
     58       8.5042      0.00000
     59       8.5978      0.00000
     60       8.9026      0.00000

 k-point   111 :       0.2857    0.2857    0.5000
  band No.  band energies     occupation 
      1     -56.8972      2.00000
      2     -56.7747      2.00000
      3     -56.7293      2.00000
      4     -56.7164      2.00000
      5     -56.0547      2.00000
      6     -55.9238      2.00000
      7     -31.6594      2.00000
      8     -31.3520      2.00000
      9     -31.1014      2.00000
     10     -30.3583      2.00000
     11     -30.2525      2.00000
     12     -30.1473      2.00000
     13     -30.1091      2.00000
     14     -30.0970      2.00000
     15     -30.0923      2.00000
     16     -29.9632      2.00000
     17     -29.9622      2.00000
     18     -29.9404      2.00000
     19     -29.7290      2.00000
     20     -29.6186      2.00000
     21     -29.5208      2.00000
     22     -28.9990      2.00000
     23     -28.7053      2.00000
     24     -28.3204      2.00000
     25      -2.0302      2.00000
     26      -1.9238      2.00000
     27      -0.9522      2.00000
     28      -0.0359      2.00000
     29       1.4522      2.00000
     30       1.6971      2.00000
     31       1.7824      2.00000
     32       1.9735      2.00000
     33       2.1424      2.00000
     34       2.1624      2.00000
     35       2.7080      2.00000
     36       2.7125      2.00000
     37       2.9747      2.00000
     38       3.2117      2.00000
     39       3.3018      2.00000
     40       3.6516      2.00000
     41       4.4187      2.00000
     42       4.7524      2.00000
     43       5.0941      2.00000
     44       5.2990      2.00000
     45       5.5673      2.00000
     46       5.7332      2.00000
     47       5.8556      2.00000
     48       5.9865      2.00000
     49       6.0094      2.00000
     50       6.3013      1.54968
     51       6.3092      1.15381
     52       6.7151      0.00000
     53       6.8625      0.00000
     54       6.9920      0.00000
     55       7.0537      0.00000
     56       8.1504      0.00000
     57       8.2228      0.00000
     58       8.2877      0.00000
     59       8.5992      0.00000
     60       8.7287      0.00000

 k-point   112 :       0.4286    0.2857    0.5000
  band No.  band energies     occupation 
      1     -56.9103      2.00000
      2     -56.7592      2.00000
      3     -56.7279      2.00000
      4     -56.7145      2.00000
      5     -56.0743      2.00000
      6     -55.9098      2.00000
      7     -31.6270      2.00000
      8     -31.5230      2.00000
      9     -30.8278      2.00000
     10     -30.5382      2.00000
     11     -30.2654      2.00000
     12     -30.1336      2.00000
     13     -30.1070      2.00000
     14     -30.0957      2.00000
     15     -30.0668      2.00000
     16     -29.9697      2.00000
     17     -29.9505      2.00000
     18     -29.8952      2.00000
     19     -29.6305      2.00000
     20     -29.6120      2.00000
     21     -29.5131      2.00000
     22     -29.3122      2.00000
     23     -28.4959      2.00000
     24     -28.3640      2.00000
     25      -2.1328      2.00000
     26      -1.7515      2.00000
     27      -0.9784      2.00000
     28       0.0933      2.00000
     29       1.3431      2.00000
     30       1.6231      2.00000
     31       1.6932      2.00000
     32       1.7256      2.00000
     33       2.0246      2.00000
     34       2.1497      2.00000
     35       2.3318      2.00000
     36       2.5299      2.00000
     37       3.0360      2.00000
     38       3.3764      2.00000
     39       3.7466      2.00000
     40       4.1690      2.00000
     41       4.2924      2.00000
     42       4.7677      2.00000
     43       5.0716      2.00000
     44       5.2036      2.00000
     45       5.2176      2.00000
     46       5.7006      2.00000
     47       5.7198      2.00000
     48       5.9869      2.00000
     49       6.3932      0.00000
     50       6.5308      0.00000
     51       6.6074      0.00000
     52       6.8847      0.00000
     53       6.9145      0.00000
     54       7.0034      0.00000
     55       7.2001      0.00000
     56       7.7951      0.00000
     57       8.2074      0.00000
     58       8.2844      0.00000
     59       8.3670      0.00000
     60       8.7695      0.00000

 k-point   113 :      -0.4286    0.2857    0.5000
  band No.  band energies     occupation 
      1     -56.9103      2.00000
      2     -56.7592      2.00000
      3     -56.7279      2.00000
      4     -56.7145      2.00000
      5     -56.0745      2.00000
      6     -55.9097      2.00000
      7     -31.6268      2.00000
      8     -31.5231      2.00000
      9     -30.8279      2.00000
     10     -30.5381      2.00000
     11     -30.2665      2.00000
     12     -30.1330      2.00000
     13     -30.1065      2.00000
     14     -30.0961      2.00000
     15     -30.0669      2.00000
     16     -29.9697      2.00000
     17     -29.9505      2.00000
     18     -29.8952      2.00000
     19     -29.6280      2.00000
     20     -29.6119      2.00000
     21     -29.5151      2.00000
     22     -29.3123      2.00000
     23     -28.4960      2.00000
     24     -28.3639      2.00000
     25      -2.2840      2.00000
     26      -1.4525      2.00000
     27      -0.9222      2.00000
     28       0.0653      2.00000
     29       1.3501      2.00000
     30       1.5288      2.00000
     31       1.6039      2.00000
     32       1.7210      2.00000
     33       1.9412      2.00000
     34       2.0070      2.00000
     35       2.1283      2.00000
     36       2.3667      2.00000
     37       3.2551      2.00000
     38       3.6263      2.00000
     39       3.8400      2.00000
     40       4.1694      2.00000
     41       4.2433      2.00000
     42       4.4932      2.00000
     43       5.0383      2.00000
     44       5.1634      2.00000
     45       5.2665      2.00000
     46       5.6544      2.00000
     47       5.6769      2.00000
     48       6.0536      2.00000
     49       6.4119      0.00000
     50       6.5893      0.00000
     51       6.7856      0.00000
     52       6.9206      0.00000
     53       6.9821      0.00000
     54       7.1454      0.00000
     55       7.2182      0.00000
     56       7.5782      0.00000
     57       8.2620      0.00000
     58       8.2821      0.00000
     59       8.4537      0.00000
     60       8.6603      0.00000

 k-point   114 :      -0.2857    0.2857    0.5000
  band No.  band energies     occupation 
      1     -56.8971      2.00000
      2     -56.7748      2.00000
      3     -56.7292      2.00000
      4     -56.7164      2.00000
      5     -56.0550      2.00000
      6     -55.9236      2.00000
      7     -31.6591      2.00000
      8     -31.3520      2.00000
      9     -31.1017      2.00000
     10     -30.3583      2.00000
     11     -30.2557      2.00000
     12     -30.1454      2.00000
     13     -30.1077      2.00000
     14     -30.0982      2.00000
     15     -30.0925      2.00000
     16     -29.9631      2.00000
     17     -29.9621      2.00000
     18     -29.9405      2.00000
     19     -29.7290      2.00000
     20     -29.6118      2.00000
     21     -29.5264      2.00000
     22     -28.9991      2.00000
     23     -28.7053      2.00000
     24     -28.3203      2.00000
     25      -2.3748      2.00000
     26      -1.1945      2.00000
     27      -0.8706      2.00000
     28      -0.1200      2.00000
     29       1.4736      2.00000
     30       1.5029      2.00000
     31       1.6868      2.00000
     32       1.6953      2.00000
     33       1.7407      2.00000
     34       2.0859      2.00000
     35       2.1768      2.00000
     36       2.7403      2.00000
     37       3.1355      2.00000
     38       3.3232      2.00000
     39       3.7015      2.00000
     40       3.9921      2.00000
     41       4.2711      2.00000
     42       4.4416      2.00000
     43       4.8626      2.00000
     44       5.0374      2.00000
     45       5.5448      2.00000
     46       5.7782      2.00000
     47       5.7853      2.00000
     48       5.8784      2.00000
     49       6.2109      2.00000
     50       6.2471      2.00000
     51       6.8276      0.00000
     52       6.8451      0.00000
     53       7.1040      0.00000
     54       7.3749      0.00000
     55       7.3899      0.00000
     56       7.6204      0.00000
     57       8.2218      0.00000
     58       8.3947      0.00000
     59       8.5990      0.00000
     60       8.7342      0.00000

 k-point   115 :       0.4286    0.4286    0.5000
  band No.  band energies     occupation 
      1     -56.9257      2.00000
      2     -56.7354      2.00000
      3     -56.7293      2.00000
      4     -56.7128      2.00000
      5     -56.1001      2.00000
      6     -55.8928      2.00000
      7     -31.6654      2.00000
      8     -31.6302      2.00000
      9     -30.5379      2.00000
     10     -30.3557      2.00000
     11     -30.2796      2.00000
     12     -30.1130      2.00000
     13     -30.1079      2.00000
     14     -30.0944      2.00000
     15     -30.0756      2.00000
     16     -29.9579      2.00000
     17     -29.9576      2.00000
     18     -29.8905      2.00000
     19     -29.7985      2.00000
     20     -29.6482      2.00000
     21     -29.6329      2.00000
     22     -29.5021      2.00000
     23     -28.3617      2.00000
     24     -28.3165      2.00000
     25      -2.2281      2.00000
     26      -1.5898      2.00000
     27      -0.9539      2.00000
     28       0.3516      2.00000
     29       1.2220      2.00000
     30       1.4816      2.00000
     31       1.5037      2.00000
     32       1.5431      2.00000
     33       1.9184      2.00000
     34       1.9206      2.00000
     35       1.9396      2.00000
     36       2.1373      2.00000
     37       3.5262      2.00000
     38       3.6792      2.00000
     39       3.8036      2.00000
     40       4.1599      2.00000
     41       4.6433      2.00000
     42       4.7513      2.00000
     43       5.0737      2.00000
     44       5.5708      2.00000
     45       5.8434      2.00000
     46       6.0068      2.00000
     47       6.1375      2.00000
     48       6.1668      2.00000
     49       6.2231      2.00000
     50       6.3935      0.00000
     51       6.4562      0.00000
     52       6.5348      0.00000
     53       6.8235      0.00000
     54       6.8899      0.00000
     55       7.2283      0.00000
     56       7.3526      0.00000
     57       8.0216      0.00000
     58       8.0560      0.00000
     59       8.1422      0.00000
     60       9.3573      0.00000

 k-point   116 :      -0.4286    0.4286    0.5000
  band No.  band energies     occupation 
      1     -56.9257      2.00000
      2     -56.7355      2.00000
      3     -56.7292      2.00000
      4     -56.7128      2.00000
      5     -56.1001      2.00000
      6     -55.8928      2.00000
      7     -31.6652      2.00000
      8     -31.6303      2.00000
      9     -30.5380      2.00000
     10     -30.3556      2.00000
     11     -30.2800      2.00000
     12     -30.1128      2.00000
     13     -30.1076      2.00000
     14     -30.0946      2.00000
     15     -30.0756      2.00000
     16     -29.9579      2.00000
     17     -29.9576      2.00000
     18     -29.8905      2.00000
     19     -29.7985      2.00000
     20     -29.6473      2.00000
     21     -29.6330      2.00000
     22     -29.5028      2.00000
     23     -28.3617      2.00000
     24     -28.3165      2.00000
     25      -2.2785      2.00000
     26      -1.4918      2.00000
     27      -0.8976      2.00000
     28       0.3417      2.00000
     29       1.2243      2.00000
     30       1.4488      2.00000
     31       1.4726      2.00000
     32       1.5435      2.00000
     33       1.6957      2.00000
     34       1.9112      2.00000
     35       1.9296      2.00000
     36       2.1343      2.00000
     37       3.6306      2.00000
     38       3.7954      2.00000
     39       3.8376      2.00000
     40       4.1447      2.00000
     41       4.5579      2.00000
     42       4.6656      2.00000
     43       5.0589      2.00000
     44       5.5636      2.00000
     45       5.8403      2.00000
     46       6.0519      2.00000
     47       6.0986      2.00000
     48       6.1512      2.00000
     49       6.2644      1.99922
     50       6.3752      0.00001
     51       6.4827      0.00000
     52       6.5133      0.00000
     53       6.9213      0.00000
     54       6.9243      0.00000
     55       7.2329      0.00000
     56       7.3113      0.00000
     57       8.0096      0.00000
     58       8.0489      0.00000
     59       8.1460      0.00000
     60       9.1267      0.00000


--------------------------------------------------------------------------------------------------------


 soft charge-density along one line, spin component           1
         0         1         2         3         4         5         6         7         8         9
 total charge-density along one line
 
 pseudopotential strength for first ion, spin component:           1
  6.107   9.268   0.000  -0.000  -0.000   0.000  -0.000  -0.000
  9.268  14.056   0.000  -0.000  -0.000   0.000  -0.000  -0.000
  0.000   0.000  -2.057  -0.000  -0.000  -3.454  -0.001   0.001
 -0.000  -0.000  -0.000  -2.057  -0.000  -0.001  -3.453  -0.001
 -0.000  -0.000  -0.000  -0.000  -2.057   0.001  -0.001  -3.454
  0.000   0.000  -3.454  -0.001   0.001  -5.588  -0.004   0.002
 -0.000  -0.000  -0.001  -3.453  -0.001  -0.004  -5.587  -0.003
 -0.000  -0.000   0.001  -0.001  -3.454   0.002  -0.003  -5.590
 total augmentation occupancy for first ion, spin component:           1
  2.921  -0.563   0.000   0.000   0.000   0.000   0.000   0.000
 -0.563   0.119   0.000   0.000   0.000   0.000   0.000   0.000
  0.000   0.000   1.703   0.410  -0.241  -0.385  -0.101   0.059
  0.000   0.000   0.410   1.581   0.284  -0.101  -0.355  -0.069
  0.000   0.000  -0.241   0.284   1.885   0.059  -0.069  -0.430
  0.000   0.000  -0.385  -0.101   0.059   0.090   0.026  -0.015
  0.000   0.000  -0.101  -0.355  -0.069   0.026   0.082   0.018
  0.000   0.000   0.059  -0.069  -0.430  -0.015   0.018   0.101


------------------------ aborting loop because EDIFF is reached ----------------------------------------




--------------------------------------------------------------------------------------------------------



  FREE ENERGIE OF THE ION-ELECTRON SYSTEM (eV)
  ---------------------------------------------------
  free  energy   TOTEN  =      -170.98402629 eV

  energy  without entropy=     -170.98241221  energy(sigma->0) =     -170.98321925
 


--------------------------------------------------------------------------------------------------------


    POTLOK:  cpu time    0.8238: real time    0.8311


--------------------------------------------------------------------------------------------------------


 writing wavefunctions
     LOOP+:  cpu time 1848.3505: real time 1868.9468
    4ORBIT:  cpu time    0.0000: real time    0.0000

 total amount of memory used by VASP MPI-rank0   419939. kBytes
=======================================================================

   base      :      30000. kBytes
   nonl-proj :     168310. kBytes
   fftplans  :      17769. kBytes
   grid      :      13358. kBytes
   one-center:         77. kBytes
   wavefun   :     190425. kBytes
 
  
  
 General timing and accounting informations for this job:
 ========================================================
  
                  Total CPU time used (sec):     1857.865
                            User time (sec):     1837.111
                          System time (sec):       20.754
                         Elapsed time (sec):     1886.217
  
                   Maximum memory used (kb):      645740.
                   Average memory used (kb):          N/A
  
                          Minor page faults:      2608351
                          Major page faults:            9
                 Voluntary context switches:        13286
