<?xml version="1.0" encoding="ISO-8859-1"?>
<modeling>
 <generator>
  <i name="program" type="string">vasp </i>
  <i name="version" type="string">6.2.0  </i>
  <i name="subversion" type="string">18Jan21 (build Jan 05 2022 15:41:44) complex                          parallel </i>
  <i name="platform" type="string">LinuxIFC </i>
  <i name="date" type="string">2025 05 07 </i>
  <i name="time" type="string">18:31:46 </i>
 </generator>
 <incar>
  <i type="string" name="SYSTEM">routine with relax: pwdword</i>
  <i type="string" name="PREC">Acc</i>
  <i type="int" name="IALGO">    38</i>
  <i type="string" name="ALGO">A</i>
  <i type="logical" name="ADDGRID"> T  </i>
  <i type="int" name="ICHARG">     2</i>
  <i type="int" name="NELM">   100</i>
  <i type="int" name="NELMIN">     6</i>
  <i name="EDIFF">      0.00000000</i>
  <i type="int" name="NSW">     0</i>
  <i type="int" name="ISIF">    -1</i>
  <i name="ENCUT">    600.00000000</i>
  <i type="logical" name="LREAL"> F  </i>
  <i type="int" name="ISMEAR">     0</i>
  <i name="SIGMA">      0.02000000</i>
  <i type="logical" name="LASPH"> T  </i>
  <i type="string" name="METAGGA">R2SCAN</i>
  <i type="logical" name="LMIXTAU"> F  </i>
 </incar>
 <primitive_cell>
  <structure name="primitive_cell" >
   <crystal>
    <varray name="basis" >
     <v>       5.24560634       0.00000000      -3.08201100 </v>
     <v>      -1.71803711       4.95628231      -3.08201100 </v>
     <v>       0.00000000       0.00000000       6.08401000 </v>
    </varray>
    <i name="volume">    158.17638676 </i>
    <varray name="rec_basis" >
     <v>       0.19063573       0.06608164       0.00000000 </v>
     <v>       0.00000000       0.20176413       0.00000000 </v>
     <v>       0.09657141       0.13568413       0.16436528 </v>
    </varray>
   </crystal>
   <varray name="positions" >
    <v>       0.74039000       0.24039000       0.98079000 </v>
    <v>       0.25961000       0.75961000       0.01921000 </v>
    <v>       0.24039000       0.25961000       0.50000000 </v>
    <v>       0.75961000       0.74039000       0.50000000 </v>
    <v>       0.50000000       0.00000000       0.00000000 </v>
    <v>       0.25000000       0.25000000       0.00000000 </v>
    <v>       0.75000000       0.75000000       0.00000000 </v>
    <v>       0.00000000       0.00000000       0.50000000 </v>
    <v>       0.00000000       0.50000000       0.00000000 </v>
    <v>       0.50000000       0.50000000       0.50000000 </v>
    <v>       0.00000000       0.00000000       0.00000000 </v>
    <v>       0.50000000       0.50000000       0.00000000 </v>
   </varray>
  </structure>
  <varray name="primitive_index" >
   <v type="int" >        1 </v>
   <v type="int" >        2 </v>
   <v type="int" >        3 </v>
   <v type="int" >        4 </v>
   <v type="int" >        5 </v>
   <v type="int" >        6 </v>
   <v type="int" >        7 </v>
   <v type="int" >        8 </v>
   <v type="int" >        9 </v>
   <v type="int" >       10 </v>
   <v type="int" >       11 </v>
   <v type="int" >       12 </v>
  </varray>
 </primitive_cell>
 <kpoints>
  <generation param="Gamma">
   <v type="int" name="divisions">       7        7        8 </v>
   <v name="usershift">      0.00000000       0.00000000       0.00000000 </v>
   <v name="genvec1">      0.14285714       0.00000000       0.00000000 </v>
   <v name="genvec2">      0.00000000       0.14285714       0.00000000 </v>
   <v name="genvec3">      0.00000000       0.00000000       0.12500000 </v>
   <v name="shift">      0.00000000       0.00000000       0.00000000 </v>
  </generation>
  <varray name="kpointlist" >
   <v>       0.00000000       0.00000000       0.00000000 </v>
   <v>       0.14285714      -0.00000000       0.00000000 </v>
   <v>       0.28571429       0.00000000       0.00000000 </v>
   <v>       0.42857143       0.00000000       0.00000000 </v>
   <v>       0.14285714       0.14285714       0.00000000 </v>
   <v>       0.28571429       0.14285714       0.00000000 </v>
   <v>       0.42857143       0.14285714       0.00000000 </v>
   <v>      -0.42857143       0.14285714       0.00000000 </v>
   <v>      -0.28571429       0.14285714       0.00000000 </v>
   <v>      -0.14285714       0.14285714       0.00000000 </v>
   <v>       0.28571429       0.28571429       0.00000000 </v>
   <v>       0.42857143       0.28571429       0.00000000 </v>
   <v>      -0.42857143       0.28571429       0.00000000 </v>
   <v>      -0.28571429       0.28571429       0.00000000 </v>
   <v>       0.42857143       0.42857143       0.00000000 </v>
   <v>      -0.42857143       0.42857143       0.00000000 </v>
   <v>       0.00000000       0.00000000       0.12500000 </v>
   <v>       0.14285714      -0.00000000       0.12500000 </v>
   <v>       0.28571429      -0.00000000       0.12500000 </v>
   <v>       0.42857143      -0.00000000       0.12500000 </v>
   <v>      -0.42857143       0.00000000       0.12500000 </v>
   <v>      -0.28571429      -0.00000000       0.12500000 </v>
   <v>      -0.14285714       0.00000000       0.12500000 </v>
   <v>       0.14285714       0.14285714       0.12500000 </v>
   <v>       0.28571429       0.14285714       0.12500000 </v>
   <v>       0.42857143       0.14285714       0.12500000 </v>
   <v>      -0.42857143       0.14285714       0.12500000 </v>
   <v>      -0.28571429       0.14285714       0.12500000 </v>
   <v>      -0.14285714       0.14285714       0.12500000 </v>
   <v>       0.28571429       0.28571429       0.12500000 </v>
   <v>       0.42857143       0.28571429       0.12500000 </v>
   <v>      -0.42857143       0.28571429       0.12500000 </v>
   <v>      -0.28571429       0.28571429       0.12500000 </v>
   <v>      -0.14285714       0.28571429       0.12500000 </v>
   <v>       0.42857143       0.42857143       0.12500000 </v>
   <v>      -0.42857143       0.42857143       0.12500000 </v>
   <v>      -0.28571429       0.42857143       0.12500000 </v>
   <v>      -0.14285714       0.42857143       0.12500000 </v>
   <v>      -0.42857143      -0.42857143       0.12500000 </v>
   <v>      -0.28571429      -0.42857143       0.12500000 </v>
   <v>      -0.14285714      -0.42857143       0.12500000 </v>
   <v>      -0.28571429      -0.28571429       0.12500000 </v>
   <v>      -0.14285714      -0.28571429       0.12500000 </v>
   <v>      -0.14285714      -0.14285714       0.12500000 </v>
   <v>       0.00000000       0.00000000       0.25000000 </v>
   <v>       0.14285714       0.00000000       0.25000000 </v>
   <v>       0.28571429       0.00000000       0.25000000 </v>
   <v>       0.42857143       0.00000000       0.25000000 </v>
   <v>      -0.42857143       0.00000000       0.25000000 </v>
   <v>      -0.28571429       0.00000000       0.25000000 </v>
   <v>      -0.14285714       0.00000000       0.25000000 </v>
   <v>       0.14285714       0.14285714       0.25000000 </v>
   <v>       0.28571429       0.14285714       0.25000000 </v>
   <v>       0.42857143       0.14285714       0.25000000 </v>
   <v>      -0.42857143       0.14285714       0.25000000 </v>
   <v>      -0.28571429       0.14285714       0.25000000 </v>
   <v>      -0.14285714       0.14285714       0.25000000 </v>
   <v>       0.28571429       0.28571429       0.25000000 </v>
   <v>       0.42857143       0.28571429       0.25000000 </v>
   <v>      -0.42857143       0.28571429       0.25000000 </v>
   <v>      -0.28571429       0.28571429       0.25000000 </v>
   <v>      -0.14285714       0.28571429       0.25000000 </v>
   <v>       0.42857143       0.42857143       0.25000000 </v>
   <v>      -0.42857143       0.42857143       0.25000000 </v>
   <v>      -0.28571429       0.42857143       0.25000000 </v>
   <v>      -0.14285714       0.42857143       0.25000000 </v>
   <v>      -0.42857143      -0.42857143       0.25000000 </v>
   <v>      -0.28571429      -0.42857143       0.25000000 </v>
   <v>      -0.14285714      -0.42857143       0.25000000 </v>
   <v>      -0.28571429      -0.28571429       0.25000000 </v>
   <v>      -0.14285714      -0.28571429       0.25000000 </v>
   <v>      -0.14285714      -0.14285714       0.25000000 </v>
   <v>      -0.00000000      -0.00000000       0.37500000 </v>
   <v>       0.14285714      -0.00000000       0.37500000 </v>
   <v>       0.28571429       0.00000000       0.37500000 </v>
   <v>       0.42857143      -0.00000000       0.37500000 </v>
   <v>      -0.42857143      -0.00000000       0.37500000 </v>
   <v>      -0.28571429      -0.00000000       0.37500000 </v>
   <v>      -0.14285714       0.00000000       0.37500000 </v>
   <v>       0.14285714       0.14285714       0.37500000 </v>
   <v>       0.28571429       0.14285714       0.37500000 </v>
   <v>       0.42857143       0.14285714       0.37500000 </v>
   <v>      -0.42857143       0.14285714       0.37500000 </v>
   <v>      -0.28571429       0.14285714       0.37500000 </v>
   <v>      -0.14285714       0.14285714       0.37500000 </v>
   <v>       0.28571429       0.28571429       0.37500000 </v>
   <v>       0.42857143       0.28571429       0.37500000 </v>
   <v>      -0.42857143       0.28571429       0.37500000 </v>
   <v>      -0.28571429       0.28571429       0.37500000 </v>
   <v>      -0.14285714       0.28571429       0.37500000 </v>
   <v>       0.42857143       0.42857143       0.37500000 </v>
   <v>      -0.42857143       0.42857143       0.37500000 </v>
   <v>      -0.28571429       0.42857143       0.37500000 </v>
   <v>      -0.14285714       0.42857143       0.37500000 </v>
   <v>      -0.42857143      -0.42857143       0.37500000 </v>
   <v>      -0.28571429      -0.42857143       0.37500000 </v>
   <v>      -0.14285714      -0.42857143       0.37500000 </v>
   <v>      -0.28571429      -0.28571429       0.37500000 </v>
   <v>      -0.14285714      -0.28571429       0.37500000 </v>
   <v>      -0.14285714      -0.14285714       0.37500000 </v>
   <v>       0.00000000       0.00000000       0.50000000 </v>
   <v>       0.14285714       0.00000000       0.50000000 </v>
   <v>       0.28571429       0.00000000       0.50000000 </v>
   <v>       0.42857143       0.00000000       0.50000000 </v>
   <v>       0.14285714       0.14285714       0.50000000 </v>
   <v>       0.28571429       0.14285714       0.50000000 </v>
   <v>       0.42857143       0.14285714       0.50000000 </v>
   <v>      -0.42857143       0.14285714       0.50000000 </v>
   <v>      -0.28571429       0.14285714       0.50000000 </v>
   <v>      -0.14285714       0.14285714       0.50000000 </v>
   <v>       0.28571429       0.28571429       0.50000000 </v>
   <v>       0.42857143       0.28571429       0.50000000 </v>
   <v>      -0.42857143       0.28571429       0.50000000 </v>
   <v>      -0.28571429       0.28571429       0.50000000 </v>
   <v>       0.42857143       0.42857143       0.50000000 </v>
   <v>      -0.42857143       0.42857143       0.50000000 </v>
  </varray>
  <varray name="weights" >
   <v>       0.00255102 </v>
   <v>       0.01020408 </v>
   <v>       0.01020408 </v>
   <v>       0.01020408 </v>
   <v>       0.00510204 </v>
   <v>       0.01020408 </v>
   <v>       0.01020408 </v>
   <v>       0.01020408 </v>
   <v>       0.01020408 </v>
   <v>       0.00510204 </v>
   <v>       0.00510204 </v>
   <v>       0.01020408 </v>
   <v>       0.01020408 </v>
   <v>       0.00510204 </v>
   <v>       0.00510204 </v>
   <v>       0.00510204 </v>
   <v>       0.00510204 </v>
   <v>       0.01020408 </v>
   <v>       0.01020408 </v>
   <v>       0.01020408 </v>
   <v>       0.01020408 </v>
   <v>       0.01020408 </v>
   <v>       0.01020408 </v>
   <v>       0.00510204 </v>
   <v>       0.01020408 </v>
   <v>       0.01020408 </v>
   <v>       0.01020408 </v>
   <v>       0.01020408 </v>
   <v>       0.01020408 </v>
   <v>       0.00510204 </v>
   <v>       0.01020408 </v>
   <v>       0.01020408 </v>
   <v>       0.01020408 </v>
   <v>       0.01020408 </v>
   <v>       0.00510204 </v>
   <v>       0.01020408 </v>
   <v>       0.01020408 </v>
   <v>       0.01020408 </v>
   <v>       0.00510204 </v>
   <v>       0.01020408 </v>
   <v>       0.01020408 </v>
   <v>       0.00510204 </v>
   <v>       0.01020408 </v>
   <v>       0.00510204 </v>
   <v>       0.00510204 </v>
   <v>       0.01020408 </v>
   <v>       0.01020408 </v>
   <v>       0.01020408 </v>
   <v>       0.01020408 </v>
   <v>       0.01020408 </v>
   <v>       0.01020408 </v>
   <v>       0.00510204 </v>
   <v>       0.01020408 </v>
   <v>       0.01020408 </v>
   <v>       0.01020408 </v>
   <v>       0.01020408 </v>
   <v>       0.01020408 </v>
   <v>       0.00510204 </v>
   <v>       0.01020408 </v>
   <v>       0.01020408 </v>
   <v>       0.01020408 </v>
   <v>       0.01020408 </v>
   <v>       0.00510204 </v>
   <v>       0.01020408 </v>
   <v>       0.01020408 </v>
   <v>       0.01020408 </v>
   <v>       0.00510204 </v>
   <v>       0.01020408 </v>
   <v>       0.01020408 </v>
   <v>       0.00510204 </v>
   <v>       0.01020408 </v>
   <v>       0.00510204 </v>
   <v>       0.00510204 </v>
   <v>       0.01020408 </v>
   <v>       0.01020408 </v>
   <v>       0.01020408 </v>
   <v>       0.01020408 </v>
   <v>       0.01020408 </v>
   <v>       0.01020408 </v>
   <v>       0.00510204 </v>
   <v>       0.01020408 </v>
   <v>       0.01020408 </v>
   <v>       0.01020408 </v>
   <v>       0.01020408 </v>
   <v>       0.01020408 </v>
   <v>       0.00510204 </v>
   <v>       0.01020408 </v>
   <v>       0.01020408 </v>
   <v>       0.01020408 </v>
   <v>       0.01020408 </v>
   <v>       0.00510204 </v>
   <v>       0.01020408 </v>
   <v>       0.01020408 </v>
   <v>       0.01020408 </v>
   <v>       0.00510204 </v>
   <v>       0.01020408 </v>
   <v>       0.01020408 </v>
   <v>       0.00510204 </v>
   <v>       0.01020408 </v>
   <v>       0.00510204 </v>
   <v>       0.00255102 </v>
   <v>       0.01020408 </v>
   <v>       0.01020408 </v>
   <v>       0.01020408 </v>
   <v>       0.00510204 </v>
   <v>       0.01020408 </v>
   <v>       0.01020408 </v>
   <v>       0.01020408 </v>
   <v>       0.01020408 </v>
   <v>       0.00510204 </v>
   <v>       0.00510204 </v>
   <v>       0.01020408 </v>
   <v>       0.01020408 </v>
   <v>       0.00510204 </v>
   <v>       0.00510204 </v>
   <v>       0.00510204 </v>
  </varray>
 </kpoints>
 <parameters>
  <separator name="general" >
   <i type="string" name="SYSTEM">routine with relax: pwdword</i>
   <i type="logical" name="LCOMPAT"> F  </i>
  </separator>
  <separator name="electronic" >
   <i type="string" name="PREC">acc</i>
   <i name="ENMAX">    600.00000000</i>
   <i name="ENAUG">    535.51400000</i>
   <i name="EDIFF">      0.00000000</i>
   <i type="int" name="IALGO">    58</i>
   <i type="int" name="IWAVPR">    10</i>
   <i type="int" name="NBANDS">    66</i>
   <i type="int" name="NBANDSLOW">    -1</i>
   <i type="int" name="NBANDSHIGH">    -1</i>
   <i name="NELECT">    104.00000000</i>
   <i type="int" name="TURBO">     0</i>
   <i type="int" name="IRESTART">     0</i>
   <i type="int" name="NREBOOT">     0</i>
   <i type="int" name="NMIN">     0</i>
   <i name="EREF">      0.00000000</i>
   <separator name="electronic smearing" >
    <i type="int" name="ISMEAR">     0</i>
    <i name="SIGMA">      0.02000000</i>
    <i name="KSPACING">      0.50000000</i>
    <i type="logical" name="KGAMMA"> T  </i>
    <i type="logical" name="KBLOWUP"> F  </i>
   </separator>
   <separator name="electronic projectors" >
    <i type="logical" name="LREAL"> F  </i>
    <v name="ROPT">      0.00000000      0.00000000      0.00000000</v>
    <i type="int" name="LMAXPAW">  -100</i>
    <i type="int" name="LMAXMIX">     2</i>
    <i type="logical" name="NLSPLINE"> F  </i>
   </separator>
   <separator name="electronic startup" >
    <i type="int" name="ISTART">     0</i>
    <i type="int" name="ICHARG">     2</i>
    <i type="int" name="INIWAV">     1</i>
   </separator>
   <separator name="electronic spin" >
    <i type="int" name="ISPIN">     1</i>
    <i type="logical" name="LNONCOLLINEAR"> F  </i>
    <v name="MAGMOM">      1.00000000      1.00000000      1.00000000      1.00000000      1.00000000      1.00000000      1.00000000      1.00000000      1.00000000      1.00000000      1.00000000      1.00000000</v>
    <i name="NUPDOWN">     -1.00000000</i>
    <i type="logical" name="LSORBIT"> F  </i>
    <v name="SAXIS">      0.00000000      0.00000000      1.00000000</v>
    <i type="logical" name="LSPIRAL"> F  </i>
    <v name="QSPIRAL">      0.00000000      0.00000000      0.00000000</v>
    <i type="logical" name="LZEROZ"> F  </i>
   </separator>
   <separator name="electronic exchange-correlation" >
    <i type="logical" name="LASPH"> T  </i>
    <i type="logical" name="LMETAGGA"> F  </i>
   </separator>
   <separator name="electronic convergence" >
    <i type="int" name="NELM">   100</i>
    <i type="int" name="NELMDL">    -5</i>
    <i type="int" name="NELMIN">     6</i>
    <i name="ENINI">    600.00000000</i>
    <separator name="electronic convergence detail" >
     <i type="logical" name="LDIAG"> T  </i>
     <i type="logical" name="LSUBROT"> F  </i>
     <i name="WEIMIN">      0.00000000</i>
     <i name="EBREAK">      0.00000000</i>
     <i name="DEPER">      0.30000000</i>
     <i type="int" name="NRMM">     4</i>
     <i name="TIME">      0.40000000</i>
    </separator>
   </separator>
   <separator name="electronic mixer" >
    <i name="AMIX">      0.40000000</i>
    <i name="BMIX">      1.00000000</i>
    <i name="AMIN">      0.10000000</i>
    <i name="AMIX_MAG">      1.60000000</i>
    <i name="BMIX_MAG">      1.00000000</i>
    <separator name="electronic mixer details" >
     <i type="int" name="IMIX">     4</i>
     <i type="logical" name="MIXFIRST"> F  </i>
     <i type="int" name="MAXMIX">   -45</i>
     <i name="WC">    100.00000000</i>
     <i type="int" name="INIMIX">     1</i>
     <i type="int" name="MIXPRE">     1</i>
     <i type="int" name="MREMOVE">     5</i>
    </separator>
   </separator>
   <separator name="electronic dipolcorrection" >
    <i type="logical" name="LDIPOL"> F  </i>
    <i type="logical" name="LMONO"> F  </i>
    <i type="int" name="IDIPOL">     0</i>
    <i name="EPSILON">      1.00000000</i>
    <v name="DIPOL">   -100.00000000   -100.00000000   -100.00000000</v>
    <i name="EFIELD">      0.00000000</i>
   </separator>
  </separator>
  <separator name="grids" >
   <i type="int" name="NGX">    50</i>
   <i type="int" name="NGY">    50</i>
   <i type="int" name="NGZ">    50</i>
   <i type="int" name="NGXF">   100</i>
   <i type="int" name="NGYF">   100</i>
   <i type="int" name="NGZF">   100</i>
   <i type="logical" name="ADDGRID"> T  </i>
  </separator>
  <separator name="ionic" >
   <i type="int" name="NSW">     0</i>
   <i type="int" name="IBRION">    -1</i>
   <i type="int" name="MDALGO">     0</i>
   <i type="int" name="ISIF">    -1</i>
   <i name="PSTRESS">      0.00000000</i>
   <i name="EDIFFG">      0.00000001</i>
   <i type="int" name="NFREE">     0</i>
   <i name="POTIM">      0.50000000</i>
   <i name="SMASS">     -3.00000000</i>
   <i name="SCALEE">      1.00000000</i>
  </separator>
  <separator name="ionic md" >
   <i name="TEBEG">      0.00010000</i>
   <i name="TEEND">      0.00010000</i>
   <i type="int" name="NBLOCK">     1</i>
   <i type="int" name="KBLOCK">     1</i>
   <i type="int" name="NPACO">   256</i>
   <i name="APACO">     16.00000000</i>
  </separator>
  <separator name="symmetry" >
   <i type="int" name="ISYM">     2</i>
   <i name="SYMPREC">      0.00001000</i>
  </separator>
  <separator name="dos" >
   <i type="int" name="LORBIT">     0</i>
   <v name="RWIGS">     -1.00000000     -1.00000000     -1.00000000</v>
   <i type="int" name="NEDOS">   301</i>
   <i name="EMIN">     10.00000000</i>
   <i name="EMAX">    -10.00000000</i>
   <i name="EFERMI">      0.00000000</i>
  </separator>
  <separator name="writing" >
   <i type="int" name="NWRITE">     2</i>
   <i type="logical" name="LWAVE"> T  </i>
   <i type="logical" name="LDOWNSAMPLE"> F  </i>
   <i type="logical" name="LCHARG"> T  </i>
   <i type="logical" name="LPARD"> F  </i>
   <i type="logical" name="LVTOT"> F  </i>
   <i type="logical" name="LVHAR"> F  </i>
   <i type="logical" name="LELF"> F  </i>
   <i type="logical" name="LOPTICS"> F  </i>
   <v name="STM">      0.00000000      0.00000000      0.00000000      0.00000000      0.00000000      0.00000000      0.00000000</v>
  </separator>
  <separator name="performance" >
   <i type="int" name="NPAR">     6</i>
   <i type="int" name="NSIM">     4</i>
   <i type="int" name="NBLK">    -1</i>
   <i type="logical" name="LPLANE"> T  </i>
   <i type="logical" name="LSCALAPACK"> T  </i>
   <i type="logical" name="LSCAAWARE"> F  </i>
   <i type="logical" name="LSCALU"> F  </i>
   <i type="logical" name="LASYNC"> F  </i>
   <i type="logical" name="LORBITALREAL"> F  </i>
  </separator>
  <separator name="miscellaneous" >
   <i type="int" name="IDIOT">     3</i>
   <i type="int" name="PHON_NSTRUCT">    -1</i>
   <i type="logical" name="LMUSIC"> F  </i>
   <v name="POMASS">     10.81100000     95.94000000     28.08500000</v>
   <v name="DARWINR">      0.00000000      0.00000000      0.00000000</v>
   <v name="DARWINV">      1.00000000      1.00000000      1.00000000</v>
   <i type="logical" name="LCORR"> T  </i>
  </separator>
  <i type="logical" name="GGA_COMPAT"> T  </i>
  <i type="logical" name="LBERRY"> F  </i>
  <i type="int" name="ICORELEVEL">     0</i>
  <i type="logical" name="LDAU"> F  </i>
  <i type="int" name="I_CONSTRAINED_M">     0</i>
  <separator name="electronic exchange-correlation" >
   <i type="string" name="GGA">--</i>
   <i type="int" name="VOSKOWN">     0</i>
   <i type="logical" name="LHFCALC"> F  </i>
   <i type="string" name="PRECFOCK"></i>
   <i type="logical" name="LSYMGRAD"> F  </i>
   <i type="logical" name="LHFONE"> F  </i>
   <i type="logical" name="LRHFCALC"> F  </i>
   <i type="logical" name="LTHOMAS"> F  </i>
   <i type="logical" name="LMODELHF"> F  </i>
   <i type="logical" name="LFOCKACE"> F  </i>
   <i name="ENCUT4O">     -1.00000000</i>
   <i type="int" name="EXXOEP">     0</i>
   <i type="int" name="FOURORBIT">     0</i>
   <i name="AEXX">      0.00000000</i>
   <i name="HFALPHA">      0.00000000</i>
   <i name="MCALPHA">      0.00000000</i>
   <i name="ALDAX">      1.00000000</i>
   <i name="AGGAX">      1.00000000</i>
   <i name="ALDAC">      1.00000000</i>
   <i name="AGGAC">      1.00000000</i>
   <i type="int" name="NKREDX">     1</i>
   <i type="int" name="NKREDY">     1</i>
   <i type="int" name="NKREDZ">     1</i>
   <i type="logical" name="SHIFTRED"> F  </i>
   <i type="logical" name="ODDONLY"> F  </i>
   <i type="logical" name="EVENONLY"> F  </i>
   <i type="int" name="LMAXFOCK">     0</i>
   <i type="int" name="NMAXFOCKAE">     0</i>
   <i type="logical" name="LFOCKAEDFT"> F  </i>
   <i name="HFSCREEN">      0.00000000</i>
   <i name="HFSCREENC">      0.00000000</i>
   <i type="int" name="NBANDSGWLOW">     0</i>
  </separator>
  <separator name="vdW DFT" >
   <i type="logical" name="LUSE_VDW"> F  </i>
   <i name="Zab_VDW">     -0.84910000</i>
   <i name="PARAM1">      0.12340000</i>
   <i name="PARAM2">      1.00000000</i>
   <i name="PARAM3">      0.00000000</i>
  </separator>
  <separator name="model GW" >
   <i type="int" name="MODEL_GW">     0</i>
   <i name="MODEL_EPS0">      7.90881934</i>
   <i name="MODEL_ALPHA">      1.00000000</i>
  </separator>
  <separator name="linear response parameters" >
   <i type="logical" name="LEPSILON"> F  </i>
   <i type="logical" name="LRPA"> F  </i>
   <i type="logical" name="LNABLA"> F  </i>
   <i type="logical" name="LVEL"> F  </i>
   <i type="int" name="KINTER">     0</i>
   <i name="CSHIFT">      0.10000000</i>
   <i name="OMEGAMAX">     -1.00000000</i>
   <i name="DEG_THRESHOLD">      0.00200000</i>
   <i name="RTIME">     -0.10000000</i>
   <i name="WPLASMAI">      0.00000000</i>
   <v name="DFIELD">      0.00000000      0.00000000      0.00000000</v>
   <v name="WPLASMA">      0.00000000      0.00000000      0.00000000      0.00000000      0.00000000      0.00000000      0.00000000      0.00000000      0.00000000</v>
  </separator>
  <separator name="orbital magnetization" >
   <i type="logical" name="NUCIND"> F  </i>
   <v name="MAGPOS">      0.00000000      0.00000000      0.00000000</v>
   <i type="logical" name="LNICSALL"> T  </i>
   <i type="logical" name="ORBITALMAG"> F  </i>
   <i type="logical" name="LMAGBLOCH"> F  </i>
   <i type="logical" name="LCHIMAG"> F  </i>
   <i type="logical" name="LGAUGE"> T  </i>
   <i type="int" name="MAGATOM">     0</i>
   <v name="MAGDIPOL">      0.00000000      0.00000000      0.00000000</v>
   <v name="AVECCONST">      0.00000000      0.00000000      0.00000000</v>
  </separator>
  <separator name="response functions" >
   <i type="logical" name="LFINITE_TEMPERATURE"> F  </i>
   <i type="logical" name="LADDER"> F  </i>
   <i type="logical" name="LRPAFORCE"> F  </i>
   <i type="logical" name="LFXC"> F  </i>
   <i type="logical" name="LHARTREE"> T  </i>
   <i type="int" name="IBSE">     0</i>
   <v type="int" name="KPOINT">    -1     0     0     0</v>
   <i type="logical" name="LTCTC"> F  </i>
   <i type="logical" name="LTCTE"> F  </i>
   <i type="logical" name="LTETE"> F  </i>
   <i type="logical" name="LTRIPLET"> F  </i>
   <i type="logical" name="LFXCEPS"> F  </i>
   <i type="logical" name="LFXHEG"> F  </i>
   <i type="int" name="NATURALO">     2</i>
   <i type="logical" name="LHOLEGF"> F  </i>
   <i type="logical" name="L2ORDER"> F  </i>
   <i type="logical" name="LDMP1"> F  </i>
   <i type="logical" name="LMP2LT"> F  </i>
   <i type="logical" name="LSMP2LT"> F  </i>
   <i type="logical" name="LGWLF"> F  </i>
   <i name="ENCUTGW">     -2.00000000</i>
   <i name="ENCUTGWSOFT">     -2.00000000</i>
   <i name="ENCUTLF">     -1.00000000</i>
   <i type="logical" name="LESF_SPLINES"> F  </i>
   <i type="int" name="LMAXMP2">    -1</i>
   <i name="SCISSOR">      0.00000000</i>
   <i type="int" name="NOMEGA">     0</i>
   <i type="int" name="NOMEGAR">     0</i>
   <i type="int" name="NBANDSGW">    -1</i>
   <i type="int" name="NBANDSO">    -1</i>
   <i type="int" name="NBANDSV">    -1</i>
   <i type="int" name="NELM">   100</i>
   <i type="int" name="NELMHF">     1</i>
   <i type="int" name="DIM">     3</i>
   <i type="int" name="IESPILON">     4</i>
   <i type="int" name="ANTIRES">     0</i>
   <i name="OMEGAMAX">    -30.00000000</i>
   <i name="OMEGAMIN">    -30.00000000</i>
   <i name="OMEGATL">   -200.00000000</i>
   <i type="int" name="OMEGAGRID">     0</i>
   <i name="CSHIFT">     -0.10000000</i>
   <i type="logical" name="LSELFENERGY"> F  </i>
   <i type="logical" name="LSPECTRAL"> F  </i>
   <i type="logical" name="LSPECTRALGW"> F  </i>
   <i type="logical" name="LSINGLES"> F  </i>
   <i type="logical" name="LFERMIGW"> F  </i>
   <i type="logical" name="ODDONLYGW"> F  </i>
   <i type="logical" name="EVENONLYGW"> F  </i>
   <i type="int" name="NKREDLFX">     1</i>
   <i type="int" name="NKREDLFY">     1</i>
   <i type="int" name="NKREDLFZ">     1</i>
   <i type="int" name="MAXMEM">  2800</i>
   <i type="int" name="TELESCOPE">     0</i>
   <i type="int" name="NTAUPAR">    -1</i>
   <i type="int" name="NOMEGAPAR">    -1</i>
   <i name="DAMP_NEWTON">      0.80000001</i>
   <i name="LAMBDA">      1.00000000</i>
  </separator>
  <separator name="External order field" >
   <i name="OFIELD_KAPPA">      0.00000000</i>
   <v name="OFIELD_K">      0.00000000      0.00000000      0.00000000</v>
   <i name="OFIELD_Q6_NEAR">      0.00000000</i>
   <i name="OFIELD_Q6_FAR">      0.00000000</i>
   <i name="OFIELD_A">      0.00000000</i>
  </separator>
 </parameters>
 <atominfo>
  <atoms>      12 </atoms>
  <types>       3 </types>
  <array name="atoms" >
   <dimension dim="1">ion</dimension>
   <field type="string">element</field>
   <field type="int">atomtype</field>
   <set>
    <rc><c>B </c><c>   1</c></rc>
    <rc><c>B </c><c>   1</c></rc>
    <rc><c>B </c><c>   1</c></rc>
    <rc><c>B </c><c>   1</c></rc>
    <rc><c>Mo</c><c>   2</c></rc>
    <rc><c>Mo</c><c>   2</c></rc>
    <rc><c>Mo</c><c>   2</c></rc>
    <rc><c>Mo</c><c>   2</c></rc>
    <rc><c>Mo</c><c>   2</c></rc>
    <rc><c>Mo</c><c>   2</c></rc>
    <rc><c>Si</c><c>   3</c></rc>
    <rc><c>Si</c><c>   3</c></rc>
   </set>
  </array>
  <array name="atomtypes" >
   <dimension dim="1">type</dimension>
   <field type="int">atomspertype</field>
   <field type="string">element</field>
   <field>mass</field>
   <field>valence</field>
   <field type="string">pseudopotential</field>
   <set>
    <rc><c>   4</c><c>B </c><c>     10.81100000</c><c>      3.00000000</c><c>  PAW_PBE B 06Sep2000                   </c></rc>
    <rc><c>   6</c><c>Mo</c><c>     95.94000000</c><c>     14.00000000</c><c>  PAW_PBE Mo_sv 02Feb2006               </c></rc>
    <rc><c>   2</c><c>Si</c><c>     28.08500000</c><c>      4.00000000</c><c>  PAW_PBE Si 05Jan2001                  </c></rc>
   </set>
  </array>
 </atominfo>
 <structure name="initialpos" >
  <crystal>
   <varray name="basis" >
    <v>       5.24560634       0.00000000      -3.08201100 </v>
    <v>      -1.71803711       4.95628231      -3.08201100 </v>
    <v>       0.00000000       0.00000000       6.08401000 </v>
   </varray>
   <i name="volume">    158.17638676 </i>
   <varray name="rec_basis" >
    <v>       0.19063573       0.06608164       0.00000000 </v>
    <v>       0.00000000       0.20176413       0.00000000 </v>
    <v>       0.09657141       0.13568413       0.16436528 </v>
   </varray>
  </crystal>
  <varray name="positions" >
   <v>       0.74039000       0.24039000       0.98079000 </v>
   <v>       0.25961000       0.75961000       0.01921000 </v>
   <v>       0.24039000       0.25961000       0.50000000 </v>
   <v>       0.75961000       0.74039000       0.50000000 </v>
   <v>       0.50000000       0.00000000       0.00000000 </v>
   <v>       0.25000000       0.25000000       0.00000000 </v>
   <v>       0.75000000       0.75000000       0.00000000 </v>
   <v>       0.00000000       0.00000000       0.50000000 </v>
   <v>       0.00000000       0.50000000       0.00000000 </v>
   <v>       0.50000000       0.50000000       0.50000000 </v>
   <v>       0.00000000       0.00000000       0.00000000 </v>
   <v>       0.50000000       0.50000000       0.00000000 </v>
  </varray>
 </structure>
 <calculation>
  <scstep>
   <time name="total">   23.01   23.22</time>
   <energy>
    <i name="alphaZ">    590.66468148 </i>
    <i name="ewald">  -8276.93594792 </i>
    <i name="hartreedc">  -3442.82578950 </i>
    <i name="XCdc">    490.02955032 </i>
    <i name="pawpsdc">   9250.47132855 </i>
    <i name="pawaedc">  -9210.50234729 </i>
    <i name="eentropy">     -0.00061891 </i>
    <i name="bandstr">    115.79541104 </i>
    <i name="atom">  11664.50664672 </i>
    <i name="e_fr_energy">   1181.20291449 </i>
    <i name="e_wo_entrp">   1181.20353340 </i>
    <i name="e_0_energy">   1181.20322395 </i>
   </energy>
  </scstep>
  <scstep>
   <time name="total">   22.66   22.87</time>
   <energy>
    <i name="e_fr_energy">   -163.80048592 </i>
    <i name="e_wo_entrp">   -163.79910223 </i>
    <i name="e_0_energy">   -163.79979408 </i>
   </energy>
  </scstep>
  <scstep>
   <time name="total">   24.86   25.10</time>
   <energy>
    <i name="e_fr_energy">   -215.40438162 </i>
    <i name="e_wo_entrp">   -215.40286435 </i>
    <i name="e_0_energy">   -215.40362299 </i>
   </energy>
  </scstep>
  <scstep>
   <time name="total">   23.89   24.10</time>
   <energy>
    <i name="e_fr_energy">   -216.41328601 </i>
    <i name="e_wo_entrp">   -216.41132466 </i>
    <i name="e_0_energy">   -216.41230533 </i>
   </energy>
  </scstep>
  <scstep>
   <time name="total">   25.50   25.73</time>
   <energy>
    <i name="e_fr_energy">   -216.43244272 </i>
    <i name="e_wo_entrp">   -216.43047255 </i>
    <i name="e_0_energy">   -216.43145764 </i>
   </energy>
  </scstep>
  <scstep>
   <time name="total">   25.66   25.88</time>
   <energy>
    <i name="e_fr_energy">   -157.71594615 </i>
    <i name="e_wo_entrp">   -157.71403189 </i>
    <i name="e_0_energy">   -157.71498902 </i>
   </energy>
  </scstep>
  <scstep>
   <time name="total">   26.48   26.71</time>
   <energy>
    <i name="e_fr_energy">   -171.88485875 </i>
    <i name="e_wo_entrp">   -171.88290813 </i>
    <i name="e_0_energy">   -171.88388344 </i>
   </energy>
  </scstep>
  <scstep>
   <time name="total">   25.75   25.97</time>
   <energy>
    <i name="e_fr_energy">   -173.68765021 </i>
    <i name="e_wo_entrp">   -173.68575012 </i>
    <i name="e_0_energy">   -173.68670016 </i>
   </energy>
  </scstep>
  <scstep>
   <time name="total">   25.77   26.00</time>
   <energy>
    <i name="e_fr_energy">   -174.12363750 </i>
    <i name="e_wo_entrp">   -174.12190483 </i>
    <i name="e_0_energy">   -174.12277116 </i>
   </energy>
  </scstep>
  <scstep>
   <time name="total">   25.87   26.10</time>
   <energy>
    <i name="e_fr_energy">   -174.27417717 </i>
    <i name="e_wo_entrp">   -174.27251559 </i>
    <i name="e_0_energy">   -174.27334638 </i>
   </energy>
  </scstep>
  <scstep>
   <time name="total">   26.20   26.43</time>
   <energy>
    <i name="e_fr_energy">   -174.31893745 </i>
    <i name="e_wo_entrp">   -174.31712661 </i>
    <i name="e_0_energy">   -174.31803203 </i>
   </energy>
  </scstep>
  <scstep>
   <time name="total">   26.00   26.23</time>
   <energy>
    <i name="e_fr_energy">   -174.33663245 </i>
    <i name="e_wo_entrp">   -174.33462945 </i>
    <i name="e_0_energy">   -174.33563095 </i>
   </energy>
  </scstep>
  <scstep>
   <time name="total">   25.75   25.97</time>
   <energy>
    <i name="e_fr_energy">   -174.34556072 </i>
    <i name="e_wo_entrp">   -174.34353777 </i>
    <i name="e_0_energy">   -174.34454924 </i>
   </energy>
  </scstep>
  <scstep>
   <time name="total">   26.34   26.56</time>
   <energy>
    <i name="e_fr_energy">   -174.34931323 </i>
    <i name="e_wo_entrp">   -174.34730236 </i>
    <i name="e_0_energy">   -174.34830780 </i>
   </energy>
  </scstep>
  <scstep>
   <time name="total">   26.15   26.38</time>
   <energy>
    <i name="e_fr_energy">   -174.35079380 </i>
    <i name="e_wo_entrp">   -174.34879482 </i>
    <i name="e_0_energy">   -174.34979431 </i>
   </energy>
  </scstep>
  <scstep>
   <time name="total">   25.83   26.06</time>
   <energy>
    <i name="e_fr_energy">   -174.35130163 </i>
    <i name="e_wo_entrp">   -174.34930432 </i>
    <i name="e_0_energy">   -174.35030298 </i>
   </energy>
  </scstep>
  <scstep>
   <time name="total">   25.44   25.66</time>
   <energy>
    <i name="e_fr_energy">   -174.35149931 </i>
    <i name="e_wo_entrp">   -174.34950617 </i>
    <i name="e_0_energy">   -174.35050274 </i>
   </energy>
  </scstep>
  <scstep>
   <time name="total">   25.41   25.63</time>
   <energy>
    <i name="e_fr_energy">   -174.35159644 </i>
    <i name="e_wo_entrp">   -174.34960263 </i>
    <i name="e_0_energy">   -174.35059953 </i>
   </energy>
  </scstep>
  <scstep>
   <time name="total">   26.25   26.48</time>
   <energy>
    <i name="e_fr_energy">   -174.35163615 </i>
    <i name="e_wo_entrp">   -174.34964327 </i>
    <i name="e_0_energy">   -174.35063971 </i>
   </energy>
  </scstep>
  <scstep>
   <time name="total">   25.27   25.49</time>
   <energy>
    <i name="e_fr_energy">   -174.35165591 </i>
    <i name="e_wo_entrp">   -174.34966184 </i>
    <i name="e_0_energy">   -174.35065888 </i>
   </energy>
  </scstep>
  <scstep>
   <time name="total">   25.69   25.91</time>
   <energy>
    <i name="e_fr_energy">   -174.35166549 </i>
    <i name="e_wo_entrp">   -174.34967100 </i>
    <i name="e_0_energy">   -174.35066824 </i>
   </energy>
  </scstep>
  <scstep>
   <time name="total">   25.83   26.04</time>
   <energy>
    <i name="e_fr_energy">   -174.35166930 </i>
    <i name="e_wo_entrp">   -174.34967386 </i>
    <i name="e_0_energy">   -174.35067158 </i>
   </energy>
  </scstep>
  <scstep>
   <time name="total">   25.71   25.94</time>
   <energy>
    <i name="e_fr_energy">   -174.35167074 </i>
    <i name="e_wo_entrp">   -174.34967493 </i>
    <i name="e_0_energy">   -174.35067284 </i>
   </energy>
  </scstep>
  <scstep>
   <time name="total">   25.48   25.71</time>
   <energy>
    <i name="e_fr_energy">   -174.35167162 </i>
    <i name="e_wo_entrp">   -174.34967537 </i>
    <i name="e_0_energy">   -174.35067349 </i>
   </energy>
  </scstep>
  <scstep>
   <time name="total">   25.92   26.14</time>
   <energy>
    <i name="e_fr_energy">   -174.35167192 </i>
    <i name="e_wo_entrp">   -174.34967562 </i>
    <i name="e_0_energy">   -174.35067377 </i>
   </energy>
  </scstep>
  <scstep>
   <time name="total">   25.62   25.84</time>
   <energy>
    <i name="e_fr_energy">   -174.35167206 </i>
    <i name="e_wo_entrp">   -174.34967572 </i>
    <i name="e_0_energy">   -174.35067389 </i>
   </energy>
  </scstep>
  <scstep>
   <time name="total">   25.79   26.02</time>
   <energy>
    <i name="e_fr_energy">   -174.35167209 </i>
    <i name="e_wo_entrp">   -174.34967574 </i>
    <i name="e_0_energy">   -174.35067392 </i>
   </energy>
  </scstep>
  <scstep>
   <time name="total">   25.40   25.63</time>
   <energy>
    <i name="e_fr_energy">   -174.35167211 </i>
    <i name="e_wo_entrp">   -174.34967579 </i>
    <i name="e_0_energy">   -174.35067395 </i>
   </energy>
  </scstep>
  <scstep>
   <time name="total">   25.68   25.90</time>
   <energy>
    <i name="e_fr_energy">   -174.35167212 </i>
    <i name="e_wo_entrp">   -174.34967579 </i>
    <i name="e_0_energy">   -174.35067396 </i>
   </energy>
  </scstep>
  <scstep>
   <time name="total">   25.81   26.04</time>
   <energy>
    <i name="e_fr_energy">   -174.35167213 </i>
    <i name="e_wo_entrp">   -174.34967582 </i>
    <i name="e_0_energy">   -174.35067397 </i>
   </energy>
  </scstep>
  <scstep>
   <time name="total">   25.67   25.90</time>
   <energy>
    <i name="e_fr_energy">   -174.35167213 </i>
    <i name="e_wo_entrp">   -174.34967582 </i>
    <i name="e_0_energy">   -174.35067398 </i>
   </energy>
  </scstep>
  <scstep>
   <time name="total">   25.55   25.77</time>
   <energy>
    <i name="e_fr_energy">   -174.35167213 </i>
    <i name="e_wo_entrp">   -174.34967585 </i>
    <i name="e_0_energy">   -174.35067399 </i>
   </energy>
  </scstep>
  <scstep>
   <time name="total">   25.41   25.63</time>
   <energy>
    <i name="e_fr_energy">   -174.35167214 </i>
    <i name="e_wo_entrp">   -174.34967584 </i>
    <i name="e_0_energy">   -174.35067399 </i>
   </energy>
  </scstep>
  <scstep>
   <time name="total">   25.84   26.06</time>
   <energy>
    <i name="e_fr_energy">   -174.35167214 </i>
    <i name="e_wo_entrp">   -174.34967586 </i>
    <i name="e_0_energy">   -174.35067400 </i>
   </energy>
  </scstep>
  <scstep>
   <time name="total">   25.50   25.72</time>
   <energy>
    <i name="e_fr_energy">   -174.35167214 </i>
    <i name="e_wo_entrp">   -174.34967587 </i>
    <i name="e_0_energy">   -174.35067400 </i>
   </energy>
  </scstep>
  <scstep>
   <time name="total">   25.28   25.51</time>
   <energy>
    <i name="e_fr_energy">   -174.35167214 </i>
    <i name="e_wo_entrp">   -174.34967588 </i>
    <i name="e_0_energy">   -174.35067401 </i>
   </energy>
  </scstep>
  <scstep>
   <time name="total">   31.07   31.33</time>
   <energy>
    <i name="alphaZ">    590.66468148 </i>
    <i name="ewald">  -8276.93594792 </i>
    <i name="hartreedc">  -3404.53562371 </i>
    <i name="XCdc">    504.83541145 </i>
    <i name="pawpsdc">  17661.63469539 </i>
    <i name="pawaedc"> -17637.34549145 </i>
    <i name="eentropy">     -0.00199626 </i>
    <i name="bandstr">  -1277.17404783 </i>
    <i name="atom">  11664.50664672 </i>
    <i name="e_fr_energy">   -174.35167214 </i>
    <i name="e_wo_entrp">   -174.34967588 </i>
    <i name="e_0_energy">   -174.35067401 </i>
   </energy>
  </scstep>
  <structure>
   <crystal>
    <varray name="basis" >
     <v>       5.24560634       0.00000000      -3.08201100 </v>
     <v>      -1.71803711       4.95628231      -3.08201100 </v>
     <v>       0.00000000       0.00000000       6.08401000 </v>
    </varray>
    <i name="volume">    158.17638676 </i>
    <varray name="rec_basis" >
     <v>       0.19063573       0.06608164       0.00000000 </v>
     <v>       0.00000000       0.20176413       0.00000000 </v>
     <v>       0.09657141       0.13568413       0.16436528 </v>
    </varray>
   </crystal>
   <varray name="positions" >
    <v>       0.74039000       0.24039000       0.98079000 </v>
    <v>       0.25961000       0.75961000       0.01921000 </v>
    <v>       0.24039000       0.25961000       0.50000000 </v>
    <v>       0.75961000       0.74039000       0.50000000 </v>
    <v>       0.50000000       0.00000000       0.00000000 </v>
    <v>       0.25000000       0.25000000       0.00000000 </v>
    <v>       0.75000000       0.75000000       0.00000000 </v>
    <v>       0.00000000       0.00000000       0.50000000 </v>
    <v>       0.00000000       0.50000000       0.00000000 </v>
    <v>       0.50000000       0.50000000       0.50000000 </v>
    <v>       0.00000000       0.00000000       0.00000000 </v>
    <v>       0.50000000       0.50000000       0.00000000 </v>
   </varray>
  </structure>
  <varray name="forces" >
   <v>       0.00000000       0.00000000       0.00000000 </v>
   <v>       0.00000000       0.00000000       0.00000000 </v>
   <v>       0.00000000       0.00000000       0.00000000 </v>
   <v>       0.00000000       0.00000000       0.00000000 </v>
   <v>       0.00000000       0.00000000       0.00000000 </v>
   <v>       0.00000000       0.00000000       0.00000000 </v>
   <v>       0.00000000       0.00000000       0.00000000 </v>
   <v>       0.00000000       0.00000000       0.00000000 </v>
   <v>       0.00000000       0.00000000       0.00000000 </v>
   <v>       0.00000000       0.00000000       0.00000000 </v>
   <v>       0.00000000       0.00000000       0.00000000 </v>
   <v>       0.00000000       0.00000000       0.00000000 </v>
  </varray>
  <varray name="stress" >
   <v>       0.00000000       0.00000000       0.00000000 </v>
   <v>       0.00000000       0.00000000       0.00000000 </v>
   <v>       0.00000000       0.00000000       0.00000000 </v>
  </varray>
  <energy>
   <i name="e_fr_energy">   -174.35167214 </i>
   <i name="e_wo_entrp">   -174.34967588 </i>
   <i name="e_0_energy">   -174.35067401 </i>
  </energy>
  <time name="totalsc">  952.81  961.20</time>
  <eigenvalues>
   <array>
    <dimension dim="1">band</dimension>
    <dimension dim="2">kpoint</dimension>
    <dimension dim="3">spin</dimension>
    <field>eigene</field>
    <field>occ</field>
    <set>
     <set comment="spin 1">
      <set comment="kpoint 1">
       <r>  -53.7922    1.0000 </r>
       <r>  -52.8499    1.0000 </r>
       <r>  -52.8449    1.0000 </r>
       <r>  -52.8396    1.0000 </r>
       <r>  -52.7756    1.0000 </r>
       <r>  -51.7772    1.0000 </r>
       <r>  -29.8792    1.0000 </r>
       <r>  -29.8737    1.0000 </r>
       <r>  -27.0276    1.0000 </r>
       <r>  -27.0189    1.0000 </r>
       <r>  -26.9725    1.0000 </r>
       <r>  -26.8159    1.0000 </r>
       <r>  -26.8116    1.0000 </r>
       <r>  -26.4610    1.0000 </r>
       <r>  -26.2808    1.0000 </r>
       <r>  -26.2174    1.0000 </r>
       <r>  -26.2132    1.0000 </r>
       <r>  -26.1548    1.0000 </r>
       <r>  -25.9814    1.0000 </r>
       <r>  -25.9781    1.0000 </r>
       <r>  -25.7797    1.0000 </r>
       <r>  -25.5863    1.0000 </r>
       <r>  -23.3627    1.0000 </r>
       <r>  -23.3576    1.0000 </r>
       <r>   -2.9454    1.0000 </r>
       <r>    0.0368    1.0000 </r>
       <r>    1.7040    1.0000 </r>
       <r>    1.7092    1.0000 </r>
       <r>    2.6218    1.0000 </r>
       <r>    3.1622    1.0000 </r>
       <r>    3.7147    1.0000 </r>
       <r>    4.0107    1.0000 </r>
       <r>    4.0140    1.0000 </r>
       <r>    4.5567    1.0000 </r>
       <r>    4.7619    1.0000 </r>
       <r>    4.9006    1.0000 </r>
       <r>    4.9047    1.0000 </r>
       <r>    5.1500    1.0000 </r>
       <r>    5.4560    1.0000 </r>
       <r>    5.4605    1.0000 </r>
       <r>    6.3852    1.0000 </r>
       <r>    7.0160    1.0000 </r>
       <r>    7.2502    1.0000 </r>
       <r>    7.2744    1.0000 </r>
       <r>    7.3899    1.0000 </r>
       <r>    7.3904    1.0000 </r>
       <r>    7.9608    1.0000 </r>
       <r>    9.2388    1.0000 </r>
       <r>    9.2414    1.0000 </r>
       <r>    9.7726    0.8078 </r>
       <r>   10.2645    0.0000 </r>
       <r>   10.2655    0.0000 </r>
       <r>   10.2717    0.0000 </r>
       <r>   10.6312    0.0000 </r>
       <r>   10.8232    0.0000 </r>
       <r>   10.8286    0.0000 </r>
       <r>   11.7145    0.0000 </r>
       <r>   12.0918    0.0000 </r>
       <r>   12.2492    0.0000 </r>
       <r>   12.2515    0.0000 </r>
       <r>   12.4858    0.0000 </r>
       <r>   12.8075    0.0000 </r>
       <r>   13.0916    0.0000 </r>
       <r>   13.9755    0.0000 </r>
       <r>   14.2428    0.0000 </r>
       <r>   14.5098    0.0000 </r>
      </set>
      <set comment="kpoint 2">
       <r>  -53.7695    1.0000 </r>
       <r>  -53.0634    1.0000 </r>
       <r>  -52.8439    1.0000 </r>
       <r>  -52.7792    1.0000 </r>
       <r>  -52.6178    1.0000 </r>
       <r>  -51.8057    1.0000 </r>
       <r>  -29.8083    1.0000 </r>
       <r>  -29.8028    1.0000 </r>
       <r>  -27.6134    1.0000 </r>
       <r>  -27.5890    1.0000 </r>
       <r>  -27.0119    1.0000 </r>
       <r>  -26.5379    1.0000 </r>
       <r>  -26.3061    1.0000 </r>
       <r>  -26.2125    1.0000 </r>
       <r>  -26.2087    1.0000 </r>
       <r>  -26.1585    1.0000 </r>
       <r>  -26.1354    1.0000 </r>
       <r>  -26.1310    1.0000 </r>
       <r>  -25.9959    1.0000 </r>
       <r>  -25.9712    1.0000 </r>
       <r>  -25.7729    1.0000 </r>
       <r>  -25.6051    1.0000 </r>
       <r>  -23.4629    1.0000 </r>
       <r>  -23.4578    1.0000 </r>
       <r>   -2.8288    1.0000 </r>
       <r>   -0.1347    1.0000 </r>
       <r>    1.6671    1.0000 </r>
       <r>    1.6863    1.0000 </r>
       <r>    2.7452    1.0000 </r>
       <r>    2.8634    1.0000 </r>
       <r>    3.6465    1.0000 </r>
       <r>    3.8681    1.0000 </r>
       <r>    3.9310    1.0000 </r>
       <r>    4.4231    1.0000 </r>
       <r>    4.6966    1.0000 </r>
       <r>    5.2044    1.0000 </r>
       <r>    5.3126    1.0000 </r>
       <r>    5.5581    1.0000 </r>
       <r>    5.6351    1.0000 </r>
       <r>    5.7552    1.0000 </r>
       <r>    6.4417    1.0000 </r>
       <r>    6.8289    1.0000 </r>
       <r>    6.9205    1.0000 </r>
       <r>    7.2590    1.0000 </r>
       <r>    7.5195    1.0000 </r>
       <r>    7.5912    1.0000 </r>
       <r>    8.0019    1.0000 </r>
       <r>    8.9867    1.0000 </r>
       <r>    9.2071    1.0000 </r>
       <r>    9.7771    0.7073 </r>
       <r>   10.0092    0.0000 </r>
       <r>   10.1463    0.0000 </r>
       <r>   10.1689    0.0000 </r>
       <r>   10.2683    0.0000 </r>
       <r>   10.4214    0.0000 </r>
       <r>   11.2894    0.0000 </r>
       <r>   11.9564    0.0000 </r>
       <r>   11.9714    0.0000 </r>
       <r>   12.0999    0.0000 </r>
       <r>   12.1273    0.0000 </r>
       <r>   12.4934    0.0000 </r>
       <r>   12.6465    0.0000 </r>
       <r>   13.6134    0.0000 </r>
       <r>   13.6275    0.0000 </r>
       <r>   14.4555    0.0000 </r>
       <r>   14.6244    0.0000 </r>
      </set>
      <set comment="kpoint 3">
       <r>  -53.7025    1.0000 </r>
       <r>  -53.2673    1.0000 </r>
       <r>  -52.8340    1.0000 </r>
       <r>  -52.7892    1.0000 </r>
       <r>  -52.3978    1.0000 </r>
       <r>  -51.8893    1.0000 </r>
       <r>  -29.5989    1.0000 </r>
       <r>  -29.5921    1.0000 </r>
       <r>  -28.2465    1.0000 </r>
       <r>  -28.2273    1.0000 </r>
       <r>  -26.9654    1.0000 </r>
       <r>  -26.6661    1.0000 </r>
       <r>  -26.2408    1.0000 </r>
       <r>  -26.2040    1.0000 </r>
       <r>  -26.1654    1.0000 </r>
       <r>  -26.0405    1.0000 </r>
       <r>  -25.9993    1.0000 </r>
       <r>  -25.9471    1.0000 </r>
       <r>  -25.8632    1.0000 </r>
       <r>  -25.6603    1.0000 </r>
       <r>  -25.4464    1.0000 </r>
       <r>  -25.4348    1.0000 </r>
       <r>  -23.7541    1.0000 </r>
       <r>  -23.7482    1.0000 </r>
       <r>   -2.4886    1.0000 </r>
       <r>   -0.6280    1.0000 </r>
       <r>    1.6144    1.0000 </r>
       <r>    1.7363    1.0000 </r>
       <r>    2.3096    1.0000 </r>
       <r>    2.9642    1.0000 </r>
       <r>    3.1224    1.0000 </r>
       <r>    4.0995    1.0000 </r>
       <r>    4.4134    1.0000 </r>
       <r>    4.4408    1.0000 </r>
       <r>    4.9032    1.0000 </r>
       <r>    5.2474    1.0000 </r>
       <r>    5.5078    1.0000 </r>
       <r>    5.6114    1.0000 </r>
       <r>    6.0012    1.0000 </r>
       <r>    6.1107    1.0000 </r>
       <r>    6.4266    1.0000 </r>
       <r>    6.8938    1.0000 </r>
       <r>    7.2652    1.0000 </r>
       <r>    7.3552    1.0000 </r>
       <r>    7.7828    1.0000 </r>
       <r>    8.0268    1.0000 </r>
       <r>    8.0510    1.0000 </r>
       <r>    8.1438    1.0000 </r>
       <r>    8.9530    1.0000 </r>
       <r>    9.3114    1.0000 </r>
       <r>    9.3184    1.0000 </r>
       <r>    9.9172    0.0000 </r>
       <r>   10.0804    0.0000 </r>
       <r>   10.4616    0.0000 </r>
       <r>   10.6376    0.0000 </r>
       <r>   11.1243    0.0000 </r>
       <r>   11.1667    0.0000 </r>
       <r>   11.9148    0.0000 </r>
       <r>   11.9600    0.0000 </r>
       <r>   12.2841    0.0000 </r>
       <r>   12.6737    0.0000 </r>
       <r>   13.1634    0.0000 </r>
       <r>   13.2082    0.0000 </r>
       <r>   13.5289    0.0000 </r>
       <r>   14.2835    0.0000 </r>
       <r>   14.4057    0.0000 </r>
      </set>
      <set comment="kpoint 4">
       <r>  -53.5934    1.0000 </r>
       <r>  -53.4464    1.0000 </r>
       <r>  -52.8197    1.0000 </r>
       <r>  -52.8036    1.0000 </r>
       <r>  -52.1953    1.0000 </r>
       <r>  -52.0222    1.0000 </r>
       <r>  -29.2595    1.0000 </r>
       <r>  -29.2495    1.0000 </r>
       <r>  -28.8030    1.0000 </r>
       <r>  -28.7885    1.0000 </r>
       <r>  -26.8897    1.0000 </r>
       <r>  -26.7880    1.0000 </r>
       <r>  -26.1923    1.0000 </r>
       <r>  -26.1851    1.0000 </r>
       <r>  -26.1687    1.0000 </r>
       <r>  -26.1043    1.0000 </r>
       <r>  -25.9154    1.0000 </r>
       <r>  -25.8794    1.0000 </r>
       <r>  -25.8633    1.0000 </r>
       <r>  -25.7483    1.0000 </r>
       <r>  -24.7887    1.0000 </r>
       <r>  -24.7815    1.0000 </r>
       <r>  -24.2092    1.0000 </r>
       <r>  -24.2019    1.0000 </r>
       <r>   -1.9568    1.0000 </r>
       <r>   -1.2971    1.0000 </r>
       <r>    1.6614    1.0000 </r>
       <r>    1.8832    1.0000 </r>
       <r>    1.9697    1.0000 </r>
       <r>    2.3877    1.0000 </r>
       <r>    3.6876    1.0000 </r>
       <r>    4.4244    1.0000 </r>
       <r>    4.5178    1.0000 </r>
       <r>    4.7524    1.0000 </r>
       <r>    5.0442    1.0000 </r>
       <r>    5.0801    1.0000 </r>
       <r>    5.2438    1.0000 </r>
       <r>    5.6330    1.0000 </r>
       <r>    5.8338    1.0000 </r>
       <r>    6.3332    1.0000 </r>
       <r>    6.6499    1.0000 </r>
       <r>    6.7885    1.0000 </r>
       <r>    7.4005    1.0000 </r>
       <r>    7.5923    1.0000 </r>
       <r>    8.1900    1.0000 </r>
       <r>    8.1929    1.0000 </r>
       <r>    8.2861    1.0000 </r>
       <r>    8.3059    1.0000 </r>
       <r>    8.5145    1.0000 </r>
       <r>    9.1601    1.0000 </r>
       <r>    9.3572    1.0000 </r>
       <r>    9.7155    1.0000 </r>
       <r>   10.0408    0.0000 </r>
       <r>   10.0792    0.0000 </r>
       <r>   10.2161    0.0000 </r>
       <r>   10.3120    0.0000 </r>
       <r>   11.6238    0.0000 </r>
       <r>   11.8179    0.0000 </r>
       <r>   12.0170    0.0000 </r>
       <r>   12.4740    0.0000 </r>
       <r>   12.8011    0.0000 </r>
       <r>   12.8524    0.0000 </r>
       <r>   13.5766    0.0000 </r>
       <r>   13.6535    0.0000 </r>
       <r>   13.7625    0.0000 </r>
       <r>   13.9533    0.0000 </r>
      </set>
      <set comment="kpoint 5">
       <r>  -53.7481    1.0000 </r>
       <r>  -53.1434    1.0000 </r>
       <r>  -52.8449    1.0000 </r>
       <r>  -52.7834    1.0000 </r>
       <r>  -52.5285    1.0000 </r>
       <r>  -51.8313    1.0000 </r>
       <r>  -29.8667    1.0000 </r>
       <r>  -29.6054    1.0000 </r>
       <r>  -28.2295    1.0000 </r>
       <r>  -26.9998    1.0000 </r>
       <r>  -26.9928    1.0000 </r>
       <r>  -26.8657    1.0000 </r>
       <r>  -26.5834    1.0000 </r>
       <r>  -26.2212    1.0000 </r>
       <r>  -26.2127    1.0000 </r>
       <r>  -26.1607    1.0000 </r>
       <r>  -26.0804    1.0000 </r>
       <r>  -25.9899    1.0000 </r>
       <r>  -25.9850    1.0000 </r>
       <r>  -25.7791    1.0000 </r>
       <r>  -25.6227    1.0000 </r>
       <r>  -25.4821    1.0000 </r>
       <r>  -23.7467    1.0000 </r>
       <r>  -23.3632    1.0000 </r>
       <r>   -2.6028    1.0000 </r>
       <r>   -0.4262    1.0000 </r>
       <r>    1.3850    1.0000 </r>
       <r>    1.7727    1.0000 </r>
       <r>    2.4764    1.0000 </r>
       <r>    2.8705    1.0000 </r>
       <r>    3.2505    1.0000 </r>
       <r>    3.8566    1.0000 </r>
       <r>    3.9995    1.0000 </r>
       <r>    4.6492    1.0000 </r>
       <r>    4.9893    1.0000 </r>
       <r>    5.3657    1.0000 </r>
       <r>    5.7729    1.0000 </r>
       <r>    5.7954    1.0000 </r>
       <r>    5.8516    1.0000 </r>
       <r>    6.0867    1.0000 </r>
       <r>    6.2098    1.0000 </r>
       <r>    6.3277    1.0000 </r>
       <r>    7.1583    1.0000 </r>
       <r>    7.4520    1.0000 </r>
       <r>    7.7293    1.0000 </r>
       <r>    7.7299    1.0000 </r>
       <r>    8.2278    1.0000 </r>
       <r>    8.3260    1.0000 </r>
       <r>    9.4752    1.0000 </r>
       <r>    9.5231    1.0000 </r>
       <r>    9.6821    1.0000 </r>
       <r>    9.7931    0.2804 </r>
       <r>   10.2964    0.0000 </r>
       <r>   10.4655    0.0000 </r>
       <r>   10.8012    0.0000 </r>
       <r>   10.8300    0.0000 </r>
       <r>   11.6795    0.0000 </r>
       <r>   11.6964    0.0000 </r>
       <r>   11.9992    0.0000 </r>
       <r>   12.2702    0.0000 </r>
       <r>   12.6148    0.0000 </r>
       <r>   12.6884    0.0000 </r>
       <r>   13.0931    0.0000 </r>
       <r>   13.6663    0.0000 </r>
       <r>   13.7362    0.0000 </r>
       <r>   14.4390    0.0000 </r>
      </set>
      <set comment="kpoint 6">
       <r>  -53.6852    1.0000 </r>
       <r>  -53.2967    1.0000 </r>
       <r>  -52.8393    1.0000 </r>
       <r>  -52.7947    1.0000 </r>
       <r>  -52.3575    1.0000 </r>
       <r>  -51.9067    1.0000 </r>
       <r>  -29.7899    1.0000 </r>
       <r>  -29.2711    1.0000 </r>
       <r>  -28.7828    1.0000 </r>
       <r>  -27.6218    1.0000 </r>
       <r>  -26.9584    1.0000 </r>
       <r>  -26.6814    1.0000 </r>
       <r>  -26.3575    1.0000 </r>
       <r>  -26.2076    1.0000 </r>
       <r>  -26.1714    1.0000 </r>
       <r>  -26.0904    1.0000 </r>
       <r>  -26.0332    1.0000 </r>
       <r>  -25.9730    1.0000 </r>
       <r>  -25.9607    1.0000 </r>
       <r>  -25.7539    1.0000 </r>
       <r>  -25.6728    1.0000 </r>
       <r>  -24.8142    1.0000 </r>
       <r>  -24.1915    1.0000 </r>
       <r>  -23.4684    1.0000 </r>
       <r>   -2.1738    1.0000 </r>
       <r>   -0.9637    1.0000 </r>
       <r>    1.2022    1.0000 </r>
       <r>    1.9566    1.0000 </r>
       <r>    1.9871    1.0000 </r>
       <r>    2.8061    1.0000 </r>
       <r>    3.2304    1.0000 </r>
       <r>    4.1682    1.0000 </r>
       <r>    4.3246    1.0000 </r>
       <r>    4.9486    1.0000 </r>
       <r>    5.0986    1.0000 </r>
       <r>    5.1452    1.0000 </r>
       <r>    5.4385    1.0000 </r>
       <r>    5.7867    1.0000 </r>
       <r>    5.8674    1.0000 </r>
       <r>    6.3099    1.0000 </r>
       <r>    6.4715    1.0000 </r>
       <r>    6.9222    1.0000 </r>
       <r>    7.2343    1.0000 </r>
       <r>    7.3793    1.0000 </r>
       <r>    7.7774    1.0000 </r>
       <r>    8.2714    1.0000 </r>
       <r>    8.3035    1.0000 </r>
       <r>    8.6459    1.0000 </r>
       <r>    9.0884    1.0000 </r>
       <r>    9.3393    1.0000 </r>
       <r>    9.4489    1.0000 </r>
       <r>    9.7689    0.8707 </r>
       <r>    9.8514    0.0000 </r>
       <r>   10.1774    0.0000 </r>
       <r>   10.3713    0.0000 </r>
       <r>   10.8993    0.0000 </r>
       <r>   11.2547    0.0000 </r>
       <r>   11.6402    0.0000 </r>
       <r>   11.9045    0.0000 </r>
       <r>   12.3223    0.0000 </r>
       <r>   12.6194    0.0000 </r>
       <r>   12.7653    0.0000 </r>
       <r>   13.0978    0.0000 </r>
       <r>   13.2669    0.0000 </r>
       <r>   13.8105    0.0000 </r>
       <r>   14.0077    0.0000 </r>
      </set>
      <set comment="kpoint 7">
       <r>  -53.5840    1.0000 </r>
       <r>  -53.4520    1.0000 </r>
       <r>  -52.8256    1.0000 </r>
       <r>  -52.8107    1.0000 </r>
       <r>  -52.1819    1.0000 </r>
       <r>  -52.0262    1.0000 </r>
       <r>  -29.5760    1.0000 </r>
       <r>  -29.2398    1.0000 </r>
       <r>  -28.8177    1.0000 </r>
       <r>  -28.2574    1.0000 </r>
       <r>  -26.8893    1.0000 </r>
       <r>  -26.7859    1.0000 </r>
       <r>  -26.1964    1.0000 </r>
       <r>  -26.1922    1.0000 </r>
       <r>  -26.1765    1.0000 </r>
       <r>  -26.0998    1.0000 </r>
       <r>  -25.9368    1.0000 </r>
       <r>  -25.9229    1.0000 </r>
       <r>  -25.8514    1.0000 </r>
       <r>  -25.7523    1.0000 </r>
       <r>  -25.3683    1.0000 </r>
       <r>  -24.7551    1.0000 </r>
       <r>  -24.2287    1.0000 </r>
       <r>  -23.7640    1.0000 </r>
       <r>   -1.6002    1.0000 </r>
       <r>   -1.5924    1.0000 </r>
       <r>    1.2370    1.0000 </r>
       <r>    1.6185    1.0000 </r>
       <r>    2.3693    1.0000 </r>
       <r>    2.4252    1.0000 </r>
       <r>    3.7882    1.0000 </r>
       <r>    4.4285    1.0000 </r>
       <r>    4.4440    1.0000 </r>
       <r>    4.7271    1.0000 </r>
       <r>    4.9624    1.0000 </r>
       <r>    5.0417    1.0000 </r>
       <r>    5.2327    1.0000 </r>
       <r>    5.7303    1.0000 </r>
       <r>    5.9647    1.0000 </r>
       <r>    5.9721    1.0000 </r>
       <r>    7.0209    1.0000 </r>
       <r>    7.0927    1.0000 </r>
       <r>    7.5130    1.0000 </r>
       <r>    8.0008    1.0000 </r>
       <r>    8.0767    1.0000 </r>
       <r>    8.1340    1.0000 </r>
       <r>    8.3227    1.0000 </r>
       <r>    8.5023    1.0000 </r>
       <r>    8.5837    1.0000 </r>
       <r>    8.9561    1.0000 </r>
       <r>    9.5625    1.0000 </r>
       <r>    9.6421    1.0000 </r>
       <r>    9.7534    0.9870 </r>
       <r>   10.1498    0.0000 </r>
       <r>   10.2024    0.0000 </r>
       <r>   10.2262    0.0000 </r>
       <r>   11.3572    0.0000 </r>
       <r>   11.6555    0.0000 </r>
       <r>   11.7457    0.0000 </r>
       <r>   12.2591    0.0000 </r>
       <r>   12.4165    0.0000 </r>
       <r>   13.0379    0.0000 </r>
       <r>   13.4160    0.0000 </r>
       <r>   13.4446    0.0000 </r>
       <r>   13.7056    0.0000 </r>
       <r>   14.0106    0.0000 </r>
      </set>
      <set comment="kpoint 8">
       <r>  -53.5852    1.0000 </r>
       <r>  -53.4503    1.0000 </r>
       <r>  -52.8283    1.0000 </r>
       <r>  -52.8089    1.0000 </r>
       <r>  -52.1803    1.0000 </r>
       <r>  -52.0273    1.0000 </r>
       <r>  -29.5820    1.0000 </r>
       <r>  -29.2338    1.0000 </r>
       <r>  -28.8128    1.0000 </r>
       <r>  -28.2622    1.0000 </r>
       <r>  -26.8780    1.0000 </r>
       <r>  -26.7968    1.0000 </r>
       <r>  -26.2000    1.0000 </r>
       <r>  -26.1907    1.0000 </r>
       <r>  -26.1748    1.0000 </r>
       <r>  -26.1004    1.0000 </r>
       <r>  -25.9368    1.0000 </r>
       <r>  -25.9240    1.0000 </r>
       <r>  -25.8542    1.0000 </r>
       <r>  -25.7491    1.0000 </r>
       <r>  -25.3719    1.0000 </r>
       <r>  -24.7505    1.0000 </r>
       <r>  -24.2234    1.0000 </r>
       <r>  -23.7692    1.0000 </r>
       <r>   -2.1797    1.0000 </r>
       <r>   -0.9539    1.0000 </r>
       <r>    1.4709    1.0000 </r>
       <r>    1.5053    1.0000 </r>
       <r>    2.1633    1.0000 </r>
       <r>    2.9333    1.0000 </r>
       <r>    3.7518    1.0000 </r>
       <r>    4.1018    1.0000 </r>
       <r>    4.4999    1.0000 </r>
       <r>    4.5585    1.0000 </r>
       <r>    4.8420    1.0000 </r>
       <r>    5.1478    1.0000 </r>
       <r>    5.2420    1.0000 </r>
       <r>    5.8371    1.0000 </r>
       <r>    6.1710    1.0000 </r>
       <r>    6.2072    1.0000 </r>
       <r>    6.7246    1.0000 </r>
       <r>    6.9942    1.0000 </r>
       <r>    7.2470    1.0000 </r>
       <r>    7.4845    1.0000 </r>
       <r>    7.6060    1.0000 </r>
       <r>    7.9243    1.0000 </r>
       <r>    8.4821    1.0000 </r>
       <r>    8.6458    1.0000 </r>
       <r>    8.7320    1.0000 </r>
       <r>    9.2953    1.0000 </r>
       <r>    9.3032    1.0000 </r>
       <r>    9.7067    1.0000 </r>
       <r>    9.8475    0.0000 </r>
       <r>   10.0428    0.0000 </r>
       <r>   10.3685    0.0000 </r>
       <r>   10.4383    0.0000 </r>
       <r>   11.3376    0.0000 </r>
       <r>   11.7528    0.0000 </r>
       <r>   11.8282    0.0000 </r>
       <r>   12.5940    0.0000 </r>
       <r>   12.6316    0.0000 </r>
       <r>   12.9479    0.0000 </r>
       <r>   13.2693    0.0000 </r>
       <r>   13.6835    0.0000 </r>
       <r>   13.8867    0.0000 </r>
       <r>   14.0582    0.0000 </r>
      </set>
      <set comment="kpoint 9">
       <r>  -53.6860    1.0000 </r>
       <r>  -53.2945    1.0000 </r>
       <r>  -52.8431    1.0000 </r>
       <r>  -52.7936    1.0000 </r>
       <r>  -52.3554    1.0000 </r>
       <r>  -51.9075    1.0000 </r>
       <r>  -29.7958    1.0000 </r>
       <r>  -29.2661    1.0000 </r>
       <r>  -28.7769    1.0000 </r>
       <r>  -27.6268    1.0000 </r>
       <r>  -26.9490    1.0000 </r>
       <r>  -26.6898    1.0000 </r>
       <r>  -26.3592    1.0000 </r>
       <r>  -26.2121    1.0000 </r>
       <r>  -26.1697    1.0000 </r>
       <r>  -26.0935    1.0000 </r>
       <r>  -26.0336    1.0000 </r>
       <r>  -25.9745    1.0000 </r>
       <r>  -25.9606    1.0000 </r>
       <r>  -25.7534    1.0000 </r>
       <r>  -25.6701    1.0000 </r>
       <r>  -24.8089    1.0000 </r>
       <r>  -24.1866    1.0000 </r>
       <r>  -23.4735    1.0000 </r>
       <r>   -2.6062    1.0000 </r>
       <r>   -0.4137    1.0000 </r>
       <r>    1.4928    1.0000 </r>
       <r>    1.9643    1.0000 </r>
       <r>    2.0184    1.0000 </r>
       <r>    3.1989    1.0000 </r>
       <r>    3.6477    1.0000 </r>
       <r>    3.9763    1.0000 </r>
       <r>    4.2919    1.0000 </r>
       <r>    4.3151    1.0000 </r>
       <r>    4.7255    1.0000 </r>
       <r>    5.2334    1.0000 </r>
       <r>    5.5917    1.0000 </r>
       <r>    5.7932    1.0000 </r>
       <r>    5.9726    1.0000 </r>
       <r>    6.1250    1.0000 </r>
       <r>    6.2121    1.0000 </r>
       <r>    6.9333    1.0000 </r>
       <r>    6.9865    1.0000 </r>
       <r>    7.1086    1.0000 </r>
       <r>    7.3266    1.0000 </r>
       <r>    7.8861    1.0000 </r>
       <r>    8.2079    1.0000 </r>
       <r>    8.3215    1.0000 </r>
       <r>    8.8495    1.0000 </r>
       <r>    9.6861    1.0000 </r>
       <r>    9.7244    1.0000 </r>
       <r>    9.9204    0.0000 </r>
       <r>   10.1516    0.0000 </r>
       <r>   10.1877    0.0000 </r>
       <r>   10.8335    0.0000 </r>
       <r>   11.1481    0.0000 </r>
       <r>   11.4784    0.0000 </r>
       <r>   11.6092    0.0000 </r>
       <r>   11.7919    0.0000 </r>
       <r>   12.3783    0.0000 </r>
       <r>   12.8738    0.0000 </r>
       <r>   12.9274    0.0000 </r>
       <r>   13.0731    0.0000 </r>
       <r>   13.5747    0.0000 </r>
       <r>   13.6584    0.0000 </r>
       <r>   14.0638    0.0000 </r>
      </set>
      <set comment="kpoint 10">
       <r>  -53.7485    1.0000 </r>
       <r>  -53.1407    1.0000 </r>
       <r>  -52.8499    1.0000 </r>
       <r>  -52.7829    1.0000 </r>
       <r>  -52.5260    1.0000 </r>
       <r>  -51.8317    1.0000 </r>
       <r>  -29.8724    1.0000 </r>
       <r>  -29.6002    1.0000 </r>
       <r>  -28.2238    1.0000 </r>
       <r>  -26.9990    1.0000 </r>
       <r>  -26.9946    1.0000 </r>
       <r>  -26.8693    1.0000 </r>
       <r>  -26.5877    1.0000 </r>
       <r>  -26.2216    1.0000 </r>
       <r>  -26.2176    1.0000 </r>
       <r>  -26.1600    1.0000 </r>
       <r>  -26.0791    1.0000 </r>
       <r>  -25.9884    1.0000 </r>
       <r>  -25.9866    1.0000 </r>
       <r>  -25.7787    1.0000 </r>
       <r>  -25.6212    1.0000 </r>
       <r>  -25.4768    1.0000 </r>
       <r>  -23.7418    1.0000 </r>
       <r>  -23.3683    1.0000 </r>
       <r>   -2.8299    1.0000 </r>
       <r>   -0.1273    1.0000 </r>
       <r>    1.5902    1.0000 </r>
       <r>    1.8977    1.0000 </r>
       <r>    2.5281    1.0000 </r>
       <r>    2.8594    1.0000 </r>
       <r>    3.9791    1.0000 </r>
       <r>    4.0394    1.0000 </r>
       <r>    4.1560    1.0000 </r>
       <r>    4.2656    1.0000 </r>
       <r>    4.6082    1.0000 </r>
       <r>    4.9643    1.0000 </r>
       <r>    5.3913    1.0000 </r>
       <r>    5.4146    1.0000 </r>
       <r>    5.4936    1.0000 </r>
       <r>    6.0159    1.0000 </r>
       <r>    6.1288    1.0000 </r>
       <r>    7.0429    1.0000 </r>
       <r>    7.2151    1.0000 </r>
       <r>    7.2733    1.0000 </r>
       <r>    7.3629    1.0000 </r>
       <r>    7.4756    1.0000 </r>
       <r>    8.2464    1.0000 </r>
       <r>    8.3080    1.0000 </r>
       <r>    9.1596    1.0000 </r>
       <r>    9.2753    1.0000 </r>
       <r>   10.1473    0.0000 </r>
       <r>   10.1531    0.0000 </r>
       <r>   10.2289    0.0000 </r>
       <r>   10.8409    0.0000 </r>
       <r>   10.9438    0.0000 </r>
       <r>   11.4464    0.0000 </r>
       <r>   11.5113    0.0000 </r>
       <r>   11.6348    0.0000 </r>
       <r>   11.9997    0.0000 </r>
       <r>   12.1893    0.0000 </r>
       <r>   12.4032    0.0000 </r>
       <r>   12.9647    0.0000 </r>
       <r>   13.2746    0.0000 </r>
       <r>   13.4869    0.0000 </r>
       <r>   13.9714    0.0000 </r>
       <r>   14.4255    0.0000 </r>
      </set>
      <set comment="kpoint 11">
       <r>  -53.6358    1.0000 </r>
       <r>  -53.3717    1.0000 </r>
       <r>  -52.8450    1.0000 </r>
       <r>  -52.8086    1.0000 </r>
       <r>  -52.2606    1.0000 </r>
       <r>  -51.9584    1.0000 </r>
       <r>  -29.8506    1.0000 </r>
       <r>  -29.2319    1.0000 </r>
       <r>  -28.8261    1.0000 </r>
       <r>  -26.9937    1.0000 </r>
       <r>  -26.9606    1.0000 </r>
       <r>  -26.9280    1.0000 </r>
       <r>  -26.7288    1.0000 </r>
       <r>  -26.2115    1.0000 </r>
       <r>  -26.1836    1.0000 </r>
       <r>  -26.1103    1.0000 </r>
       <r>  -26.0220    1.0000 </r>
       <r>  -26.0105    1.0000 </r>
       <r>  -25.9008    1.0000 </r>
       <r>  -25.7787    1.0000 </r>
       <r>  -25.7073    1.0000 </r>
       <r>  -24.7409    1.0000 </r>
       <r>  -24.2378    1.0000 </r>
       <r>  -23.3756    1.0000 </r>
       <r>   -1.7010    1.0000 </r>
       <r>   -1.3797    1.0000 </r>
       <r>    0.8454    1.0000 </r>
       <r>    1.5615    1.0000 </r>
       <r>    2.4310    1.0000 </r>
       <r>    2.6024    1.0000 </r>
       <r>    3.5515    1.0000 </r>
       <r>    4.1191    1.0000 </r>
       <r>    4.6175    1.0000 </r>
       <r>    4.7070    1.0000 </r>
       <r>    4.9193    1.0000 </r>
       <r>    5.0670    1.0000 </r>
       <r>    5.3720    1.0000 </r>
       <r>    5.9354    1.0000 </r>
       <r>    6.0851    1.0000 </r>
       <r>    6.2142    1.0000 </r>
       <r>    6.9653    1.0000 </r>
       <r>    7.0767    1.0000 </r>
       <r>    7.6649    1.0000 </r>
       <r>    7.7133    1.0000 </r>
       <r>    7.7397    1.0000 </r>
       <r>    8.2482    1.0000 </r>
       <r>    8.4522    1.0000 </r>
       <r>    8.6153    1.0000 </r>
       <r>    8.8101    1.0000 </r>
       <r>    9.1433    1.0000 </r>
       <r>    9.3495    1.0000 </r>
       <r>    9.9055    0.0000 </r>
       <r>   10.1445    0.0000 </r>
       <r>   10.1973    0.0000 </r>
       <r>   10.2751    0.0000 </r>
       <r>   10.3431    0.0000 </r>
       <r>   11.0681    0.0000 </r>
       <r>   11.5019    0.0000 </r>
       <r>   11.5852    0.0000 </r>
       <r>   11.6068    0.0000 </r>
       <r>   12.4686    0.0000 </r>
       <r>   13.1990    0.0000 </r>
       <r>   13.3019    0.0000 </r>
       <r>   13.3994    0.0000 </r>
       <r>   13.4827    0.0000 </r>
       <r>   14.0131    0.0000 </r>
      </set>
      <set comment="kpoint 12">
       <r>  -53.5592    1.0000 </r>
       <r>  -53.4677    1.0000 </r>
       <r>  -52.8387    1.0000 </r>
       <r>  -52.8268    1.0000 </r>
       <r>  -52.1473    1.0000 </r>
       <r>  -52.0403    1.0000 </r>
       <r>  -29.7735    1.0000 </r>
       <r>  -29.5688    1.0000 </r>
       <r>  -28.2800    1.0000 </r>
       <r>  -27.6505    1.0000 </r>
       <r>  -26.8772    1.0000 </r>
       <r>  -26.7924    1.0000 </r>
       <r>  -26.4024    1.0000 </r>
       <r>  -26.2063    1.0000 </r>
       <r>  -26.1983    1.0000 </r>
       <r>  -26.1194    1.0000 </r>
       <r>  -26.0400    1.0000 </r>
       <r>  -26.0014    1.0000 </r>
       <r>  -25.8247    1.0000 </r>
       <r>  -25.7618    1.0000 </r>
       <r>  -25.7140    1.0000 </r>
       <r>  -25.3243    1.0000 </r>
       <r>  -23.7814    1.0000 </r>
       <r>  -23.4814    1.0000 </r>
       <r>   -1.8353    1.0000 </r>
       <r>   -1.1525    1.0000 </r>
       <r>    0.7577    1.0000 </r>
       <r>    1.3482    1.0000 </r>
       <r>    2.3963    1.0000 </r>
       <r>    3.0325    1.0000 </r>
       <r>    3.8401    1.0000 </r>
       <r>    4.0308    1.0000 </r>
       <r>    4.4602    1.0000 </r>
       <r>    4.6691    1.0000 </r>
       <r>    4.7229    1.0000 </r>
       <r>    5.0009    1.0000 </r>
       <r>    5.1700    1.0000 </r>
       <r>    5.7959    1.0000 </r>
       <r>    6.2810    1.0000 </r>
       <r>    6.3304    1.0000 </r>
       <r>    7.2090    1.0000 </r>
       <r>    7.4442    1.0000 </r>
       <r>    7.4998    1.0000 </r>
       <r>    7.7228    1.0000 </r>
       <r>    7.8369    1.0000 </r>
       <r>    8.5042    1.0000 </r>
       <r>    8.5490    1.0000 </r>
       <r>    8.6147    1.0000 </r>
       <r>    8.7689    1.0000 </r>
       <r>    9.0468    1.0000 </r>
       <r>    9.3830    1.0000 </r>
       <r>    9.5526    1.0000 </r>
       <r>    9.6938    1.0000 </r>
       <r>    9.8198    0.0067 </r>
       <r>   10.2931    0.0000 </r>
       <r>   10.3581    0.0000 </r>
       <r>   11.1598    0.0000 </r>
       <r>   11.3931    0.0000 </r>
       <r>   11.6424    0.0000 </r>
       <r>   11.6891    0.0000 </r>
       <r>   11.7724    0.0000 </r>
       <r>   13.3488    0.0000 </r>
       <r>   13.5286    0.0000 </r>
       <r>   13.6695    0.0000 </r>
       <r>   14.0185    0.0000 </r>
       <r>   14.4107    0.0000 </r>
      </set>
      <set comment="kpoint 13">
       <r>  -53.5616    1.0000 </r>
       <r>  -53.4648    1.0000 </r>
       <r>  -52.8431    1.0000 </r>
       <r>  -52.8234    1.0000 </r>
       <r>  -52.1446    1.0000 </r>
       <r>  -52.0424    1.0000 </r>
       <r>  -29.7800    1.0000 </r>
       <r>  -29.5623    1.0000 </r>
       <r>  -28.2757    1.0000 </r>
       <r>  -27.6547    1.0000 </r>
       <r>  -26.8569    1.0000 </r>
       <r>  -26.8121    1.0000 </r>
       <r>  -26.4041    1.0000 </r>
       <r>  -26.2126    1.0000 </r>
       <r>  -26.1932    1.0000 </r>
       <r>  -26.1212    1.0000 </r>
       <r>  -26.0427    1.0000 </r>
       <r>  -25.9996    1.0000 </r>
       <r>  -25.8297    1.0000 </r>
       <r>  -25.7562    1.0000 </r>
       <r>  -25.7131    1.0000 </r>
       <r>  -25.3211    1.0000 </r>
       <r>  -23.7762    1.0000 </r>
       <r>  -23.4865    1.0000 </r>
       <r>   -2.2437    1.0000 </r>
       <r>   -0.6679    1.0000 </r>
       <r>    0.9636    1.0000 </r>
       <r>    1.3069    1.0000 </r>
       <r>    2.2634    1.0000 </r>
       <r>    3.6100    1.0000 </r>
       <r>    3.7384    1.0000 </r>
       <r>    3.9545    1.0000 </r>
       <r>    4.4637    1.0000 </r>
       <r>    4.5577    1.0000 </r>
       <r>    4.5805    1.0000 </r>
       <r>    5.1656    1.0000 </r>
       <r>    5.3891    1.0000 </r>
       <r>    5.5375    1.0000 </r>
       <r>    6.0958    1.0000 </r>
       <r>    6.2387    1.0000 </r>
       <r>    6.8323    1.0000 </r>
       <r>    6.9155    1.0000 </r>
       <r>    7.3671    1.0000 </r>
       <r>    7.4273    1.0000 </r>
       <r>    8.0914    1.0000 </r>
       <r>    8.0949    1.0000 </r>
       <r>    8.3396    1.0000 </r>
       <r>    8.8402    1.0000 </r>
       <r>    9.2705    1.0000 </r>
       <r>    9.3383    1.0000 </r>
       <r>    9.4465    1.0000 </r>
       <r>    9.6496    1.0000 </r>
       <r>    9.7187    1.0000 </r>
       <r>    9.9952    0.0000 </r>
       <r>   10.1621    0.0000 </r>
       <r>   10.7963    0.0000 </r>
       <r>   10.9939    0.0000 </r>
       <r>   11.2817    0.0000 </r>
       <r>   11.4071    0.0000 </r>
       <r>   11.6992    0.0000 </r>
       <r>   12.4430    0.0000 </r>
       <r>   12.9502    0.0000 </r>
       <r>   13.4622    0.0000 </r>
       <r>   13.5918    0.0000 </r>
       <r>   14.0261    0.0000 </r>
       <r>   14.7318    0.0000 </r>
      </set>
      <set comment="kpoint 14">
       <r>  -53.6374    1.0000 </r>
       <r>  -53.3685    1.0000 </r>
       <r>  -52.8500    1.0000 </r>
       <r>  -52.8063    1.0000 </r>
       <r>  -52.2578    1.0000 </r>
       <r>  -51.9599    1.0000 </r>
       <r>  -29.8569    1.0000 </r>
       <r>  -29.2257    1.0000 </r>
       <r>  -28.8216    1.0000 </r>
       <r>  -26.9993    1.0000 </r>
       <r>  -26.9632    1.0000 </r>
       <r>  -26.9114    1.0000 </r>
       <r>  -26.7442    1.0000 </r>
       <r>  -26.2179    1.0000 </r>
       <r>  -26.1802    1.0000 </r>
       <r>  -26.1116    1.0000 </r>
       <r>  -26.0255    1.0000 </r>
       <r>  -26.0080    1.0000 </r>
       <r>  -25.9039    1.0000 </r>
       <r>  -25.7772    1.0000 </r>
       <r>  -25.7026    1.0000 </r>
       <r>  -24.7364    1.0000 </r>
       <r>  -24.2325    1.0000 </r>
       <r>  -23.3807    1.0000 </r>
       <r>   -2.5181    1.0000 </r>
       <r>   -0.4042    1.0000 </r>
       <r>    1.3658    1.0000 </r>
       <r>    1.4167    1.0000 </r>
       <r>    2.1746    1.0000 </r>
       <r>    3.4951    1.0000 </r>
       <r>    3.6649    1.0000 </r>
       <r>    4.1297    1.0000 </r>
       <r>    4.2599    1.0000 </r>
       <r>    4.7455    1.0000 </r>
       <r>    4.9476    1.0000 </r>
       <r>    5.0386    1.0000 </r>
       <r>    5.1136    1.0000 </r>
       <r>    5.4969    1.0000 </r>
       <r>    5.9911    1.0000 </r>
       <r>    6.2886    1.0000 </r>
       <r>    6.5729    1.0000 </r>
       <r>    6.7274    1.0000 </r>
       <r>    6.8759    1.0000 </r>
       <r>    7.2051    1.0000 </r>
       <r>    7.5013    1.0000 </r>
       <r>    7.9041    1.0000 </r>
       <r>    8.3725    1.0000 </r>
       <r>    8.8373    1.0000 </r>
       <r>    8.9484    1.0000 </r>
       <r>    9.4022    1.0000 </r>
       <r>    9.7768    0.7146 </r>
       <r>    9.8875    0.0000 </r>
       <r>   10.1789    0.0000 </r>
       <r>   10.1954    0.0000 </r>
       <r>   10.6832    0.0000 </r>
       <r>   11.0811    0.0000 </r>
       <r>   11.2950    0.0000 </r>
       <r>   11.3269    0.0000 </r>
       <r>   11.5558    0.0000 </r>
       <r>   11.8510    0.0000 </r>
       <r>   12.8900    0.0000 </r>
       <r>   12.9867    0.0000 </r>
       <r>   13.1740    0.0000 </r>
       <r>   13.2505    0.0000 </r>
       <r>   13.4025    0.0000 </r>
       <r>   14.0980    0.0000 </r>
      </set>
      <set comment="kpoint 15">
       <r>  -53.5252    1.0000 </r>
       <r>  -53.4944    1.0000 </r>
       <r>  -52.8451    1.0000 </r>
       <r>  -52.8431    1.0000 </r>
       <r>  -52.1057    1.0000 </r>
       <r>  -52.0661    1.0000 </r>
       <r>  -29.8376    1.0000 </r>
       <r>  -29.7729    1.0000 </r>
       <r>  -27.6669    1.0000 </r>
       <r>  -27.0221    1.0000 </r>
       <r>  -26.9944    1.0000 </r>
       <r>  -26.8565    1.0000 </r>
       <r>  -26.8082    1.0000 </r>
       <r>  -26.4192    1.0000 </r>
       <r>  -26.2123    1.0000 </r>
       <r>  -26.2100    1.0000 </r>
       <r>  -26.0366    1.0000 </r>
       <r>  -26.0264    1.0000 </r>
       <r>  -25.7950    1.0000 </r>
       <r>  -25.7809    1.0000 </r>
       <r>  -25.7756    1.0000 </r>
       <r>  -25.6952    1.0000 </r>
       <r>  -23.4923    1.0000 </r>
       <r>  -23.3854    1.0000 </r>
       <r>   -2.0230    1.0000 </r>
       <r>   -0.7624    1.0000 </r>
       <r>    0.5100    1.0000 </r>
       <r>    1.2324    1.0000 </r>
       <r>    2.3187    1.0000 </r>
       <r>    3.4607    1.0000 </r>
       <r>    3.8031    1.0000 </r>
       <r>    4.3294    1.0000 </r>
       <r>    4.3996    1.0000 </r>
       <r>    4.5161    1.0000 </r>
       <r>    4.5523    1.0000 </r>
       <r>    4.6119    1.0000 </r>
       <r>    5.4578    1.0000 </r>
       <r>    6.0815    1.0000 </r>
       <r>    6.1171    1.0000 </r>
       <r>    6.2848    1.0000 </r>
       <r>    6.5930    1.0000 </r>
       <r>    7.6344    1.0000 </r>
       <r>    7.6936    1.0000 </r>
       <r>    7.7057    1.0000 </r>
       <r>    7.9907    1.0000 </r>
       <r>    8.4660    1.0000 </r>
       <r>    8.5249    1.0000 </r>
       <r>    8.7133    1.0000 </r>
       <r>    9.2248    1.0000 </r>
       <r>    9.2351    1.0000 </r>
       <r>    9.2463    1.0000 </r>
       <r>    9.4472    1.0000 </r>
       <r>    9.7575    0.9736 </r>
       <r>   10.2703    0.0000 </r>
       <r>   10.3252    0.0000 </r>
       <r>   10.4142    0.0000 </r>
       <r>   10.7889    0.0000 </r>
       <r>   10.9727    0.0000 </r>
       <r>   11.2327    0.0000 </r>
       <r>   11.3494    0.0000 </r>
       <r>   12.0488    0.0000 </r>
       <r>   12.8368    0.0000 </r>
       <r>   13.6768    0.0000 </r>
       <r>   14.1511    0.0000 </r>
       <r>   14.5588    0.0000 </r>
       <r>   14.7764    0.0000 </r>
      </set>
      <set comment="kpoint 16">
       <r>  -53.5284    1.0000 </r>
       <r>  -53.4910    1.0000 </r>
       <r>  -52.8501    1.0000 </r>
       <r>  -52.8386    1.0000 </r>
       <r>  -52.1027    1.0000 </r>
       <r>  -52.0688    1.0000 </r>
       <r>  -29.8443    1.0000 </r>
       <r>  -29.7662    1.0000 </r>
       <r>  -27.6630    1.0000 </r>
       <r>  -27.0241    1.0000 </r>
       <r>  -26.9996    1.0000 </r>
       <r>  -26.8331    1.0000 </r>
       <r>  -26.8314    1.0000 </r>
       <r>  -26.4175    1.0000 </r>
       <r>  -26.2178    1.0000 </r>
       <r>  -26.2051    1.0000 </r>
       <r>  -26.0388    1.0000 </r>
       <r>  -26.0240    1.0000 </r>
       <r>  -25.8013    1.0000 </r>
       <r>  -25.7774    1.0000 </r>
       <r>  -25.7700    1.0000 </r>
[...]
       <r>    7.3759    1.0000 </r>
       <r>    8.0449    1.0000 </r>
       <r>    8.0794    1.0000 </r>
       <r>    8.5800    1.0000 </r>
       <r>    8.6548    1.0000 </r>
       <r>    9.1056    1.0000 </r>
       <r>    9.3674    1.0000 </r>
       <r>    9.4605    1.0000 </r>
       <r>    9.6276    1.0000 </r>
       <r>    9.6602    1.0000 </r>
       <r>    9.7321    0.9999 </r>
       <r>   10.4868    0.0000 </r>
       <r>   10.5971    0.0000 </r>
       <r>   10.6388    0.0000 </r>
       <r>   11.1596    0.0000 </r>
       <r>   11.8025    0.0000 </r>
       <r>   11.8555    0.0000 </r>
       <r>   12.1892    0.0000 </r>
       <r>   12.3143    0.0000 </r>
       <r>   12.9620    0.0000 </r>
       <r>   13.0001    0.0000 </r>
       <r>   13.8810    0.0000 </r>
       <r>   13.9005    0.0000 </r>
       <r>   14.3649    0.0000 </r>
      </set>
      <set comment="kpoint 116">
       <r>  -53.7801    1.0000 </r>
       <r>  -52.9982    1.0000 </r>
       <r>  -52.8498    1.0000 </r>
       <r>  -52.7775    1.0000 </r>
       <r>  -52.6832    1.0000 </r>
       <r>  -51.7907    1.0000 </r>
       <r>  -29.8761    1.0000 </r>
       <r>  -29.8034    1.0000 </r>
       <r>  -27.5964    1.0000 </r>
       <r>  -27.0484    1.0000 </r>
       <r>  -27.0000    1.0000 </r>
       <r>  -26.8316    1.0000 </r>
       <r>  -26.4731    1.0000 </r>
       <r>  -26.2656    1.0000 </r>
       <r>  -26.2140    1.0000 </r>
       <r>  -26.1827    1.0000 </r>
       <r>  -26.1613    1.0000 </r>
       <r>  -26.1570    1.0000 </r>
       <r>  -25.9821    1.0000 </r>
       <r>  -25.9795    1.0000 </r>
       <r>  -25.7802    1.0000 </r>
       <r>  -25.6048    1.0000 </r>
       <r>  -23.4563    1.0000 </r>
       <r>  -23.3641    1.0000 </r>
       <r>   -1.2128    1.0000 </r>
       <r>   -1.1397    1.0000 </r>
       <r>    0.7343    1.0000 </r>
       <r>    0.9250    1.0000 </r>
       <r>    1.9515    1.0000 </r>
       <r>    1.9794    1.0000 </r>
       <r>    2.6455    1.0000 </r>
       <r>    2.7390    1.0000 </r>
       <r>    3.7783    1.0000 </r>
       <r>    5.1532    1.0000 </r>
       <r>    5.3353    1.0000 </r>
       <r>    5.8236    1.0000 </r>
       <r>    6.0507    1.0000 </r>
       <r>    6.4480    1.0000 </r>
       <r>    6.6157    1.0000 </r>
       <r>    6.7321    1.0000 </r>
       <r>    7.0985    1.0000 </r>
       <r>    7.2475    1.0000 </r>
       <r>    7.3732    1.0000 </r>
       <r>    8.1040    1.0000 </r>
       <r>    8.3879    1.0000 </r>
       <r>    8.5990    1.0000 </r>
       <r>    8.6072    1.0000 </r>
       <r>    9.1103    1.0000 </r>
       <r>    9.1673    1.0000 </r>
       <r>    9.5604    1.0000 </r>
       <r>    9.6301    1.0000 </r>
       <r>    9.6388    1.0000 </r>
       <r>    9.9080    0.0000 </r>
       <r>   10.4549    0.0000 </r>
       <r>   10.5108    0.0000 </r>
       <r>   10.5936    0.0000 </r>
       <r>   11.2324    0.0000 </r>
       <r>   12.1095    0.0000 </r>
       <r>   12.1374    0.0000 </r>
       <r>   12.3373    0.0000 </r>
       <r>   12.4651    0.0000 </r>
       <r>   12.4917    0.0000 </r>
       <r>   12.6648    0.0000 </r>
       <r>   13.6486    0.0000 </r>
       <r>   14.0710    0.0000 </r>
       <r>   14.2273    0.0000 </r>
      </set>
     </set>
    </set>
   </array>
  </eigenvalues>
  <separator name="orbital magnetization" >
   <v name="MAGDIPOLOUT">      0.00000000      0.00000000      0.00000000</v>
  </separator>
  <dos>
   <i name="efermi">      9.78484039 </i>
   <total>
    <array>
     <dimension dim="1">gridpoints</dimension>
     <dimension dim="2">spin</dimension>
     <field>energy</field>
     <field>total</field>
     <field>integrated</field>
     <set>
      <set comment="spin 1">
       <r>   -57.2274     0.0000     0.0000 </r>
       <r>   -56.9755     0.0000     0.0000 </r>
       <r>   -56.7236     0.0000     0.0000 </r>
       <r>   -56.4717     0.0000     0.0000 </r>
       <r>   -56.2198     0.0000     0.0000 </r>
       <r>   -55.9678     0.0000     0.0000 </r>
       <r>   -55.7159     0.0000     0.0000 </r>
       <r>   -55.4640     0.0000     0.0000 </r>
       <r>   -55.2121     0.0000     0.0000 </r>
       <r>   -54.9602     0.0000     0.0000 </r>
       <r>   -54.7083     0.0000     0.0000 </r>
       <r>   -54.4563     0.0000     0.0000 </r>
       <r>   -54.2044     0.0000     0.0000 </r>
       <r>   -53.9525     0.0000     0.0000 </r>
       <r>   -53.7006     2.1279     0.5360 </r>
       <r>   -53.4487     5.8882     2.6415 </r>
       <r>   -53.1967     1.8721     3.6298 </r>
       <r>   -52.9448     0.6063     3.9742 </r>
       <r>   -52.6929    16.0760     8.0448 </r>
       <r>   -52.4410     1.0689     8.4274 </r>
       <r>   -52.1891     2.4073     9.2850 </r>
       <r>   -51.9371     5.0700    11.2007 </r>
       <r>   -51.6852     1.2759    12.0000 </r>
       <r>   -51.4333     0.0000    12.0000 </r>
       <r>   -51.1814     0.0000    12.0000 </r>
       <r>   -50.9295     0.0000    12.0000 </r>
       <r>   -50.6776     0.0000    12.0000 </r>
       <r>   -50.4256     0.0000    12.0000 </r>
       <r>   -50.1737     0.0000    12.0000 </r>
       <r>   -49.9218     0.0000    12.0000 </r>
       <r>   -49.6699     0.0000    12.0000 </r>
       <r>   -49.4180     0.0000    12.0000 </r>
       <r>   -49.1660     0.0000    12.0000 </r>
       <r>   -48.9141     0.0000    12.0000 </r>
       <r>   -48.6622     0.0000    12.0000 </r>
       <r>   -48.4103     0.0000    12.0000 </r>
       <r>   -48.1584     0.0000    12.0000 </r>
       <r>   -47.9064     0.0000    12.0000 </r>
       <r>   -47.6545     0.0000    12.0000 </r>
       <r>   -47.4026     0.0000    12.0000 </r>
       <r>   -47.1507     0.0000    12.0000 </r>
       <r>   -46.8988     0.0000    12.0000 </r>
       <r>   -46.6468     0.0000    12.0000 </r>
       <r>   -46.3949     0.0000    12.0000 </r>
       <r>   -46.1430     0.0000    12.0000 </r>
       <r>   -45.8911     0.0000    12.0000 </r>
       <r>   -45.6392     0.0000    12.0000 </r>
       <r>   -45.3873     0.0000    12.0000 </r>
       <r>   -45.1353     0.0000    12.0000 </r>
       <r>   -44.8834     0.0000    12.0000 </r>
       <r>   -44.6315     0.0000    12.0000 </r>
       <r>   -44.3796     0.0000    12.0000 </r>
       <r>   -44.1277     0.0000    12.0000 </r>
       <r>   -43.8757     0.0000    12.0000 </r>
       <r>   -43.6238     0.0000    12.0000 </r>
       <r>   -43.3719     0.0000    12.0000 </r>
       <r>   -43.1200     0.0000    12.0000 </r>
       <r>   -42.8681     0.0000    12.0000 </r>
       <r>   -42.6161     0.0000    12.0000 </r>
       <r>   -42.3642     0.0000    12.0000 </r>
       <r>   -42.1123     0.0000    12.0000 </r>
       <r>   -41.8604     0.0000    12.0000 </r>
       <r>   -41.6085     0.0000    12.0000 </r>
       <r>   -41.3565     0.0000    12.0000 </r>
       <r>   -41.1046     0.0000    12.0000 </r>
       <r>   -40.8527     0.0000    12.0000 </r>
       <r>   -40.6008     0.0000    12.0000 </r>
       <r>   -40.3489     0.0000    12.0000 </r>
       <r>   -40.0970     0.0000    12.0000 </r>
       <r>   -39.8450     0.0000    12.0000 </r>
       <r>   -39.5931     0.0000    12.0000 </r>
       <r>   -39.3412     0.0000    12.0000 </r>
       <r>   -39.0893     0.0000    12.0000 </r>
       <r>   -38.8374     0.0000    12.0000 </r>
       <r>   -38.5854     0.0000    12.0000 </r>
       <r>   -38.3335     0.0000    12.0000 </r>
       <r>   -38.0816     0.0000    12.0000 </r>
       <r>   -37.8297     0.0000    12.0000 </r>
       <r>   -37.5778     0.0000    12.0000 </r>
       <r>   -37.3258     0.0000    12.0000 </r>
       <r>   -37.0739     0.0000    12.0000 </r>
       <r>   -36.8220     0.0000    12.0000 </r>
       <r>   -36.5701     0.0000    12.0000 </r>
       <r>   -36.3182     0.0000    12.0000 </r>
       <r>   -36.0663     0.0000    12.0000 </r>
       <r>   -35.8143     0.0000    12.0000 </r>
       <r>   -35.5624     0.0000    12.0000 </r>
       <r>   -35.3105     0.0000    12.0000 </r>
       <r>   -35.0586     0.0000    12.0000 </r>
       <r>   -34.8067     0.0000    12.0000 </r>
       <r>   -34.5547     0.0000    12.0000 </r>
       <r>   -34.3028     0.0000    12.0000 </r>
       <r>   -34.0509     0.0000    12.0000 </r>
       <r>   -33.7990     0.0000    12.0000 </r>
       <r>   -33.5471     0.0000    12.0000 </r>
       <r>   -33.2951     0.0000    12.0000 </r>
       <r>   -33.0432     0.0000    12.0000 </r>
       <r>   -32.7913     0.0000    12.0000 </r>
       <r>   -32.5394     0.0000    12.0000 </r>
       <r>   -32.2875     0.0000    12.0000 </r>
       <r>   -32.0355     0.0000    12.0000 </r>
       <r>   -31.7836     0.0000    12.0000 </r>
       <r>   -31.5317     0.0000    12.0000 </r>
       <r>   -31.2798     0.0000    12.0000 </r>
       <r>   -31.0279     0.0000    12.0000 </r>
       <r>   -30.7760     0.0000    12.0000 </r>
       <r>   -30.5240     0.0000    12.0000 </r>
       <r>   -30.2721     0.0000    12.0000 </r>
       <r>   -30.0202     0.0000    12.0000 </r>
       <r>   -29.7683     5.5575    13.4000 </r>
       <r>   -29.5164     3.6619    14.7082 </r>
       <r>   -29.2644     1.4129    15.2335 </r>
       <r>   -29.0125     1.0862    16.0594 </r>
       <r>   -28.7606     2.9449    16.9051 </r>
       <r>   -28.5087     0.7272    17.2036 </r>
       <r>   -28.2568     1.6115    17.6713 </r>
       <r>   -28.0048     0.5731    18.2158 </r>
       <r>   -27.7529     0.5420    18.4937 </r>
       <r>   -27.5010     2.6098    19.2391 </r>
       <r>   -27.2491     0.5588    19.4979 </r>
       <r>   -26.9972     2.7762    20.2504 </r>
       <r>   -26.7452     8.4021    23.4381 </r>
       <r>   -26.4933     2.2281    24.6378 </r>
       <r>   -26.2414     3.0986    25.7602 </r>
       <r>   -25.9895    14.8291    34.4908 </r>
       <r>   -25.7376    12.4362    39.9798 </r>
       <r>   -25.4857     2.5185    41.9049 </r>
       <r>   -25.2337     1.7612    42.7192 </r>
       <r>   -24.9818     0.5702    42.9396 </r>
       <r>   -24.7299     2.6954    43.7403 </r>
       <r>   -24.4780     0.6968    44.0123 </r>
       <r>   -24.2261     1.2753    44.3927 </r>
       <r>   -23.9741     0.8247    45.1363 </r>
       <r>   -23.7222     3.3107    46.0585 </r>
       <r>   -23.4703     2.7111    46.8973 </r>
       <r>   -23.2184     1.0531    48.0000 </r>
       <r>   -22.9665     0.0000    48.0000 </r>
       <r>   -22.7145     0.0000    48.0000 </r>
       <r>   -22.4626     0.0000    48.0000 </r>
       <r>   -22.2107     0.0000    48.0000 </r>
       <r>   -21.9588     0.0000    48.0000 </r>
       <r>   -21.7069     0.0000    48.0000 </r>
       <r>   -21.4549     0.0000    48.0000 </r>
       <r>   -21.2030     0.0000    48.0000 </r>
       <r>   -20.9511     0.0000    48.0000 </r>
       <r>   -20.6992     0.0000    48.0000 </r>
       <r>   -20.4473     0.0000    48.0000 </r>
       <r>   -20.1954     0.0000    48.0000 </r>
       <r>   -19.9434     0.0000    48.0000 </r>
       <r>   -19.6915     0.0000    48.0000 </r>
       <r>   -19.4396     0.0000    48.0000 </r>
       <r>   -19.1877     0.0000    48.0000 </r>
       <r>   -18.9358     0.0000    48.0000 </r>
       <r>   -18.6838     0.0000    48.0000 </r>
       <r>   -18.4319     0.0000    48.0000 </r>
       <r>   -18.1800     0.0000    48.0000 </r>
       <r>   -17.9281     0.0000    48.0000 </r>
       <r>   -17.6762     0.0000    48.0000 </r>
       <r>   -17.4242     0.0000    48.0000 </r>
       <r>   -17.1723     0.0000    48.0000 </r>
       <r>   -16.9204     0.0000    48.0000 </r>
       <r>   -16.6685     0.0000    48.0000 </r>
       <r>   -16.4166     0.0000    48.0000 </r>
       <r>   -16.1647     0.0000    48.0000 </r>
       <r>   -15.9127     0.0000    48.0000 </r>
       <r>   -15.6608     0.0000    48.0000 </r>
       <r>   -15.4089     0.0000    48.0000 </r>
       <r>   -15.1570     0.0000    48.0000 </r>
       <r>   -14.9051     0.0000    48.0000 </r>
       <r>   -14.6531     0.0000    48.0000 </r>
       <r>   -14.4012     0.0000    48.0000 </r>
       <r>   -14.1493     0.0000    48.0000 </r>
       <r>   -13.8974     0.0000    48.0000 </r>
       <r>   -13.6455     0.0000    48.0000 </r>
       <r>   -13.3935     0.0000    48.0000 </r>
       <r>   -13.1416     0.0000    48.0000 </r>
       <r>   -12.8897     0.0000    48.0000 </r>
       <r>   -12.6378     0.0000    48.0000 </r>
       <r>   -12.3859     0.0000    48.0000 </r>
       <r>   -12.1339     0.0000    48.0000 </r>
       <r>   -11.8820     0.0000    48.0000 </r>
       <r>   -11.6301     0.0000    48.0000 </r>
       <r>   -11.3782     0.0000    48.0000 </r>
       <r>   -11.1263     0.0000    48.0000 </r>
       <r>   -10.8744     0.0000    48.0000 </r>
       <r>   -10.6224     0.0000    48.0000 </r>
       <r>   -10.3705     0.0000    48.0000 </r>
       <r>   -10.1186     0.0000    48.0000 </r>
       <r>    -9.8667     0.0000    48.0000 </r>
       <r>    -9.6148     0.0000    48.0000 </r>
       <r>    -9.3628     0.0000    48.0000 </r>
       <r>    -9.1109     0.0000    48.0000 </r>
       <r>    -8.8590     0.0000    48.0000 </r>
       <r>    -8.6071     0.0000    48.0000 </r>
       <r>    -8.3552     0.0000    48.0000 </r>
       <r>    -8.1032     0.0000    48.0000 </r>
       <r>    -7.8513     0.0000    48.0000 </r>
       <r>    -7.5994     0.0000    48.0000 </r>
       <r>    -7.3475     0.0000    48.0000 </r>
       <r>    -7.0956     0.0000    48.0000 </r>
       <r>    -6.8436     0.0000    48.0000 </r>
       <r>    -6.5917     0.0000    48.0000 </r>
       <r>    -6.3398     0.0000    48.0000 </r>
       <r>    -6.0879     0.0000    48.0000 </r>
       <r>    -5.8360     0.0000    48.0000 </r>
       <r>    -5.5841     0.0000    48.0000 </r>
       <r>    -5.3321     0.0000    48.0000 </r>
       <r>    -5.0802     0.0000    48.0000 </r>
       <r>    -4.8283     0.0000    48.0000 </r>
       <r>    -4.5764     0.0000    48.0000 </r>
       <r>    -4.3245     0.0000    48.0000 </r>
       <r>    -4.0725     0.0000    48.0000 </r>
       <r>    -3.8206     0.0000    48.0000 </r>
       <r>    -3.5687     0.0000    48.0000 </r>
       <r>    -3.3168     0.0000    48.0000 </r>
       <r>    -3.0649     0.0000    48.0000 </r>
       <r>    -2.8129     0.2461    48.0620 </r>
       <r>    -2.5610     0.5710    48.2306 </r>
       <r>    -2.3091     0.7101    48.4799 </r>
       <r>    -2.0572     1.1409    48.9048 </r>
       <r>    -1.8053     1.2445    49.3849 </r>
       <r>    -1.5534     1.4650    49.8793 </r>
       <r>    -1.3014     1.2975    50.3371 </r>
       <r>    -1.0495     1.2466    50.8344 </r>
       <r>    -0.7976     1.0465    51.3045 </r>
       <r>    -0.5457     0.9718    51.6938 </r>
       <r>    -0.2938     0.5674    51.9031 </r>
       <r>    -0.0418     0.2430    51.9949 </r>
       <r>     0.2101     0.0000    52.0000 </r>
       <r>     0.4620     0.0109    52.0027 </r>
       <r>     0.7139     0.7921    52.2353 </r>
       <r>     0.9658     1.3342    52.7698 </r>
       <r>     1.2178     1.5691    53.4310 </r>
       <r>     1.4697     2.0649    54.3365 </r>
       <r>     1.7216     2.2566    55.2930 </r>
       <r>     1.9735     3.0818    56.3070 </r>
       <r>     2.2254     2.6750    57.4086 </r>
       <r>     2.4774     2.2586    58.3190 </r>
       <r>     2.7293     1.4827    58.8786 </r>
       <r>     2.9812     2.3021    59.6922 </r>
       <r>     3.2331     1.5491    60.3596 </r>
       <r>     3.4850     2.0241    61.0558 </r>
       <r>     3.7369     2.7515    61.9789 </r>
       <r>     3.9889     2.6625    62.9615 </r>
       <r>     4.2408     3.7069    64.2859 </r>
       <r>     4.4927     4.3546    66.0052 </r>
       <r>     4.7446     5.0720    67.8849 </r>
       <r>     4.9965     3.6780    69.5286 </r>
       <r>     5.2485     4.6771    71.2140 </r>
       <r>     5.5004     4.7997    72.9081 </r>
       <r>     5.7523     3.7844    74.6064 </r>
       <r>     6.0042     3.6936    76.4407 </r>
       <r>     6.2561     4.4772    78.2912 </r>
       <r>     6.5081     2.9029    79.7058 </r>
       <r>     6.7600     2.8521    80.7338 </r>
       <r>     7.0119     4.1960    82.3938 </r>
       <r>     7.2638     5.1844    84.4132 </r>
       <r>     7.5157     6.2224    86.5931 </r>
       <r>     7.7677     4.2645    88.5131 </r>
       <r>     8.0196     4.2007    90.2215 </r>
       <r>     8.2715     4.8736    92.1104 </r>
       <r>     8.5234     4.2215    94.0482 </r>
       <r>     8.7753     3.5766    95.7071 </r>
       <r>     9.0272     3.4570    97.2893 </r>
       <r>     9.2792     4.4058    99.1507 </r>
       <r>     9.5311     4.8485   101.5021 </r>
       <r>     9.7830     7.2775   103.9813 </r>
       <r>    10.0349     4.2977   105.7663 </r>
       <r>    10.2868     7.2261   108.2337 </r>
       <r>    10.5388     4.5821   110.0523 </r>
       <r>    10.7907     2.7731   111.2088 </r>
       <r>    11.0426     2.9590   112.4699 </r>
       <r>    11.2945     3.5201   113.8970 </r>
       <r>    11.5464     3.9048   115.3510 </r>
       <r>    11.7984     4.2484   116.8662 </r>
       <r>    12.0503     3.9610   118.3805 </r>
       <r>    12.3022     3.0493   119.5539 </r>
       <r>    12.5541     3.0073   120.7015 </r>
       <r>    12.8060     2.6206   121.8285 </r>
       <r>    13.0579     3.7723   123.4299 </r>
       <r>    13.3099     3.6866   124.8981 </r>
       <r>    13.5618     4.9848   126.5721 </r>
       <r>    13.8137     4.1009   128.3902 </r>
       <r>    14.0656     3.7614   129.8659 </r>
       <r>    14.3175     2.5498   130.8515 </r>
       <r>    14.5695     1.6093   131.5789 </r>
       <r>    14.8214     0.8953   131.9449 </r>
       <r>    15.0733     0.0000   132.0000 </r>
       <r>    15.3252     0.0000   132.0000 </r>
       <r>    15.5771     0.0000   132.0000 </r>
       <r>    15.8291     0.0000   132.0000 </r>
       <r>    16.0810     0.0000   132.0000 </r>
       <r>    16.3329     0.0000   132.0000 </r>
       <r>    16.5848     0.0000   132.0000 </r>
       <r>    16.8367     0.0000   132.0000 </r>
       <r>    17.0887     0.0000   132.0000 </r>
       <r>    17.3406     0.0000   132.0000 </r>
       <r>    17.5925     0.0000   132.0000 </r>
       <r>    17.8444     0.0000   132.0000 </r>
       <r>    18.0963     0.0000   132.0000 </r>
       <r>    18.3482     0.0000   132.0000 </r>
      </set>
     </set>
    </array>
   </total>
  </dos>
 </calculation>
 <structure name="finalpos" >
  <crystal>
   <varray name="basis" >
    <v>       5.24560634       0.00000000      -3.08201100 </v>
    <v>      -1.71803711       4.95628231      -3.08201100 </v>
    <v>       0.00000000       0.00000000       6.08401000 </v>
   </varray>
   <i name="volume">    158.17638676 </i>
   <varray name="rec_basis" >
    <v>       0.19063573       0.06608164       0.00000000 </v>
    <v>       0.00000000       0.20176413       0.00000000 </v>
    <v>       0.09657141       0.13568413       0.16436528 </v>
   </varray>
  </crystal>
  <varray name="positions" >
   <v>       0.74039000       0.24039000       0.98079000 </v>
   <v>       0.25961000       0.75961000       0.01921000 </v>
   <v>       0.24039000       0.25961000       0.50000000 </v>
   <v>       0.75961000       0.74039000       0.50000000 </v>
   <v>       0.50000000       0.00000000       0.00000000 </v>
   <v>       0.25000000       0.25000000       0.00000000 </v>
   <v>       0.75000000       0.75000000       0.00000000 </v>
   <v>       0.00000000       0.00000000       0.50000000 </v>
   <v>       0.00000000       0.50000000       0.00000000 </v>
   <v>       0.50000000       0.50000000       0.50000000 </v>
   <v>       0.00000000       0.00000000       0.00000000 </v>
   <v>       0.50000000       0.50000000       0.00000000 </v>
  </varray>
 </structure>
</modeling>
