 vasp.6.2.0 18Jan21 (build Jan 05 2022 15:41:44) complex                        
  
 executed on             LinuxIFC date 2025.05.07  21:18:15
 running on   24 total cores
 distrk:  each k-point on   12 cores,    2 groups
 distr:  one band on NCORE=   2 cores,    6 groups


--------------------------------------------------------------------------------------------------------


 INCAR:
   SYSTEM = routine with relax: pwdword
   ICHARG = 2
   NPAR = 6
   KPAR = 2
   NCORE = 2
   ADDGRID = T
   PREC = Acc
   ENCUT = 600
   METAGGA = R2SCAN
   LASPH = .TRUE.
   LMIXTAU = .FALSE.
   ALGO = A
   EDIFF = 1E-9
   NELM = 100
   NELMIN = 6
   IALGO = 38
   LREAL = F
   NSW = 0
   ISIF = -1
   ISMEAR = 0
   SIGMA = 0.02

 POTCAR:    PAW_PBE B 06Sep2000                   
 POTCAR:    PAW_PBE Mo_sv 02Feb2006               
 -----------------------------------------------------------------------------
|                                                                             |
|           W    W    AA    RRRRR   N    N  II  N    N   GGGG   !!!           |
|           W    W   A  A   R    R  NN   N  II  NN   N  G    G  !!!           |
|           W    W  A    A  R    R  N N  N  II  N N  N  G       !!!           |
|           W WW W  AAAAAA  RRRRR   N  N N  II  N  N N  G  GGG   !            |
|           WW  WW  A    A  R   R   N   NN  II  N   NN  G    G                |
|           W    W  A    A  R    R  N    N  II  N    N   GGGG   !!!           |
|                                                                             |
|     For optimal performance we recommend to set                             |
|       NCORE = 2 up to number-of-cores-per-socket                            |
|     NCORE specifies how many cores store one orbital (NPAR=cpu/NCORE).      |
|     This setting can greatly improve the performance of VASP for DFT.       |
|     The default, NCORE=1 might be grossly inefficient on modern             |
|     multi-core architectures or massively parallel machines. Do your        |
|     own testing! More info at https://www.vasp.at/wiki/index.php/NCORE      |
|     Unfortunately you need to use the default for GW and RPA                |
|     calculations (for HF NCORE is supported but not extensively tested      |
|     yet).                                                                   |
|                                                                             |
 -----------------------------------------------------------------------------

 POTCAR:    PAW_PBE B 06Sep2000                   
   VRHFIN =B: s2p1                                                                                  
   LEXCH  = PE                                                                                      
   EATOM  =    71.1703 eV,    5.2309 Ry                                                             
                                                                                                    
   TITEL  = PAW_PBE B 06Sep2000                                                                     
   LULTRA =        F    use ultrasoft PP ?                                                          
   IUNSCR =        1    unscreen: 0-lin 1-nonlin 2-no                                               
   RPACOR =    1.200    partial core radius                                                         
   POMASS =   10.811; ZVAL   =    3.000    mass and valenz                                          
   RCORE  =    1.700    outmost cutoff radius                                                       
   RWIGS  =    1.710; RWIGS  =    0.905    wigner-seitz radius (au A)                               
   ENMAX  =  318.614; ENMIN  =  238.960 eV                                                          
   ICORE  =        2    local potential                                                             
   LCOR   =        T    correct aug charges                                                         
   LPAW   =        T    paw PP                                                                      
   EAUG   =  535.514                                                                                
   DEXC   =    0.000                                                                                
   RMAX   =    1.732    core radius for proj-oper                                                   
   RAUG   =    1.300    factor for augmentation sphere                                              
   RDEP   =    1.757    radius for radial grids                                                     
   RDEPT  =    1.436    core radius for aug-charge                                                  
                                                                                                    
   Atomic configuration                                                                             
    4 entries                                                                                       
     n  l   j            E        occ.                                                              
     1  0  0.50      -180.5896   2.0000                                                             
     2  0  0.50        -9.4431   2.0000                                                             
     2  1  0.50        -3.6068   1.0000                                                             
     3  2  1.50        -4.0817   0.0000                                                             
   Description                                                                                      
     l       E           TYP  RCUT    TYP  RCUT                                                     
     0     -9.4430752     23  1.500                                                                 
     0      0.8675899     23  1.500                                                                 
     1     -3.6067955     23  1.700                                                                 
     1      6.1086146     23  1.700                                                                 
     2     -4.0817478      7  1.700                                                                 
  local pseudopotential read in
  partial core-charges read in
  partial kinetic energy density read in
  atomic valenz-charges read in
  non local Contribution for L=           0  read in
    real space projection operators read in
  non local Contribution for L=           0  read in
    real space projection operators read in
  non local Contribution for L=           1  read in
    real space projection operators read in
  non local Contribution for L=           1  read in
    real space projection operators read in
    PAW grid and wavefunctions read in
 
   number of l-projection  operators is LMAX  =           4
   number of lm-projection operators is LMMAX =           8
 
 POTCAR:    PAW_PBE Mo_sv 02Feb2006               
   VRHFIN =Mo: 4p5s4d                                                                               
   LEXCH  = PE                                                                                      
   EATOM  =  1862.2866 eV,  136.8742 Ry                                                             
                                                                                                    
   TITEL  = PAW_PBE Mo_sv 02Feb2006                                                                 
   LULTRA =        F    use ultrasoft PP ?                                                          
   IUNSCR =        1    unscreen: 0-lin 1-nonlin 2-no                                               
   RPACOR =    2.200    partial core radius                                                         
   POMASS =   95.940; ZVAL   =   14.000    mass and valenz                                          
   RCORE  =    2.500    outmost cutoff radius                                                       
   RWIGS  =    2.750; RWIGS  =    1.455    wigner-seitz radius (au A)                               
   ENMAX  =  242.676; ENMIN  =  182.007 eV                                                          
   ICORE  =        3    local potential                                                             
   LCOR   =        T    correct aug charges                                                         
   LPAW   =        T    paw PP                                                                      
   EAUG   =  446.014                                                                                
   DEXC   =    0.000                                                                                
   RMAX   =    2.563    core radius for proj-oper                                                   
   RAUG   =    1.300    factor for augmentation sphere                                              
   RDEP   =    2.641    radius for radial grids                                                     
   RDEPT  =    2.031    core radius for aug-charge                                                  
                                                                                                    
   Atomic configuration                                                                             
   11 entries                                                                                       
     n  l   j            E        occ.                                                              
     1  0  0.50    -19819.0341   2.0000                                                             
     2  0  0.50     -2799.0127   2.0000                                                             
     2  1  1.50     -2502.0276   6.0000                                                             
     3  0  0.50      -476.4449   2.0000                                                             
     3  1  1.50      -379.1496   6.0000                                                             
     3  2  2.50      -220.9367  10.0000                                                             
     4  0  0.50       -64.3378   2.0000                                                             
     5  0  0.50        -4.0862   1.0000                                                             
     4  1  1.50       -38.4773   6.0000                                                             
     4  2  2.50        -3.7535   5.0000                                                             
     4  3  2.50        -1.3606   0.0000                                                             
   Description                                                                                      
     l       E           TYP  RCUT    TYP  RCUT                                                     
     0    -64.3377829     23  2.100                                                                 
     0     -4.0861640     23  2.400                                                                 
     1    -38.4772993     23  2.100                                                                 
     1     13.6058260     23  2.100                                                                 
     2     -3.7534941     23  2.400                                                                 
     2     -5.1140767     23  2.400                                                                 
     3     -4.0817478     23  2.500                                                                 
  local pseudopotential read in
  partial core-charges read in
  partial kinetic energy density read in
  atomic valenz-charges read in
  non local Contribution for L=           0  read in
    real space projection operators read in
  non local Contribution for L=           0  read in
    real space projection operators read in
  non local Contribution for L=           1  read in
    real space projection operators read in
  non local Contribution for L=           1  read in
    real space projection operators read in
  non local Contribution for L=           2  read in
    real space projection operators read in
  non local Contribution for L=           2  read in
    real space projection operators read in
    PAW grid and wavefunctions read in
 
   number of l-projection  operators is LMAX  =           6
   number of lm-projection operators is LMMAX =          18
 
  PAW_PBE B 06Sep2000                   :
 energy of atom  1       EATOM=  -71.1703
 kinetic energy error for atom=    0.0007 (will be added to EATOM!!)
  PAW_PBE Mo_sv 02Feb2006               :
 energy of atom  2       EATOM=-1862.2866
 kinetic energy error for atom=    0.0041 (will be added to EATOM!!)
 
 
 POSCAR: EA245
  positions in direct lattice
  No initial velocities read in

 METAGGA = R2SCA    LMAXTAU =  6    LMIXTAU =  F

 exchange correlation table for  LEXCH =        8
   RHO(1)=    0.500       N(1)  =     2000
   RHO(2)=  100.500       N(2)  =     4000
 


--------------------------------------------------------------------------------------------------------


 ion  position               nearest neighbor table
   1  0.113  0.613  0.000-   2 1.92   9 2.36  10 2.36   9 2.36  10 2.36   8 2.41   8 2.41   5 2.42
                             6 2.42
   2  0.887  0.387  0.000-   1 1.92   9 2.36  10 2.36   9 2.36  10 2.36   7 2.41   7 2.41   5 2.42
                             6 2.42
   3  0.613  0.887  0.000-   4 1.92   7 2.36   8 2.36   7 2.36   8 2.36  10 2.41  10 2.41   5 2.42
                             6 2.42
   4  0.387  0.113  0.000-   3 1.92   7 2.36   8 2.36   7 2.36   8 2.36   9 2.41   9 2.41   5 2.42
                             6 2.42
   5  0.500  0.500  0.000-   1 2.42   2 2.42   3 2.42   4 2.42   7 2.73   8 2.73   9 2.73  10 2.73
                             7 2.73   8 2.73   9 2.73  10 2.73
   6  0.000  0.000  0.000-   1 2.42   2 2.42   3 2.42   4 2.42   7 2.73   8 2.73   9 2.73  10 2.73
                             7 2.73   8 2.73   9 2.73  10 2.73
   7  0.673  0.173  0.500-   3 2.36   4 2.36   3 2.36   4 2.36   2 2.41   2 2.41   6 2.73   5 2.73
                             5 2.73   6 2.73   8 2.93  10 3.15   9 3.15  10 3.15   9 3.15
   8  0.327  0.827  0.500-   3 2.36   4 2.36   3 2.36   4 2.36   1 2.41   1 2.41   6 2.73   5 2.73
                             5 2.73   6 2.73   7 2.93  10 3.15   9 3.15   9 3.15  10 3.15
   9  0.173  0.327  0.500-   1 2.36   2 2.36   1 2.36   2 2.36   4 2.41   4 2.41   6 2.73   5 2.73
                             5 2.73   6 2.73  10 2.93   7 3.15   8 3.15   8 3.15   7 3.15
  10  0.827  0.673  0.500-   1 2.36   2 2.36   1 2.36   2 2.36   3 2.41   3 2.41   6 2.73   5 2.73
                             5 2.73   6 2.73   9 2.93   7 3.15   8 3.15   7 3.15   8 3.15
 
  LATTYP: Found a simple tetragonal cell.
 ALAT       =     6.0098019300
 C/A-ratio  =     0.5246751435
  
  Lattice vectors:
  
 A1 = (   6.0098019300,   0.0000000000,   0.0000000000)
 A2 = (   0.0000000000,   6.0098019300,   0.0000000000)
 A3 = (   0.0000000000,   0.0000000000,   3.1531936900)


Analysis of symmetry for initial positions (statically):
=====================================================================
 Subroutine PRICEL returns:
 Original cell was already a primitive cell.
 

 Routine SETGRP: Setting up the symmetry group for a 
 simple tetragonal supercell.


 Subroutine GETGRP returns: Found 16 space group operations
 (whereof  8 operations were pure point group operations)
 out of a pool of 16 trial point group operations.


The static configuration has the point symmetry C_4h.
 The point group associated with its full space group is D_4h.


Analysis of symmetry for dynamics (positions and initial velocities):
=====================================================================
 Subroutine PRICEL returns:
 Original cell was already a primitive cell.
 

 Routine SETGRP: Setting up the symmetry group for a 
 simple tetragonal supercell.


 Subroutine GETGRP returns: Found 16 space group operations
 (whereof  8 operations were pure point group operations)
 out of a pool of 16 trial point group operations.


The dynamic configuration has the point symmetry C_4h.
 The point group associated with its full space group is D_4h.


 Subroutine INISYM returns: Found 16 space group operations
 (whereof  8 operations are pure point group operations),
 and found     1 'primitive' translations


----------------------------------------------------------------------------------------

                                     Primitive cell                                     

  volume of cell :     113.8862

  direct lattice vectors                    reciprocal lattice vectors
     6.009801930  0.000000000  0.000000000     0.166394835  0.000000000  0.000000000
     0.000000000  6.009801930  0.000000000     0.000000000  0.166394835  0.000000000
     0.000000000  0.000000000  3.153193690     0.000000000  0.000000000  0.317138780

  length of vectors
     6.009801930  6.009801930  3.153193690     0.166394835  0.166394835  0.317138780

  position of ions in fractional coordinates (direct lattice)
     0.112781040  0.612781040  0.000000000
     0.887218960  0.387218960  0.000000000
     0.612781040  0.887218960  0.000000000
     0.387218960  0.112781040  0.000000000
     0.500000000  0.500000000  0.000000000
     0.000000000  0.000000000  0.000000000
     0.672563720  0.172563720  0.500000000
     0.327436280  0.827436280  0.500000000
     0.172563720  0.327436280  0.500000000
     0.827436280  0.672563720  0.500000000

  ion indices of the primitive-cell ions
   primitive index   ion index
                 1           1
                 2           2
                 3           3
                 4           4
                 5           5
                 6           6
                 7           7
                 8           8
                 9           9
                10          10

----------------------------------------------------------------------------------------

 
 
 KPOINTS: EA                                      

Automatic generation of k-mesh.
 Grid dimensions read from file:
 generate k-points for:    6    6   11

 Generating k-lattice:

  Cartesian coordinates                     Fractional coordinates (reciprocal lattice)
     0.027732472  0.000000000  0.000000000     0.166666667  0.000000000  0.000000000
     0.000000000  0.027732472  0.000000000     0.000000000  0.166666667  0.000000000
     0.000000000  0.000000000  0.028830798     0.000000000  0.000000000  0.090909091

  Length of vectors
     0.027732472  0.027732472  0.028830798

  Shift w.r.t. Gamma in fractional coordinates (k-lattice)
     0.000000000  0.000000000  0.000000000

 
 Subroutine IBZKPT returns following result:
 ===========================================
 
 Found     60 irreducible k-points:
 
 Following reciprocal coordinates:
            Coordinates               Weight
  0.000000  0.000000  0.000000      1.000000
  0.166667  0.000000  0.000000      4.000000
  0.333333  0.000000  0.000000      4.000000
  0.500000  0.000000  0.000000      2.000000
  0.166667  0.166667  0.000000      4.000000
  0.333333  0.166667  0.000000      8.000000
  0.500000  0.166667  0.000000      4.000000
  0.333333  0.333333  0.000000      4.000000
  0.500000  0.333333  0.000000      4.000000
  0.500000  0.500000  0.000000      1.000000
  0.000000  0.000000  0.090909      2.000000
  0.166667  0.000000  0.090909      8.000000
  0.333333  0.000000  0.090909      8.000000
  0.500000  0.000000  0.090909      4.000000
  0.166667  0.166667  0.090909      8.000000
  0.333333  0.166667  0.090909     16.000000
  0.500000  0.166667  0.090909      8.000000
  0.333333  0.333333  0.090909      8.000000
  0.500000  0.333333  0.090909      8.000000
  0.500000  0.500000  0.090909      2.000000
  0.000000  0.000000  0.181818      2.000000
  0.166667  0.000000  0.181818      8.000000
  0.333333  0.000000  0.181818      8.000000
  0.500000  0.000000  0.181818      4.000000
  0.166667  0.166667  0.181818      8.000000
  0.333333  0.166667  0.181818     16.000000
  0.500000  0.166667  0.181818      8.000000
  0.333333  0.333333  0.181818      8.000000
  0.500000  0.333333  0.181818      8.000000
  0.500000  0.500000  0.181818      2.000000
  0.000000  0.000000  0.272727      2.000000
  0.166667  0.000000  0.272727      8.000000
  0.333333  0.000000  0.272727      8.000000
  0.500000  0.000000  0.272727      4.000000
  0.166667  0.166667  0.272727      8.000000
  0.333333  0.166667  0.272727     16.000000
  0.500000  0.166667  0.272727      8.000000
  0.333333  0.333333  0.272727      8.000000
  0.500000  0.333333  0.272727      8.000000
  0.500000  0.500000  0.272727      2.000000
  0.000000  0.000000  0.363636      2.000000
  0.166667  0.000000  0.363636      8.000000
  0.333333  0.000000  0.363636      8.000000
  0.500000  0.000000  0.363636      4.000000
  0.166667  0.166667  0.363636      8.000000
  0.333333  0.166667  0.363636     16.000000
  0.500000  0.166667  0.363636      8.000000
  0.333333  0.333333  0.363636      8.000000
  0.500000  0.333333  0.363636      8.000000
  0.500000  0.500000  0.363636      2.000000
  0.000000  0.000000  0.454545      2.000000
  0.166667  0.000000  0.454545      8.000000
  0.333333  0.000000  0.454545      8.000000
  0.500000  0.000000  0.454545      4.000000
  0.166667  0.166667  0.454545      8.000000
  0.333333  0.166667  0.454545     16.000000
  0.500000  0.166667  0.454545      8.000000
  0.333333  0.333333  0.454545      8.000000
  0.500000  0.333333  0.454545      8.000000
  0.500000  0.500000  0.454545      2.000000
 
 Following cartesian coordinates:
            Coordinates               Weight
  0.000000  0.000000  0.000000      1.000000
  0.027732  0.000000  0.000000      4.000000
  0.055465  0.000000  0.000000      4.000000
  0.083197  0.000000  0.000000      2.000000
  0.027732  0.027732  0.000000      4.000000
  0.055465  0.027732  0.000000      8.000000
  0.083197  0.027732  0.000000      4.000000
  0.055465  0.055465  0.000000      4.000000
  0.083197  0.055465  0.000000      4.000000
  0.083197  0.083197  0.000000      1.000000
  0.000000  0.000000  0.028831      2.000000
  0.027732  0.000000  0.028831      8.000000
  0.055465  0.000000  0.028831      8.000000
  0.083197  0.000000  0.028831      4.000000
  0.027732  0.027732  0.028831      8.000000
  0.055465  0.027732  0.028831     16.000000
  0.083197  0.027732  0.028831      8.000000
  0.055465  0.055465  0.028831      8.000000
  0.083197  0.055465  0.028831      8.000000
  0.083197  0.083197  0.028831      2.000000
  0.000000  0.000000  0.057662      2.000000
  0.027732  0.000000  0.057662      8.000000
  0.055465  0.000000  0.057662      8.000000
  0.083197  0.000000  0.057662      4.000000
  0.027732  0.027732  0.057662      8.000000
  0.055465  0.027732  0.057662     16.000000
  0.083197  0.027732  0.057662      8.000000
  0.055465  0.055465  0.057662      8.000000
  0.083197  0.055465  0.057662      8.000000
  0.083197  0.083197  0.057662      2.000000
  0.000000  0.000000  0.086492      2.000000
  0.027732  0.000000  0.086492      8.000000
  0.055465  0.000000  0.086492      8.000000
  0.083197  0.000000  0.086492      4.000000
  0.027732  0.027732  0.086492      8.000000
  0.055465  0.027732  0.086492     16.000000
  0.083197  0.027732  0.086492      8.000000
  0.055465  0.055465  0.086492      8.000000
  0.083197  0.055465  0.086492      8.000000
  0.083197  0.083197  0.086492      2.000000
  0.000000  0.000000  0.115323      2.000000
  0.027732  0.000000  0.115323      8.000000
  0.055465  0.000000  0.115323      8.000000
  0.083197  0.000000  0.115323      4.000000
  0.027732  0.027732  0.115323      8.000000
  0.055465  0.027732  0.115323     16.000000
  0.083197  0.027732  0.115323      8.000000
  0.055465  0.055465  0.115323      8.000000
  0.083197  0.055465  0.115323      8.000000
  0.083197  0.083197  0.115323      2.000000
  0.000000  0.000000  0.144154      2.000000
  0.027732  0.000000  0.144154      8.000000
  0.055465  0.000000  0.144154      8.000000
  0.083197  0.000000  0.144154      4.000000
  0.027732  0.027732  0.144154      8.000000
  0.055465  0.027732  0.144154     16.000000
  0.083197  0.027732  0.144154      8.000000
  0.055465  0.055465  0.144154      8.000000
  0.083197  0.055465  0.144154      8.000000
  0.083197  0.083197  0.144154      2.000000
 


--------------------------------------------------------------------------------------------------------




 Dimension of arrays:
   k-points           NKPTS =     60   k-points in BZ     NKDIM =     60   number of bands    NBANDS=     60
   number of dos      NEDOS =    301   number of ions     NIONS =     10
   non local maximal  LDIM  =      6   non local SUM 2l+1 LMDIM =     18
   total plane-waves  NPLWV =  64512
   max r-space proj   IRMAX =      1   max aug-charges    IRDMAX= 198354
   dimension x,y,z NGX =    48 NGY =   48 NGZ =   28
   dimension x,y,z NGXF=    96 NGYF=   96 NGZF=   56
   support grid    NGXF=   192 NGYF=  192 NGZF=  112
   ions per type =               4   6
   NGX,Y,Z   is equivalent  to a cutoff of  13.28, 13.28, 14.76 a.u.
   NGXF,Y,Z  is equivalent  to a cutoff of  26.56, 26.56, 29.52 a.u.

 SYSTEM =  routine with relax: pwdword             
 POSCAR =  EA245                                   

 Startparameter for this run:
   NWRITE =      2    write-flag & timer
   PREC   = acc       normal or accurate (medium, high low for compatibility)
   ISTART =      0    job   : 0-new  1-cont  2-samecut
   ICHARG =      2    charge: 1-file 2-atom 10-const
   ISPIN  =      1    spin polarized calculation?
   LNONCOLLINEAR =      F non collinear calculations
   LSORBIT =      F    spin-orbit coupling
   INIWAV =      1    electr: 0-lowe 1-rand  2-diag
   LASPH  =      T    aspherical Exc in radial PAW
   METAGGA=      F    non-selfconsistent MetaGGA calc.

 Electronic Relaxation 1
   ENCUT  =  600.0 eV  44.10 Ry    6.64 a.u.  12.00 12.00  6.30*2*pi/ulx,y,z
   ENINI  =  600.0     initial cutoff
   ENAUG  =  535.5 eV  augmentation charge cutoff
   NELM   =    100;   NELMIN=  6; NELMDL= -5     # of ELM steps 
   EDIFF  = 0.1E-08   stopping-criterion for ELM
   LREAL  =      F    real-space projection
   NLSPLINE    = F    spline interpolate recip. space projectors
   LCOMPAT=      F    compatible to vasp.4.4
   GGA_COMPAT  = T    GGA compatible to vasp.4.4-vasp.4.6
   LMAXPAW     = -100 max onsite density
   LMAXMIX     =    2 max onsite mixed and CHGCAR
   VOSKOWN=      0    Vosko Wilk Nusair interpolation
   ROPT   =    0.00000   0.00000
 Ionic relaxation
   EDIFFG = 0.1E-07   stopping-criterion for IOM
   NSW    =      0    number of steps for IOM
   NBLOCK =      1;   KBLOCK =      1    inner block; outer block 
   IBRION =     -1    ionic relax: 0-MD 1-quasi-New 2-CG
   NFREE  =      0    steps in history (QN), initial steepest desc. (CG)
   ISIF   =     -1    stress and relaxation
   IWAVPR =     10    prediction:  0-non 1-charg 2-wave 3-comb
   ISYM   =      2    0-nonsym 1-usesym 2-fastsym
   LCORR  =      T    Harris-Foulkes like correction to forces

   POTIM  = 0.5000    time-step for ionic-motion
   TEIN   =    0.0    initial temperature
   TEBEG  =    0.0;   TEEND  =   0.0 temperature during run
   SMASS  =  -3.00    Nose mass-parameter (am)
   estimated Nose-frequenzy (Omega)   =  0.10E-29 period in steps = 0.13E+47 mass=  -0.825E-27a.u.
   SCALEE = 1.0000    scale energy and forces
   NPACO  =    256;   APACO  = 16.0  distance and # of slots for P.C.
   PSTRESS=    0.0 pullay stress

  Mass of Ions in am
   POMASS =  10.81 95.94
  Ionic Valenz
   ZVAL   =   3.00 14.00
  Atomic Wigner-Seitz radii
   RWIGS  =  -1.00 -1.00
  virtual crystal weights 
   VCA    =   1.00  1.00
   NELECT =      96.0000    total number of electrons
   NUPDOWN=      -1.0000    fix difference up-down

 DOS related values:
   EMIN   =  10.00;   EMAX   =-10.00  energy-range for DOS
   EFERMI =   0.00
   ISMEAR =     0;   SIGMA  =   0.02  broadening in eV -4-tet -1-fermi 0-gaus

 Electronic relaxation 2 (details)
   IALGO  =     58    algorithm
   LDIAG  =      T    sub-space diagonalisation (order eigenvalues)
   LSUBROT=      F    optimize rotation matrix (better conditioning)
   TURBO    =      0    0=normal 1=particle mesh
   IRESTART =      0    0=no restart 2=restart with 2 vectors
   NREBOOT  =      0    no. of reboots
   NMIN     =      0    reboot dimension
   EREF     =   0.00    reference energy to select bands
   IMIX   =      4    mixing-type and parameters
     AMIX     =   0.40;   BMIX     =  1.00
     AMIX_MAG =   1.60;   BMIX_MAG =  1.00
     AMIN     =   0.10
     WC   =   100.;   INIMIX=   1;  MIXPRE=   1;  MAXMIX= -45

 Intra band minimization:
   WEIMIN = 0.0000     energy-eigenvalue tresh-hold
   EBREAK =  0.42E-11  absolut break condition
   DEPER  =   0.30     relativ break condition  

   TIME   =   0.40     timestep for ELM

  volume/ion in A,a.u.               =      11.39        76.85
  Fermi-wavevector in a.u.,A,eV,Ry     =   1.546470  2.922405 32.539291  2.391570
  Thomas-Fermi vector in A             =   2.651702
 
 Write flags
   LWAVE        =      T    write WAVECAR
   LDOWNSAMPLE  =      F    k-point downsampling of WAVECAR
   LCHARG       =      T    write CHGCAR
   LVTOT        =      F    write LOCPOT, total local potential
   LVHAR        =      F    write LOCPOT, Hartree potential only
   LELF         =      F    write electronic localiz. function (ELF)
   LORBIT       =      0    0 simple, 1 ext, 2 COOP (PROOUT), +10 PAW based schemes


 Dipole corrections
   LMONO  =      F    monopole corrections only (constant potential shift)
   LDIPOL =      F    correct potential (dipole corrections)
   IDIPOL =      0    1-x, 2-y, 3-z, 4-all directions 
   EPSILON=  1.0000000 bulk dielectric constant

 Exchange correlation treatment:
   GGA     =    --    GGA type
   LEXCH   =     8    internal setting for exchange type
   VOSKOWN=      0    Vosko Wilk Nusair interpolation
   LHFCALC =     F    Hartree Fock is set to
   LHFONE  =     F    Hartree Fock one center treatment
   AEXX    =    0.0000 exact exchange contribution

 Linear response parameters
   LEPSILON=     F    determine dielectric tensor
   LRPA    =     F    only Hartree local field effects (RPA)
   LNABLA  =     F    use nabla operator in PAW spheres
   LVEL    =     F    velocity operator in full k-point grid
   LINTERFAST=   F  fast interpolation
   KINTER  =     0    interpolate to denser k-point grid
   CSHIFT  =0.1000    complex shift for real part using Kramers Kronig
   OMEGAMAX=  -1.0    maximum frequency
   DEG_THRESHOLD= 0.2000000E-02 threshold for treating states as degnerate
   RTIME   =   -0.100 relaxation time in fs
  (WPLASMAI=    0.000 imaginary part of plasma frequency in eV, 0.658/RTIME)
   DFIELD  = 0.0000000 0.0000000 0.0000000 field for delta impulse in time
 
 Orbital magnetization related:
   ORBITALMAG=     F  switch on orbital magnetization
   LCHIMAG   =     F  perturbation theory with respect to B field
   DQ        =  0.001000  dq finite difference perturbation B field
   LLRAUG    =     F  two centre corrections for induced B field



--------------------------------------------------------------------------------------------------------


 Static calculation
 charge density and potential will be updated during run
 non-spin polarized calculation
 Conjugate gradient for all bands (Freysoldt, et al. PRB 79, 241103 (2009))
 preconditioned conjugated gradient                                        
 perform sub-space diagonalisation
    before iterative eigenvector-optimisation
 modified Broyden-mixing scheme, WC =      100.0
 initial mixing is a Kerker type mixing with AMIX =  0.4000 and BMIX =      1.0000
 Hartree-type preconditioning will be used
 using additional bands           12
 reciprocal scheme for non local part
 use partial core corrections
 no Harris-corrections to forces 
 use gradient corrections 
 use of overlap-Matrix (Vanderbilt PP)
 Gauss-broadening in eV      SIGMA  =   0.02


--------------------------------------------------------------------------------------------------------


  energy-cutoff  :      600.00
  volume of cell :      113.89
      direct lattice vectors                 reciprocal lattice vectors
     6.009801930  0.000000000  0.000000000     0.166394835  0.000000000  0.000000000
     0.000000000  6.009801930  0.000000000     0.000000000  0.166394835  0.000000000
     0.000000000  0.000000000  3.153193690     0.000000000  0.000000000  0.317138780

  length of vectors
     6.009801930  6.009801930  3.153193690     0.166394835  0.166394835  0.317138780


 
 k-points in units of 2pi/SCALE and weight: EA                                      
   0.00000000  0.00000000  0.00000000       0.003
   0.02773247  0.00000000  0.00000000       0.010
   0.05546494  0.00000000  0.00000000       0.010
   0.08319742  0.00000000  0.00000000       0.005
   0.02773247  0.02773247  0.00000000       0.010
   0.05546494  0.02773247  0.00000000       0.020
   0.08319742  0.02773247  0.00000000       0.010
   0.05546494  0.05546494  0.00000000       0.010
   0.08319742  0.05546494  0.00000000       0.010
   0.08319742  0.08319742  0.00000000       0.003
   0.00000000  0.00000000  0.02883080       0.005
   0.02773247  0.00000000  0.02883080       0.020
   0.05546494  0.00000000  0.02883080       0.020
   0.08319742  0.00000000  0.02883080       0.010
   0.02773247  0.02773247  0.02883080       0.020
   0.05546494  0.02773247  0.02883080       0.040
   0.08319742  0.02773247  0.02883080       0.020
   0.05546494  0.05546494  0.02883080       0.020
   0.08319742  0.05546494  0.02883080       0.020
   0.08319742  0.08319742  0.02883080       0.005
   0.00000000  0.00000000  0.05766160       0.005
   0.02773247  0.00000000  0.05766160       0.020
   0.05546494  0.00000000  0.05766160       0.020
   0.08319742  0.00000000  0.05766160       0.010
   0.02773247  0.02773247  0.05766160       0.020
   0.05546494  0.02773247  0.05766160       0.040
   0.08319742  0.02773247  0.05766160       0.020
   0.05546494  0.05546494  0.05766160       0.020
   0.08319742  0.05546494  0.05766160       0.020
   0.08319742  0.08319742  0.05766160       0.005
   0.00000000  0.00000000  0.08649239       0.005
   0.02773247  0.00000000  0.08649239       0.020
   0.05546494  0.00000000  0.08649239       0.020
   0.08319742  0.00000000  0.08649239       0.010
   0.02773247  0.02773247  0.08649239       0.020
   0.05546494  0.02773247  0.08649239       0.040
   0.08319742  0.02773247  0.08649239       0.020
   0.05546494  0.05546494  0.08649239       0.020
   0.08319742  0.05546494  0.08649239       0.020
   0.08319742  0.08319742  0.08649239       0.005
   0.00000000  0.00000000  0.11532319       0.005
   0.02773247  0.00000000  0.11532319       0.020
   0.05546494  0.00000000  0.11532319       0.020
   0.08319742  0.00000000  0.11532319       0.010
   0.02773247  0.02773247  0.11532319       0.020
   0.05546494  0.02773247  0.11532319       0.040
   0.08319742  0.02773247  0.11532319       0.020
   0.05546494  0.05546494  0.11532319       0.020
   0.08319742  0.05546494  0.11532319       0.020
   0.08319742  0.08319742  0.11532319       0.005
   0.00000000  0.00000000  0.14415399       0.005
   0.02773247  0.00000000  0.14415399       0.020
   0.05546494  0.00000000  0.14415399       0.020
   0.08319742  0.00000000  0.14415399       0.010
   0.02773247  0.02773247  0.14415399       0.020
   0.05546494  0.02773247  0.14415399       0.040
   0.08319742  0.02773247  0.14415399       0.020
   0.05546494  0.05546494  0.14415399       0.020
   0.08319742  0.05546494  0.14415399       0.020
   0.08319742  0.08319742  0.14415399       0.005
 
 k-points in reciprocal lattice and weights: EA                                      
   0.00000000  0.00000000  0.00000000       0.003
   0.16666667  0.00000000  0.00000000       0.010
   0.33333333  0.00000000  0.00000000       0.010
   0.50000000  0.00000000  0.00000000       0.005
   0.16666667  0.16666667  0.00000000       0.010
   0.33333333  0.16666667  0.00000000       0.020
   0.50000000  0.16666667  0.00000000       0.010
   0.33333333  0.33333333  0.00000000       0.010
   0.50000000  0.33333333  0.00000000       0.010
   0.50000000  0.50000000  0.00000000       0.003
   0.00000000  0.00000000  0.09090909       0.005
   0.16666667  0.00000000  0.09090909       0.020
   0.33333333  0.00000000  0.09090909       0.020
   0.50000000  0.00000000  0.09090909       0.010
   0.16666667  0.16666667  0.09090909       0.020
   0.33333333  0.16666667  0.09090909       0.040
   0.50000000  0.16666667  0.09090909       0.020
   0.33333333  0.33333333  0.09090909       0.020
   0.50000000  0.33333333  0.09090909       0.020
   0.50000000  0.50000000  0.09090909       0.005
   0.00000000  0.00000000  0.18181818       0.005
   0.16666667  0.00000000  0.18181818       0.020
   0.33333333  0.00000000  0.18181818       0.020
   0.50000000  0.00000000  0.18181818       0.010
   0.16666667  0.16666667  0.18181818       0.020
   0.33333333  0.16666667  0.18181818       0.040
   0.50000000  0.16666667  0.18181818       0.020
   0.33333333  0.33333333  0.18181818       0.020
   0.50000000  0.33333333  0.18181818       0.020
   0.50000000  0.50000000  0.18181818       0.005
   0.00000000  0.00000000  0.27272727       0.005
   0.16666667  0.00000000  0.27272727       0.020
   0.33333333  0.00000000  0.27272727       0.020
   0.50000000  0.00000000  0.27272727       0.010
   0.16666667  0.16666667  0.27272727       0.020
   0.33333333  0.16666667  0.27272727       0.040
   0.50000000  0.16666667  0.27272727       0.020
   0.33333333  0.33333333  0.27272727       0.020
   0.50000000  0.33333333  0.27272727       0.020
   0.50000000  0.50000000  0.27272727       0.005
   0.00000000  0.00000000  0.36363636       0.005
   0.16666667  0.00000000  0.36363636       0.020
   0.33333333  0.00000000  0.36363636       0.020
   0.50000000  0.00000000  0.36363636       0.010
   0.16666667  0.16666667  0.36363636       0.020
   0.33333333  0.16666667  0.36363636       0.040
   0.50000000  0.16666667  0.36363636       0.020
   0.33333333  0.33333333  0.36363636       0.020
   0.50000000  0.33333333  0.36363636       0.020
   0.50000000  0.50000000  0.36363636       0.005
   0.00000000  0.00000000  0.45454545       0.005
   0.16666667  0.00000000  0.45454545       0.020
   0.33333333  0.00000000  0.45454545       0.020
   0.50000000  0.00000000  0.45454545       0.010
   0.16666667  0.16666667  0.45454545       0.020
   0.33333333  0.16666667  0.45454545       0.040
   0.50000000  0.16666667  0.45454545       0.020
   0.33333333  0.33333333  0.45454545       0.020
   0.50000000  0.33333333  0.45454545       0.020
   0.50000000  0.50000000  0.45454545       0.005
 
 position of ions in fractional coordinates (direct lattice) 
   0.11278104  0.61278104  0.00000000
   0.88721896  0.38721896  0.00000000
   0.61278104  0.88721896  0.00000000
   0.38721896  0.11278104  0.00000000
   0.50000000  0.50000000  0.00000000
   0.00000000  0.00000000  0.00000000
   0.67256372  0.17256372  0.50000000
   0.32743628  0.82743628  0.50000000
   0.17256372  0.32743628  0.50000000
   0.82743628  0.67256372  0.50000000
 
 position of ions in cartesian coordinates  (Angst):
   0.67779171  3.68269268  0.00000000
   5.33201022  2.32710925  0.00000000
   3.68269268  5.33201022  0.00000000
   2.32710925  0.67779171  0.00000000
   3.00490097  3.00490097  0.00000000
   0.00000000  0.00000000  0.00000000
   4.04197474  1.03707378  1.57659685
   1.96782719  4.97272815  1.57659685
   1.03707378  1.96782719  1.57659685
   4.97272815  4.04197474  1.57659685
 


--------------------------------------------------------------------------------------------------------


 k-point   1 :   0.0000 0.0000 0.0000  plane waves:    3821
 k-point   2 :   0.1667 0.0000 0.0000  plane waves:    3808
 k-point   3 :   0.3333 0.0000 0.0000  plane waves:    3816
 k-point   4 :   0.5000 0.0000 0.0000  plane waves:    3812
 k-point   5 :   0.1667 0.1667 0.0000  plane waves:    3809
 k-point   6 :   0.3333 0.1667 0.0000  plane waves:    3811
 k-point   7 :   0.5000 0.1667 0.0000  plane waves:    3812
 k-point   8 :   0.3333 0.3333 0.0000  plane waves:    3793
 k-point   9 :   0.5000 0.3333 0.0000  plane waves:    3790
 k-point  10 :   0.5000 0.5000 0.0000  plane waves:    3776
 k-point  11 :   0.0000 0.0000 0.0909  plane waves:    3797
 k-point  12 :   0.1667 0.0000 0.0909  plane waves:    3807
 k-point  13 :   0.3333 0.0000 0.0909  plane waves:    3805
 k-point  14 :   0.5000 0.0000 0.0909  plane waves:    3818
 k-point  15 :   0.1667 0.1667 0.0909  plane waves:    3802
 k-point  16 :   0.3333 0.1667 0.0909  plane waves:    3807
 k-point  17 :   0.5000 0.1667 0.0909  plane waves:    3800
 k-point  18 :   0.3333 0.3333 0.0909  plane waves:    3803
 k-point  19 :   0.5000 0.3333 0.0909  plane waves:    3800
 k-point  20 :   0.5000 0.5000 0.0909  plane waves:    3780
 k-point  21 :   0.0000 0.0000 0.1818  plane waves:    3793
 k-point  22 :   0.1667 0.0000 0.1818  plane waves:    3784
 k-point  23 :   0.3333 0.0000 0.1818  plane waves:    3790
 k-point  24 :   0.5000 0.0000 0.1818  plane waves:    3796
 k-point  25 :   0.1667 0.1667 0.1818  plane waves:    3795
 k-point  26 :   0.3333 0.1667 0.1818  plane waves:    3808
 k-point  27 :   0.5000 0.1667 0.1818  plane waves:    3810
 k-point  28 :   0.3333 0.3333 0.1818  plane waves:    3807
 k-point  29 :   0.5000 0.3333 0.1818  plane waves:    3808
 k-point  30 :   0.5000 0.5000 0.1818  plane waves:    3796
 k-point  31 :   0.0000 0.0000 0.2727  plane waves:    3777
 k-point  32 :   0.1667 0.0000 0.2727  plane waves:    3782
 k-point  33 :   0.3333 0.0000 0.2727  plane waves:    3784
 k-point  34 :   0.5000 0.0000 0.2727  plane waves:    3780
 k-point  35 :   0.1667 0.1667 0.2727  plane waves:    3792
 k-point  36 :   0.3333 0.1667 0.2727  plane waves:    3800
 k-point  37 :   0.5000 0.1667 0.2727  plane waves:    3792
 k-point  38 :   0.3333 0.3333 0.2727  plane waves:    3802
 k-point  39 :   0.5000 0.3333 0.2727  plane waves:    3802
 k-point  40 :   0.5000 0.5000 0.2727  plane waves:    3832
 k-point  41 :   0.0000 0.0000 0.3636  plane waves:    3772
 k-point  42 :   0.1667 0.0000 0.3636  plane waves:    3792
 k-point  43 :   0.3333 0.0000 0.3636  plane waves:    3801
 k-point  44 :   0.5000 0.0000 0.3636  plane waves:    3804
 k-point  45 :   0.1667 0.1667 0.3636  plane waves:    3795
 k-point  46 :   0.3333 0.1667 0.3636  plane waves:    3792
 k-point  47 :   0.5000 0.1667 0.3636  plane waves:    3804
 k-point  48 :   0.3333 0.3333 0.3636  plane waves:    3797
 k-point  49 :   0.5000 0.3333 0.3636  plane waves:    3812
 k-point  50 :   0.5000 0.5000 0.3636  plane waves:    3808
 k-point  51 :   0.0000 0.0000 0.4545  plane waves:    3756
 k-point  52 :   0.1667 0.0000 0.4545  plane waves:    3793
 k-point  53 :   0.3333 0.0000 0.4545  plane waves:    3788
 k-point  54 :   0.5000 0.0000 0.4545  plane waves:    3800
 k-point  55 :   0.1667 0.1667 0.4545  plane waves:    3799
 k-point  56 :   0.3333 0.1667 0.4545  plane waves:    3796
 k-point  57 :   0.5000 0.1667 0.4545  plane waves:    3808
 k-point  58 :   0.3333 0.3333 0.4545  plane waves:    3812
 k-point  59 :   0.5000 0.3333 0.4545  plane waves:    3812
 k-point  60 :   0.5000 0.5000 0.4545  plane waves:    3792

 maximum and minimum number of plane-waves per node :      1928     1866

 maximum number of plane-waves:      3832
 maximum index in each direction: 
   IXMAX=   12   IYMAX=   12   IZMAX=    6
   IXMIN=  -12   IYMIN=  -12   IZMIN=   -6


 parallel 3D FFT for wavefunctions:
    minimum data exchange during FFTs selected (reduces bandwidth)
 parallel 3D FFT for charge:
    minimum data exchange during FFTs selected (reduces bandwidth)


 total amount of memory used by VASP MPI-rank0   133996. kBytes
=======================================================================

   base      :      30000. kBytes
   nonl-proj :      33694. kBytes
   fftplans  :       7345. kBytes
   grid      :       5166. kBytes
   one-center:         77. kBytes
   wavefun   :      57714. kBytes
 
     INWAV:  cpu time    0.0001: real time    0.0001
 Broyden mixing: mesh for mixing (old mesh)
   NGX = 25   NGY = 25   NGZ = 13
  (NGX  = 96   NGY  = 96   NGZ  = 56)
  gives a total of   8125 points

 initial charge density was supplied:
 charge density of overlapping atoms calculated
 number of electron      96.0000000 magnetization 
 keeping initial charge density in first step


--------------------------------------------------------------------------------------------------------


 Maximum index for augmentation-charges        16028 (set IRDMAX)


--------------------------------------------------------------------------------------------------------


 First call to EWALD:  gamma=   0.366
 Maximum number of real-space cells 2x 2x 4
 Maximum number of reciprocal cells 3x 3x 2

    FEWALD:  cpu time    0.0015: real time    0.0015


--------------------------------------- Iteration      1(   1)  ---------------------------------------


    POTLOK:  cpu time    0.0724: real time    0.0729
    SETDIJ:  cpu time    0.5372: real time    0.5402
    TRIAL :  cpu time    4.4876: real time    4.5201
    CORREC:  cpu time    0.0028: real time    0.0028
    --------------------------------------------
      LOOP:  cpu time    5.1217: real time    5.1623

 eigenvalue-minimisations  :  7200
 total energy-change (2. order) : 0.1049879E+04  (-0.6662047E+04)
 number of electron      96.0000000 magnetization 
 augmentation part       96.0000000 magnetization 

 Free energy of the ion-electron system (eV)
  ---------------------------------------------------
  alpha Z        PSCENC =       743.07984068
  Ewald energy   TEWEN  =    -10063.23912684
  -Hartree energ DENC   =     -1910.24046691
  -exchange      EXHF   =         0.00000000
  -V(xc)+E(xc)   XCENC  =       495.93923794
  PAW double counting   =      9083.94759681    -9065.80994096
  entropy T*S    EENTRO =        -0.00049240
  eigenvalues    EBANDS =       307.82914121
  atomic energy  EATOM  =     11458.37352761
  ---------------------------------------------------
  free energy    TOTEN  =      1049.87931714 eV

  energy without entropy =     1049.87980954  energy(sigma->0) =     1049.87956334


--------------------------------------------------------------------------------------------------------




--------------------------------------- Iteration      1(   2)  ---------------------------------------


    TRIAL :  cpu time    4.6680: real time    4.7016
    CORREC:  cpu time    0.0010: real time    0.0011
    --------------------------------------------
      LOOP:  cpu time    4.6712: real time    4.7057

 eigenvalue-minimisations  :  7908
 total energy-change (2. order) :-0.1234222E+04  (-0.1193509E+04)
 number of electron      96.0000000 magnetization 
 augmentation part       96.0000000 magnetization 

 Free energy of the ion-electron system (eV)
  ---------------------------------------------------
  alpha Z        PSCENC =       743.07984068
  Ewald energy   TEWEN  =    -10063.23912684
  -Hartree energ DENC   =     -1910.24046691
  -exchange      EXHF   =         0.00000000
  -V(xc)+E(xc)   XCENC  =       495.93923794
  PAW double counting   =      9083.94759681    -9065.80994096
  entropy T*S    EENTRO =        -0.00038982
  eigenvalues    EBANDS =      -926.39330334
  atomic energy  EATOM  =     11458.37352761
  ---------------------------------------------------
  free energy    TOTEN  =      -184.34302483 eV

  energy without entropy =     -184.34263501  energy(sigma->0) =     -184.34282992


--------------------------------------------------------------------------------------------------------




--------------------------------------- Iteration      1(   3)  ---------------------------------------


    TRIAL :  cpu time    4.9378: real time    4.9796
    CORREC:  cpu time    0.0011: real time    0.0011
    --------------------------------------------
      LOOP:  cpu time    4.9402: real time    4.9836

 eigenvalue-minimisations  :  9444
 total energy-change (2. order) :-0.4922448E+02  (-0.4768124E+02)
 number of electron      96.0000000 magnetization 
 augmentation part       96.0000000 magnetization 

 Free energy of the ion-electron system (eV)
  ---------------------------------------------------
  alpha Z        PSCENC =       743.07984068
  Ewald energy   TEWEN  =    -10063.23912684
  -Hartree energ DENC   =     -1910.24046691
  -exchange      EXHF   =         0.00000000
  -V(xc)+E(xc)   XCENC  =       495.93923794
  PAW double counting   =      9083.94759681    -9065.80994096
  entropy T*S    EENTRO =        -0.00092370
  eigenvalues    EBANDS =      -975.61724719
  atomic energy  EATOM  =     11458.37352761
  ---------------------------------------------------
  free energy    TOTEN  =      -233.56750257 eV

  energy without entropy =     -233.56657887  energy(sigma->0) =     -233.56704072


--------------------------------------------------------------------------------------------------------




--------------------------------------- Iteration      1(   4)  ---------------------------------------


    TRIAL :  cpu time    4.6325: real time    4.6698
    CORREC:  cpu time    0.0011: real time    0.0011
    --------------------------------------------
      LOOP:  cpu time    4.6341: real time    4.6738

 eigenvalue-minimisations  :  8556
 total energy-change (2. order) :-0.7454285E+00  (-0.7399055E+00)
 number of electron      96.0000000 magnetization 
 augmentation part       96.0000000 magnetization 

 Free energy of the ion-electron system (eV)
  ---------------------------------------------------
  alpha Z        PSCENC =       743.07984068
  Ewald energy   TEWEN  =    -10063.23912684
  -Hartree energ DENC   =     -1910.24046691
  -exchange      EXHF   =         0.00000000
  -V(xc)+E(xc)   XCENC  =       495.93923794
  PAW double counting   =      9083.94759681    -9065.80994096
  entropy T*S    EENTRO =        -0.00124373
  eigenvalues    EBANDS =      -976.36235565
  atomic energy  EATOM  =     11458.37352761
  ---------------------------------------------------
  free energy    TOTEN  =      -234.31293105 eV

  energy without entropy =     -234.31168732  energy(sigma->0) =     -234.31230919


--------------------------------------------------------------------------------------------------------




--------------------------------------- Iteration      1(   5)  ---------------------------------------


    TRIAL :  cpu time    4.7747: real time    4.8114
    CORREC:  cpu time    0.0011: real time    0.0011
    CHARGE:  cpu time    0.5233: real time    0.5272
    --------------------------------------------
      LOOP:  cpu time    5.3013: real time    5.3424

 eigenvalue-minimisations  :  9048
 total energy-change (2. order) :-0.1526276E-01  (-0.1524967E-01)
 number of electron      96.0000001 magnetization 
 augmentation part       12.5966688 magnetization 

 Free energy of the ion-electron system (eV)
  ---------------------------------------------------
  alpha Z        PSCENC =       743.07984068
  Ewald energy   TEWEN  =    -10063.23912684
  -Hartree energ DENC   =     -1910.24046691
  -exchange      EXHF   =         0.00000000
  -V(xc)+E(xc)   XCENC  =       495.93923794
  PAW double counting   =      9083.94759681    -9065.80994096
  entropy T*S    EENTRO =        -0.00125225
  eigenvalues    EBANDS =      -976.37760989
  atomic energy  EATOM  =     11458.37352761
  ---------------------------------------------------
  free energy    TOTEN  =      -234.32819381 eV

  energy without entropy =     -234.32694156  energy(sigma->0) =     -234.32756768


--------------------------------------------------------------------------------------------------------




--------------------------------------- Iteration      1(   6)  ---------------------------------------


    POTLOK:  cpu time    0.0600: real time    0.0604
    SETDIJ:  cpu time    0.5333: real time    0.5364
    TRIAL :  cpu time    3.3014: real time    3.3251
    CORREC:  cpu time    1.9653: real time    1.9783
    CHARGE:  cpu time    0.5028: real time    0.5064
    --------------------------------------------
      LOOP:  cpu time    6.3656: real time    6.4100

 eigenvalue-minimisations  :     0
 total energy-change (2. order) : 0.6580120E+02  (-0.1667507E+02)
 number of electron      96.0000001 magnetization 
 augmentation part       14.8642398 magnetization 

 Free energy of the ion-electron system (eV)
  ---------------------------------------------------
  alpha Z        PSCENC =       743.07984068
  Ewald energy   TEWEN  =    -10063.23912684
  -Hartree energ DENC   =     -1463.81414640
  -exchange      EXHF   =         0.00000000
  -V(xc)+E(xc)   XCENC  =       490.49702463
  PAW double counting   =     12960.31642425   -12988.00763488
  entropy T*S    EENTRO =        -0.00064421
  eigenvalues    EBANDS =     -1305.73164811
  atomic energy  EATOM  =     11458.37352761
  ---------------------------------------------------
  free energy    TOTEN  =      -168.52699130 eV

  energy without entropy =     -168.52634710  energy(sigma->0) =     -168.52666920


--------------------------------------------------------------------------------------------------------




--------------------------------------- Iteration      1(   7)  ---------------------------------------


    POTLOK:  cpu time    0.0548: real time    0.0552
    SETDIJ:  cpu time    0.5376: real time    0.5408
    TRIAL :  cpu time    3.3710: real time    3.3950
    CORREC:  cpu time    1.9860: real time    1.9994
    CHARGE:  cpu time    0.5210: real time    0.5249
    --------------------------------------------
      LOOP:  cpu time    6.4732: real time    6.5192

 eigenvalue-minimisations  :     0
 total energy-change (2. order) :-0.1668119E+02  (-0.3238552E+01)
 number of electron      96.0000001 magnetization 
 augmentation part       14.6935827 magnetization 

 Free energy of the ion-electron system (eV)
  ---------------------------------------------------
  alpha Z        PSCENC =       743.07984068
  Ewald energy   TEWEN  =    -10063.23912684
  -Hartree energ DENC   =     -1686.46804562
  -exchange      EXHF   =         0.00000000
  -V(xc)+E(xc)   XCENC  =       500.91470856
  PAW double counting   =     11902.00747778   -11915.20141772
  entropy T*S    EENTRO =        -0.00089715
  eigenvalues    EBANDS =     -1124.67449734
  atomic energy  EATOM  =     11458.37352761
  ---------------------------------------------------
  free energy    TOTEN  =      -185.20817709 eV

  energy without entropy =     -185.20727994  energy(sigma->0) =     -185.20772852


--------------------------------------------------------------------------------------------------------




--------------------------------------- Iteration      1(   8)  ---------------------------------------


    POTLOK:  cpu time    0.0555: real time    0.0559
    SETDIJ:  cpu time    0.5327: real time    0.5362
    TRIAL :  cpu time    3.2187: real time    3.2436
    CORREC:  cpu time    1.9359: real time    1.9500
    CHARGE:  cpu time    0.4996: real time    0.5035
    --------------------------------------------
      LOOP:  cpu time    6.2433: real time    6.2912

 eigenvalue-minimisations  :     0
 total energy-change (2. order) :-0.3238892E+01  (-0.9197794E+00)
 number of electron      96.0000001 magnetization 
 augmentation part       14.5992453 magnetization 

 Free energy of the ion-electron system (eV)
  ---------------------------------------------------
  alpha Z        PSCENC =       743.07984068
  Ewald energy   TEWEN  =    -10063.23912684
  -Hartree energ DENC   =     -1723.60296812
  -exchange      EXHF   =         0.00000000
  -V(xc)+E(xc)   XCENC  =       502.37864348
  PAW double counting   =     11541.95415422   -11551.78697425
  entropy T*S    EENTRO =        -0.00112748
  eigenvalues    EBANDS =     -1095.60326877
  atomic energy  EATOM  =     11458.37352761
  ---------------------------------------------------
  free energy    TOTEN  =      -188.44706914 eV

  energy without entropy =     -188.44594166  energy(sigma->0) =     -188.44650540


--------------------------------------------------------------------------------------------------------




--------------------------------------- Iteration      1(   9)  ---------------------------------------


    POTLOK:  cpu time    0.0544: real time    0.0548
    SETDIJ:  cpu time    0.5275: real time    0.5310
    TRIAL :  cpu time    3.2121: real time    3.2383
    CORREC:  cpu time    1.9516: real time    1.9649
    CHARGE:  cpu time    0.5014: real time    0.5050
    --------------------------------------------
      LOOP:  cpu time    6.2492: real time    6.2969

 eigenvalue-minimisations  :     0
 total energy-change (2. order) :-0.9181790E+00  (-0.2772864E+00)
 number of electron      96.0000001 magnetization 
 augmentation part       14.6445979 magnetization 

 Free energy of the ion-electron system (eV)
  ---------------------------------------------------
  alpha Z        PSCENC =       743.07984068
  Ewald energy   TEWEN  =    -10063.23912684
  -Hartree energ DENC   =     -1728.19515350
  -exchange      EXHF   =         0.00000000
  -V(xc)+E(xc)   XCENC  =       502.55322268
  PAW double counting   =     11357.32688502   -11364.38933740
  entropy T*S    EENTRO =        -0.00107167
  eigenvalues    EBANDS =     -1094.87397887
  atomic energy  EATOM  =     11458.37352761
  ---------------------------------------------------
  free energy    TOTEN  =      -189.36524810 eV

  energy without entropy =     -189.36417643  energy(sigma->0) =     -189.36471227


--------------------------------------------------------------------------------------------------------




--------------------------------------- Iteration      1(  10)  ---------------------------------------


    POTLOK:  cpu time    0.0548: real time    0.0552
    SETDIJ:  cpu time    0.5270: real time    0.5302
    TRIAL :  cpu time    3.3927: real time    3.4184
    CORREC:  cpu time    1.9370: real time    1.9509
    CHARGE:  cpu time    0.4930: real time    0.4968
    --------------------------------------------
      LOOP:  cpu time    6.4053: real time    6.4531

 eigenvalue-minimisations  :     0
 total energy-change (2. order) :-0.2774990E+00  (-0.8265645E-01)
 number of electron      96.0000001 magnetization 
 augmentation part       14.6330972 magnetization 

 Free energy of the ion-electron system (eV)
  ---------------------------------------------------
  alpha Z        PSCENC =       743.07984068
  Ewald energy   TEWEN  =    -10063.23912684
  -Hartree energ DENC   =     -1733.83001255
  -exchange      EXHF   =         0.00000000
  -V(xc)+E(xc)   XCENC  =       502.91220281
  PAW double counting   =     11256.74434963   -11261.97052853
  entropy T*S    EENTRO =        -0.00107966
  eigenvalues    EBANDS =     -1091.71192828
  atomic energy  EATOM  =     11458.37352761
  ---------------------------------------------------
  free energy    TOTEN  =      -189.64274712 eV

  energy without entropy =     -189.64166747  energy(sigma->0) =     -189.64220730


--------------------------------------------------------------------------------------------------------




--------------------------------------- Iteration      1(  11)  ---------------------------------------


    POTLOK:  cpu time    0.0547: real time    0.0551
    SETDIJ:  cpu time    0.5303: real time    0.5335
    TRIAL :  cpu time    3.4188: real time    3.4438
    CORREC:  cpu time    1.9694: real time    1.9826
    CHARGE:  cpu time    0.4980: real time    0.5019
    --------------------------------------------
      LOOP:  cpu time    6.4719: real time    6.5191

 eigenvalue-minimisations  :     0
 total energy-change (2. order) :-0.8265965E-01  (-0.2769819E-01)
 number of electron      96.0000001 magnetization 
 augmentation part       14.6382699 magnetization 

 Free energy of the ion-electron system (eV)
  ---------------------------------------------------
  alpha Z        PSCENC =       743.07984068
  Ewald energy   TEWEN  =    -10063.23912684
  -Hartree energ DENC   =     -1735.66346297
  -exchange      EXHF   =         0.00000000
  -V(xc)+E(xc)   XCENC  =       503.02562311
  PAW double counting   =     11258.56481251   -11263.59440302
  entropy T*S    EENTRO =        -0.00103117
  eigenvalues    EBANDS =     -1090.27113820
  atomic energy  EATOM  =     11458.37352761
  ---------------------------------------------------
  free energy    TOTEN  =      -189.72540678 eV

  energy without entropy =     -189.72437560  energy(sigma->0) =     -189.72489119


--------------------------------------------------------------------------------------------------------




--------------------------------------- Iteration      1(  12)  ---------------------------------------


    POTLOK:  cpu time    0.0547: real time    0.0551
    SETDIJ:  cpu time    0.5282: real time    0.5316
    TRIAL :  cpu time    3.3031: real time    3.3269
    CORREC:  cpu time    1.9397: real time    1.9542
    CHARGE:  cpu time    0.4949: real time    0.4987
    --------------------------------------------
      LOOP:  cpu time    6.3225: real time    6.3698

 eigenvalue-minimisations  :     0
 total energy-change (2. order) :-0.2766644E-01  (-0.9464667E-02)
 number of electron      96.0000001 magnetization 
 augmentation part       14.6300436 magnetization 

 Free energy of the ion-electron system (eV)
  ---------------------------------------------------
  alpha Z        PSCENC =       743.07984068
  Ewald energy   TEWEN  =    -10063.23912684
  -Hartree energ DENC   =     -1736.98022894
  -exchange      EXHF   =         0.00000000
  -V(xc)+E(xc)   XCENC  =       503.06428029
  PAW double counting   =     11304.80957447   -11310.04529005
  entropy T*S    EENTRO =        -0.00095458
  eigenvalues    EBANDS =     -1088.81461927
  atomic energy  EATOM  =     11458.37352761
  ---------------------------------------------------
  free energy    TOTEN  =      -189.75307321 eV

  energy without entropy =     -189.75211864  energy(sigma->0) =     -189.75259592


--------------------------------------------------------------------------------------------------------




--------------------------------------- Iteration      1(  13)  ---------------------------------------


    POTLOK:  cpu time    0.0536: real time    0.0539
    SETDIJ:  cpu time    0.5316: real time    0.5351
    TRIAL :  cpu time    3.2588: real time    3.2834
    CORREC:  cpu time    1.9532: real time    1.9675
    CHARGE:  cpu time    0.5006: real time    0.5046
    --------------------------------------------
      LOOP:  cpu time    6.3021: real time    6.3491

 eigenvalue-minimisations  :     0
 total energy-change (2. order) :-0.9458112E-02  (-0.4251397E-02)
 number of electron      96.0000001 magnetization 
 augmentation part       14.6304545 magnetization 

 Free energy of the ion-electron system (eV)
  ---------------------------------------------------
  alpha Z        PSCENC =       743.07984068
  Ewald energy   TEWEN  =    -10063.23912684
  -Hartree energ DENC   =     -1735.92196163
  -exchange      EXHF   =         0.00000000
  -V(xc)+E(xc)   XCENC  =       503.01393647
  PAW double counting   =     11331.44626397   -11336.83875356
  entropy T*S    EENTRO =        -0.00090492
  eigenvalues    EBANDS =     -1089.67530346
  atomic energy  EATOM  =     11458.37352761
  ---------------------------------------------------
  free energy    TOTEN  =      -189.76253132 eV

  energy without entropy =     -189.76162640  energy(sigma->0) =     -189.76207886


--------------------------------------------------------------------------------------------------------




--------------------------------------- Iteration      1(  14)  ---------------------------------------


    POTLOK:  cpu time    0.0546: real time    0.0550
    SETDIJ:  cpu time    0.5325: real time    0.5361
    TRIAL :  cpu time    3.2302: real time    3.2533
    CORREC:  cpu time    1.9805: real time    1.9938
    CHARGE:  cpu time    0.5095: real time    0.5133
    --------------------------------------------
      LOOP:  cpu time    6.3100: real time    6.3550

 eigenvalue-minimisations  :     0
 total energy-change (2. order) :-0.4247782E-02  (-0.1844184E-02)
 number of electron      96.0000001 magnetization 
 augmentation part       14.6357589 magnetization 

 Free energy of the ion-electron system (eV)
  ---------------------------------------------------
  alpha Z        PSCENC =       743.07984068
  Ewald energy   TEWEN  =    -10063.23912684
  -Hartree energ DENC   =     -1735.98828767
  -exchange      EXHF   =         0.00000000
  -V(xc)+E(xc)   XCENC  =       503.02350490
  PAW double counting   =     11332.90025673   -11338.23342003
  entropy T*S    EENTRO =        -0.00082862
  eigenvalues    EBANDS =     -1089.68216957
  atomic energy  EATOM  =     11458.37352761
  ---------------------------------------------------
  free energy    TOTEN  =      -189.76677911 eV

  energy without entropy =     -189.76595048  energy(sigma->0) =     -189.76636479


--------------------------------------------------------------------------------------------------------




--------------------------------------- Iteration      1(  15)  ---------------------------------------


    POTLOK:  cpu time    0.0544: real time    0.0548
    SETDIJ:  cpu time    0.5674: real time    0.5713
    TRIAL :  cpu time    3.3699: real time    3.3939
    CORREC:  cpu time    1.9487: real time    1.9620
    CHARGE:  cpu time    0.4970: real time    0.5007
    --------------------------------------------
      LOOP:  cpu time    6.4385: real time    6.4856

 eigenvalue-minimisations  :     0
 total energy-change (2. order) :-0.1843280E-02  (-0.7432878E-03)
 number of electron      96.0000001 magnetization 
 augmentation part       14.6355700 magnetization 

 Free energy of the ion-electron system (eV)
  ---------------------------------------------------
  alpha Z        PSCENC =       743.07984068
  Ewald energy   TEWEN  =    -10063.23912684
  -Hartree energ DENC   =     -1736.49570373
  -exchange      EXHF   =         0.00000000
  -V(xc)+E(xc)   XCENC  =       503.05408990
  PAW double counting   =     11326.56541040   -11331.80421717
  entropy T*S    EENTRO =        -0.00081227
  eigenvalues    EBANDS =     -1089.30161461
  atomic energy  EATOM  =     11458.37352761
  ---------------------------------------------------
  free energy    TOTEN  =      -189.76862239 eV

  energy without entropy =     -189.76781012  energy(sigma->0) =     -189.76821625


--------------------------------------------------------------------------------------------------------




--------------------------------------- Iteration      1(  16)  ---------------------------------------


    POTLOK:  cpu time    0.0585: real time    0.0589
    SETDIJ:  cpu time    0.5266: real time    0.5297
    TRIAL :  cpu time    3.4744: real time    3.4991
    CORREC:  cpu time    1.9547: real time    1.9680
    CHARGE:  cpu time    0.5024: real time    0.5059
    --------------------------------------------
      LOOP:  cpu time    6.5182: real time    6.5643

 eigenvalue-minimisations  :     0
 total energy-change (2. order) :-0.7419207E-03  (-0.2735361E-03)
 number of electron      96.0000001 magnetization 
 augmentation part       14.6335323 magnetization 

 Free energy of the ion-electron system (eV)
  ---------------------------------------------------
  alpha Z        PSCENC =       743.07984068
  Ewald energy   TEWEN  =    -10063.23912684
  -Hartree energ DENC   =     -1736.46794001
  -exchange      EXHF   =         0.00000000
  -V(xc)+E(xc)   XCENC  =       503.04688606
  PAW double counting   =     11323.66403871   -11328.91104289
  entropy T*S    EENTRO =        -0.00078747
  eigenvalues    EBANDS =     -1089.31473536
  atomic energy  EATOM  =     11458.37352761
  ---------------------------------------------------
  free energy    TOTEN  =      -189.76936431 eV

  energy without entropy =     -189.76857684  energy(sigma->0) =     -189.76897057


--------------------------------------------------------------------------------------------------------




--------------------------------------- Iteration      1(  17)  ---------------------------------------


    POTLOK:  cpu time    0.0559: real time    0.0562
    SETDIJ:  cpu time    0.5232: real time    0.5264
    TRIAL :  cpu time    3.2549: real time    3.2805
    CORREC:  cpu time    1.9538: real time    1.9671
    CHARGE:  cpu time    0.5003: real time    0.5041
    --------------------------------------------
      LOOP:  cpu time    6.2892: real time    6.3372

 eigenvalue-minimisations  :     0
 total energy-change (2. order) :-0.2731656E-03  (-0.1104786E-03)
 number of electron      96.0000001 magnetization 
 augmentation part       14.6341676 magnetization 

 Free energy of the ion-electron system (eV)
  ---------------------------------------------------
  alpha Z        PSCENC =       743.07984068
  Ewald energy   TEWEN  =    -10063.23912684
  -Hartree energ DENC   =     -1736.14058181
  -exchange      EXHF   =         0.00000000
  -V(xc)+E(xc)   XCENC  =       503.02938258
  PAW double counting   =     11324.58492983   -11329.87548153
  entropy T*S    EENTRO =        -0.00078655
  eigenvalues    EBANDS =     -1089.58134052
  atomic energy  EATOM  =     11458.37352761
  ---------------------------------------------------
  free energy    TOTEN  =      -189.76963747 eV

  energy without entropy =     -189.76885092  energy(sigma->0) =     -189.76924420


--------------------------------------------------------------------------------------------------------




--------------------------------------- Iteration      1(  18)  ---------------------------------------


    POTLOK:  cpu time    0.0543: real time    0.0547
    SETDIJ:  cpu time    0.5306: real time    0.5339
    TRIAL :  cpu time    3.1962: real time    3.2213
    CORREC:  cpu time    1.9424: real time    1.9562
    CHARGE:  cpu time    0.4938: real time    0.4979
    --------------------------------------------
      LOOP:  cpu time    6.2190: real time    6.2664

 eigenvalue-minimisations  :     0
 total energy-change (2. order) :-0.1089670E-03  (-0.4028626E-04)
 number of electron      96.0000001 magnetization 
 augmentation part       14.6343772 magnetization 

 Free energy of the ion-electron system (eV)
  ---------------------------------------------------
  alpha Z        PSCENC =       743.07984068
  Ewald energy   TEWEN  =    -10063.23912684
  -Hartree energ DENC   =     -1736.19661795
  -exchange      EXHF   =         0.00000000
  -V(xc)+E(xc)   XCENC  =       503.03176605
  PAW double counting   =     11325.60305725   -11330.90222638
  entropy T*S    EENTRO =        -0.00078241
  eigenvalues    EBANDS =     -1089.51918030
  atomic energy  EATOM  =     11458.37352761
  ---------------------------------------------------
  free energy    TOTEN  =      -189.76974644 eV

  energy without entropy =     -189.76896403  energy(sigma->0) =     -189.76935523


--------------------------------------------------------------------------------------------------------




--------------------------------------- Iteration      1(  19)  ---------------------------------------


    POTLOK:  cpu time    0.0558: real time    0.0562
    SETDIJ:  cpu time    0.5258: real time    0.5290
    TRIAL :  cpu time    3.3488: real time    3.3722
    CORREC:  cpu time    1.9839: real time    1.9966
    CHARGE:  cpu time    0.5093: real time    0.5135
    --------------------------------------------
      LOOP:  cpu time    6.4260: real time    6.4704

 eigenvalue-minimisations  :     0
 total energy-change (2. order) :-0.4037507E-04  (-0.1667443E-04)
 number of electron      96.0000001 magnetization 
 augmentation part       14.6340682 magnetization 

 Free energy of the ion-electron system (eV)
  ---------------------------------------------------
  alpha Z        PSCENC =       743.07984068
  Ewald energy   TEWEN  =    -10063.23912684
  -Hartree energ DENC   =     -1736.23308253
  -exchange      EXHF   =         0.00000000
  -V(xc)+E(xc)   XCENC  =       503.03464532
  PAW double counting   =     11325.52540401   -11330.82025487
  entropy T*S    EENTRO =        -0.00078723
  eigenvalues    EBANDS =     -1089.48995778
  atomic energy  EATOM  =     11458.37352761
  ---------------------------------------------------
  free energy    TOTEN  =      -189.76978681 eV

  energy without entropy =     -189.76899959  energy(sigma->0) =     -189.76939320


--------------------------------------------------------------------------------------------------------




--------------------------------------- Iteration      1(  20)  ---------------------------------------


    POTLOK:  cpu time    0.0540: real time    0.0543
    SETDIJ:  cpu time    0.5323: real time    0.5354
    TRIAL :  cpu time    3.2781: real time    3.3011
    CORREC:  cpu time    1.9864: real time    2.0003
    CHARGE:  cpu time    0.5107: real time    0.5143
    --------------------------------------------
      LOOP:  cpu time    6.3623: real time    6.4071

 eigenvalue-minimisations  :     0
 total energy-change (2. order) :-0.1678832E-04  (-0.7493766E-05)
 number of electron      96.0000001 magnetization 
 augmentation part       14.6339626 magnetization 

 Free energy of the ion-electron system (eV)
  ---------------------------------------------------
  alpha Z        PSCENC =       743.07984068
  Ewald energy   TEWEN  =    -10063.23912684
  -Hartree energ DENC   =     -1736.22122816
  -exchange      EXHF   =         0.00000000
  -V(xc)+E(xc)   XCENC  =       503.03388601
  PAW double counting   =     11325.10854818   -11330.40182258
  entropy T*S    EENTRO =        -0.00078898
  eigenvalues    EBANDS =     -1089.50264128
  atomic energy  EATOM  =     11458.37352761
  ---------------------------------------------------
  free energy    TOTEN  =      -189.76980360 eV

  energy without entropy =     -189.76901462  energy(sigma->0) =     -189.76940911


--------------------------------------------------------------------------------------------------------




--------------------------------------- Iteration      1(  21)  ---------------------------------------


    POTLOK:  cpu time    0.0571: real time    0.0575
    SETDIJ:  cpu time    0.5328: real time    0.5361
    TRIAL :  cpu time    3.3832: real time    3.4066
    CORREC:  cpu time    1.9180: real time    1.9317
    CHARGE:  cpu time    0.4945: real time    0.4981
    --------------------------------------------
      LOOP:  cpu time    6.3863: real time    6.4316

 eigenvalue-minimisations  :     0
 total energy-change (2. order) :-0.7656534E-05  (-0.4545359E-05)
 number of electron      96.0000001 magnetization 
 augmentation part       14.6343579 magnetization 

 Free energy of the ion-electron system (eV)
  ---------------------------------------------------
  alpha Z        PSCENC =       743.07984068
  Ewald energy   TEWEN  =    -10063.23912684
  -Hartree energ DENC   =     -1736.20557521
  -exchange      EXHF   =         0.00000000
  -V(xc)+E(xc)   XCENC  =       503.03316320
  PAW double counting   =     11324.78577120   -11330.07778458
  entropy T*S    EENTRO =        -0.00079273
  eigenvalues    EBANDS =     -1089.51883835
  atomic energy  EATOM  =     11458.37352761
  ---------------------------------------------------
  free energy    TOTEN  =      -189.76981126 eV

  energy without entropy =     -189.76901853  energy(sigma->0) =     -189.76941490


--------------------------------------------------------------------------------------------------------




--------------------------------------- Iteration      1(  22)  ---------------------------------------


    POTLOK:  cpu time    0.0552: real time    0.0556
    SETDIJ:  cpu time    0.5290: real time    0.5323
    TRIAL :  cpu time    3.2488: real time    3.2735
    CORREC:  cpu time    1.9814: real time    1.9956
    CHARGE:  cpu time    0.5023: real time    0.5060
    --------------------------------------------
      LOOP:  cpu time    6.3194: real time    6.3662

 eigenvalue-minimisations  :     0
 total energy-change (2. order) :-0.3020665E-05  (-0.1344346E-05)
 number of electron      96.0000001 magnetization 
 augmentation part       14.6341153 magnetization 

 Free energy of the ion-electron system (eV)
  ---------------------------------------------------
  alpha Z        PSCENC =       743.07984068
  Ewald energy   TEWEN  =    -10063.23912684
  -Hartree energ DENC   =     -1736.24176729
  -exchange      EXHF   =         0.00000000
  -V(xc)+E(xc)   XCENC  =       503.03478814
  PAW double counting   =     11324.76756125   -11330.05705459
  entropy T*S    EENTRO =        -0.00079233
  eigenvalues    EBANDS =     -1089.48679052
  atomic energy  EATOM  =     11458.37352761
  ---------------------------------------------------
  free energy    TOTEN  =      -189.76981428 eV

  energy without entropy =     -189.76902195  energy(sigma->0) =     -189.76941812


--------------------------------------------------------------------------------------------------------




--------------------------------------- Iteration      1(  23)  ---------------------------------------


    POTLOK:  cpu time    0.0545: real time    0.0548
    SETDIJ:  cpu time    0.5353: real time    0.5386
    TRIAL :  cpu time    3.1923: real time    3.2162
    CORREC:  cpu time    1.9503: real time    1.9633
    CHARGE:  cpu time    0.4974: real time    0.5010
    --------------------------------------------
      LOOP:  cpu time    6.2316: real time    6.2771

 eigenvalue-minimisations  :     0
 total energy-change (2. order) :-0.1254368E-05  (-0.3506285E-06)
 number of electron      96.0000001 magnetization 
 augmentation part       14.6340791 magnetization 

 Free energy of the ion-electron system (eV)
  ---------------------------------------------------
  alpha Z        PSCENC =       743.07984068
  Ewald energy   TEWEN  =    -10063.23912684
  -Hartree energ DENC   =     -1736.21621730
  -exchange      EXHF   =         0.00000000
  -V(xc)+E(xc)   XCENC  =       503.03359024
  PAW double counting   =     11324.81595620   -11330.10747712
  entropy T*S    EENTRO =        -0.00079258
  eigenvalues    EBANDS =     -1089.50911668
  atomic energy  EATOM  =     11458.37352761
  ---------------------------------------------------
  free energy    TOTEN  =      -189.76981553 eV

  energy without entropy =     -189.76902295  energy(sigma->0) =     -189.76941924


--------------------------------------------------------------------------------------------------------




--------------------------------------- Iteration      1(  24)  ---------------------------------------


    POTLOK:  cpu time    0.0558: real time    0.0562
    SETDIJ:  cpu time    0.5297: real time    0.5329
    TRIAL :  cpu time    3.3784: real time    3.4025
    CORREC:  cpu time    7.8317: real time    7.8831
    CHARGE:  cpu time    0.5070: real time    0.5105
    --------------------------------------------
      LOOP:  cpu time   12.3034: real time   12.3878

 eigenvalue-minimisations  :     0
 total energy-change (2. order) :-0.3416462E-06  (-0.8484510E-06)
 number of electron      96.0000001 magnetization 
 augmentation part       14.6343186 magnetization 

 Free energy of the ion-electron system (eV)
  ---------------------------------------------------
  alpha Z        PSCENC =       743.07984068
  Ewald energy   TEWEN  =    -10063.23912684
  -Hartree energ DENC   =     -1736.21499477
  -exchange      EXHF   =         0.00000000
  -V(xc)+E(xc)   XCENC  =       503.03352145
  PAW double counting   =     11324.84615026   -11330.13798978
  entropy T*S    EENTRO =        -0.00079175
  eigenvalues    EBANDS =     -1089.50995191
[...]
     10     -24.5787      2.00000
     11     -24.5021      2.00000
     12     -24.4924      2.00000
     13     -24.3962      2.00000
     14     -24.1786      2.00000
     15     -24.1373      2.00000
     16     -24.0592      2.00000
     17     -24.0022      2.00000
     18     -23.9667      2.00000
     19     -23.7731      2.00000
     20     -23.7476      2.00000
     21     -23.5947      2.00000
     22     -23.5929      2.00000
     23     -23.5808      2.00000
     24     -23.3997      2.00000
     25       1.8824      2.00000
     26       2.4620      2.00000
     27       4.7831      2.00000
     28       4.9372      2.00000
     29       5.6997      2.00000
     30       6.4471      2.00000
     31       7.1704      2.00000
     32       7.2185      2.00000
     33       7.4417      2.00000
     34       7.6580      2.00000
     35       7.9739      2.00000
     36       8.2415      2.00000
     37       8.6109      2.00000
     38       8.8768      2.00000
     39       8.9172      2.00000
     40       9.0380      2.00000
     41       9.1785      2.00000
     42       9.6569      2.00000
     43       9.6725      2.00000
     44      10.0357      2.00000
     45      10.5812      2.00000
     46      11.6516      2.00000
     47      12.3147      2.00000
     48      12.5617      1.93768
     49      12.7435      0.00000
     50      13.2112      0.00000
     51      14.3866      0.00000
     52      14.4419      0.00000
     53      14.6240      0.00000
     54      14.7282      0.00000
     55      14.8260      0.00000
     56      14.9813      0.00000
     57      15.1921      0.00000
     58      15.2182      0.00000
     59      15.7732      0.00000
     60      16.2158      0.00000

 k-point    54 :       0.5000    0.0000    0.4545
  band No.  band energies     occupation 
      1     -50.7711      2.00000
      2     -50.7711      2.00000
      3     -50.7329      2.00000
      4     -50.7329      2.00000
      5     -50.4032      2.00000
      6     -50.4032      2.00000
      7     -24.6619      2.00000
      8     -24.6619      2.00000
      9     -24.6066      2.00000
     10     -24.6066      2.00000
     11     -24.5667      2.00000
     12     -24.5667      2.00000
     13     -24.3045      2.00000
     14     -24.3045      2.00000
     15     -24.0621      2.00000
     16     -24.0621      2.00000
     17     -24.0005      2.00000
     18     -24.0005      2.00000
     19     -23.6804      2.00000
     20     -23.6804      2.00000
     21     -23.6568      2.00000
     22     -23.6568      2.00000
     23     -23.4869      2.00000
     24     -23.4869      2.00000
     25       2.1938      2.00000
     26       2.1938      2.00000
     27       4.7359      2.00000
     28       4.7359      2.00000
     29       6.0463      2.00000
     30       6.0463      2.00000
     31       7.4728      2.00000
     32       7.4728      2.00000
     33       7.7218      2.00000
     34       7.7218      2.00000
     35       7.9457      2.00000
     36       7.9457      2.00000
     37       8.6422      2.00000
     38       8.6422      2.00000
     39       8.8664      2.00000
     40       8.8664      2.00000
     41       9.2333      2.00000
     42       9.2333      2.00000
     43       9.6959      2.00000
     44       9.6959      2.00000
     45      11.1609      2.00000
     46      11.1609      2.00000
     47      13.1396      0.00000
     48      13.1396      0.00000
     49      13.2485      0.00000
     50      13.2485      0.00000
     51      14.2278      0.00000
     52      14.2278      0.00000
     53      14.5330      0.00000
     54      14.5330      0.00000
     55      14.8816      0.00000
     56      14.8816      0.00000
     57      15.2249      0.00000
     58      15.2249      0.00000
     59      15.6713      0.00000
     60      15.6713      0.00000

 k-point    55 :       0.1667    0.1667    0.4545
  band No.  band energies     occupation 
      1     -50.7868      2.00000
      2     -50.7512      2.00000
      3     -50.7374      2.00000
      4     -50.7326      2.00000
      5     -50.4034      2.00000
      6     -50.4031      2.00000
      7     -24.7562      2.00000
      8     -24.7295      2.00000
      9     -24.6525      2.00000
     10     -24.5564      2.00000
     11     -24.4601      2.00000
     12     -24.4068      2.00000
     13     -24.3881      2.00000
     14     -24.2246      2.00000
     15     -24.1169      2.00000
     16     -24.0570      2.00000
     17     -24.0059      2.00000
     18     -23.9461      2.00000
     19     -23.8562      2.00000
     20     -23.7720      2.00000
     21     -23.6631      2.00000
     22     -23.5829      2.00000
     23     -23.5160      2.00000
     24     -23.3612      2.00000
     25       1.7319      2.00000
     26       2.5740      2.00000
     27       4.9943      2.00000
     28       5.0247      2.00000
     29       5.5612      2.00000
     30       6.6284      2.00000
     31       6.7090      2.00000
     32       7.0691      2.00000
     33       7.2845      2.00000
     34       7.7492      2.00000
     35       7.8844      2.00000
     36       8.3972      2.00000
     37       8.7654      2.00000
     38       8.8347      2.00000
     39       9.0692      2.00000
     40       9.2200      2.00000
     41       9.5574      2.00000
     42       9.8001      2.00000
     43       9.9394      2.00000
     44      10.1438      2.00000
     45      10.3093      2.00000
     46      11.7750      2.00000
     47      11.8631      2.00000
     48      11.9314      2.00000
     49      12.2689      2.00000
     50      12.7810      0.00000
     51      14.3158      0.00000
     52      14.4895      0.00000
     53      14.6409      0.00000
     54      14.7398      0.00000
     55      14.7739      0.00000
     56      15.1726      0.00000
     57      15.5873      0.00000
     58      15.6987      0.00000
     59      15.7666      0.00000
     60      15.9779      0.00000

 k-point    56 :       0.3333    0.1667    0.4545
  band No.  band energies     occupation 
      1     -50.7798      2.00000
      2     -50.7594      2.00000
      3     -50.7364      2.00000
      4     -50.7325      2.00000
      5     -50.4033      2.00000
      6     -50.4031      2.00000
      7     -24.7286      2.00000
      8     -24.6975      2.00000
      9     -24.6347      2.00000
     10     -24.5800      2.00000
     11     -24.5289      2.00000
     12     -24.4290      2.00000
     13     -24.3752      2.00000
     14     -24.1933      2.00000
     15     -24.1665      2.00000
     16     -24.0391      2.00000
     17     -24.0267      2.00000
     18     -23.9568      2.00000
     19     -23.8281      2.00000
     20     -23.6817      2.00000
     21     -23.6609      2.00000
     22     -23.5756      2.00000
     23     -23.5384      2.00000
     24     -23.4117      2.00000
     25       1.9517      2.00000
     26       2.4758      2.00000
     27       4.6845      2.00000
     28       4.7933      2.00000
     29       5.7180      2.00000
     30       6.3832      2.00000
     31       7.0725      2.00000
     32       7.4375      2.00000
     33       7.5418      2.00000
     34       7.7713      2.00000
     35       8.0968      2.00000
     36       8.3782      2.00000
     37       8.4903      2.00000
     38       8.7823      2.00000
     39       8.8518      2.00000
     40       9.0337      2.00000
     41       9.2021      2.00000
     42       9.5335      2.00000
     43       9.6224      2.00000
     44       9.8508      2.00000
     45      10.4765      2.00000
     46      11.4978      2.00000
     47      12.5094      2.00000
     48      12.7780      0.00000
     49      12.9768      0.00000
     50      13.3536      0.00000
     51      14.3063      0.00000
     52      14.4390      0.00000
     53      14.5897      0.00000
     54      14.8230      0.00000
     55      14.8645      0.00000
     56      15.0836      0.00000
     57      15.1414      0.00000
     58      15.2505      0.00000
     59      15.8881      0.00000
     60      16.3481      0.00000

 k-point    57 :       0.5000    0.1667    0.4545
  band No.  band energies     occupation 
      1     -50.7699      2.00000
      2     -50.7699      2.00000
      3     -50.7342      2.00000
      4     -50.7342      2.00000
      5     -50.4032      2.00000
      6     -50.4032      2.00000
      7     -24.6946      2.00000
      8     -24.6946      2.00000
      9     -24.6194      2.00000
     10     -24.6194      2.00000
     11     -24.4977      2.00000
     12     -24.4977      2.00000
     13     -24.3029      2.00000
     14     -24.3029      2.00000
     15     -24.0917      2.00000
     16     -24.0917      2.00000
     17     -23.9851      2.00000
     18     -23.9851      2.00000
     19     -23.7517      2.00000
     20     -23.7517      2.00000
     21     -23.5968      2.00000
     22     -23.5968      2.00000
     23     -23.4869      2.00000
     24     -23.4869      2.00000
     25       2.2416      2.00000
     26       2.2416      2.00000
     27       4.6241      2.00000
     28       4.6241      2.00000
     29       6.0245      2.00000
     30       6.0245      2.00000
     31       7.3663      2.00000
     32       7.3663      2.00000
     33       7.9254      2.00000
     34       7.9254      2.00000
     35       8.1004      2.00000
     36       8.1004      2.00000
     37       8.6170      2.00000
     38       8.6170      2.00000
     39       8.8639      2.00000
     40       8.8639      2.00000
     41       9.2100      2.00000
     42       9.2100      2.00000
     43       9.5585      2.00000
     44       9.5585      2.00000
     45      10.9879      2.00000
     46      10.9879      2.00000
     47      13.2269      0.00000
     48      13.2269      0.00000
     49      13.4126      0.00000
     50      13.4126      0.00000
     51      14.2926      0.00000
     52      14.2926      0.00000
     53      14.4932      0.00000
     54      14.4932      0.00000
     55      14.9520      0.00000
     56      14.9521      0.00000
     57      15.1109      0.00000
     58      15.1110      0.00000
     59      16.0646      0.00000
     60      16.0652      0.00000

 k-point    58 :       0.3333    0.3333    0.4545
  band No.  band energies     occupation 
      1     -50.7743      2.00000
      2     -50.7615      2.00000
      3     -50.7381      2.00000
      4     -50.7342      2.00000
      5     -50.4032      2.00000
      6     -50.4031      2.00000
      7     -24.7477      2.00000
      8     -24.6991      2.00000
      9     -24.6592      2.00000
     10     -24.5615      2.00000
     11     -24.4908      2.00000
     12     -24.3818      2.00000
     13     -24.3470      2.00000
     14     -24.2436      2.00000
     15     -24.1707      2.00000
     16     -24.0794      2.00000
     17     -23.9994      2.00000
     18     -23.9621      2.00000
     19     -23.8559      2.00000
     20     -23.7478      2.00000
     21     -23.6068      2.00000
     22     -23.5334      2.00000
     23     -23.5233      2.00000
     24     -23.4445      2.00000
     25       2.1356      2.00000
     26       2.4701      2.00000
     27       4.4567      2.00000
     28       4.5459      2.00000
     29       5.8161      2.00000
     30       6.2351      2.00000
     31       7.2042      2.00000
     32       7.4446      2.00000
     33       7.6671      2.00000
     34       8.1986      2.00000
     35       8.2812      2.00000
     36       8.3304      2.00000
     37       8.6413      2.00000
     38       8.7177      2.00000
     39       8.7760      2.00000
     40       8.9590      2.00000
     41       9.1963      2.00000
     42       9.4113      2.00000
     43       9.4211      2.00000
     44       9.4532      2.00000
     45      10.2905      2.00000
     46      11.0513      2.00000
     47      12.9612      0.00000
     48      13.3583      0.00000
     49      13.4725      0.00000
     50      13.5792      0.00000
     51      14.2636      0.00000
     52      14.3835      0.00000
     53      14.5210      0.00000
     54      14.8912      0.00000
     55      15.0016      0.00000
     56      15.0891      0.00000
     57      15.1006      0.00000
     58      15.1960      0.00000
     59      15.8249      0.00000
     60      16.3832      0.00000

 k-point    59 :       0.5000    0.3333    0.4545
  band No.  band energies     occupation 
      1     -50.7672      2.00000
      2     -50.7672      2.00000
      3     -50.7369      2.00000
      4     -50.7369      2.00000
      5     -50.4031      2.00000
      6     -50.4031      2.00000
      7     -24.7393      2.00000
      8     -24.7393      2.00000
      9     -24.6059      2.00000
     10     -24.6059      2.00000
     11     -24.4112      2.00000
     12     -24.4112      2.00000
     13     -24.3073      2.00000
     14     -24.3073      2.00000
     15     -24.1253      2.00000
     16     -24.1253      2.00000
     17     -23.9786      2.00000
     18     -23.9786      2.00000
     19     -23.8243      2.00000
     20     -23.8243      2.00000
     21     -23.5474      2.00000
     22     -23.5474      2.00000
     23     -23.4881      2.00000
     24     -23.4881      2.00000
     25       2.3501      2.00000
     26       2.3501      2.00000
     27       4.3844      2.00000
     28       4.3844      2.00000
     29       6.0178      2.00000
     30       6.0178      2.00000
     31       7.3532      2.00000
     32       7.3532      2.00000
     33       7.9310      2.00000
     34       7.9310      2.00000
     35       8.4718      2.00000
     36       8.4718      2.00000
     37       8.7250      2.00000
     38       8.7250      2.00000
     39       8.9601      2.00000
     40       8.9601      2.00000
     41       9.1422      2.00000
     42       9.1422      2.00000
     43       9.2765      2.00000
     44       9.2765      2.00000
     45      10.5144      2.00000
     46      10.5144      2.00000
     47      13.3943      0.00000
     48      13.3943      0.00000
     49      13.8753      0.00000
     50      13.8753      0.00000
     51      14.2945      0.00000
     52      14.2946      0.00000
     53      14.5594      0.00000
     54      14.5594      0.00000
     55      14.9714      0.00000
     56      14.9714      0.00000
     57      15.1564      0.00000
     58      15.1574      0.00000
     59      16.2131      0.00000
     60      16.5617      0.00000

 k-point    60 :       0.5000    0.5000    0.4545
  band No.  band energies     occupation 
      1     -50.7657      2.00000
      2     -50.7657      2.00000
      3     -50.7385      2.00000
      4     -50.7385      2.00000
      5     -50.4031      2.00000
      6     -50.4031      2.00000
      7     -24.7559      2.00000
      8     -24.7559      2.00000
      9     -24.5965      2.00000
     10     -24.5965      2.00000
     11     -24.3698      2.00000
     12     -24.3698      2.00000
     13     -24.3143      2.00000
     14     -24.3143      2.00000
     15     -24.1371      2.00000
     16     -24.1371      2.00000
     17     -23.9804      2.00000
     18     -23.9804      2.00000
     19     -23.8556      2.00000
     20     -23.8556      2.00000
     21     -23.5271      2.00000
     22     -23.5271      2.00000
     23     -23.4909      2.00000
     24     -23.4909      2.00000
     25       2.4130      2.00000
     26       2.4130      2.00000
     27       4.2564      2.00000
     28       4.2564      2.00000
     29       6.0285      2.00000
     30       6.0285      2.00000
     31       7.3770      2.00000
     32       7.3770      2.00000
     33       7.8665      2.00000
     34       7.8665      2.00000
     35       8.6853      2.00000
     36       8.6853      2.00000
     37       8.8452      2.00000
     38       8.8452      2.00000
     39       8.8802      2.00000
     40       8.8802      2.00000
     41       9.1424      2.00000
     42       9.1424      2.00000
     43       9.3111      2.00000
     44       9.3111      2.00000
     45      10.1279      2.00000
     46      10.1279      2.00000
     47      13.4744      0.00000
     48      13.4744      0.00000
     49      14.2712      0.00000
     50      14.2712      0.00000
     51      14.3878      0.00000
     52      14.3878      0.00000
     53      14.4012      0.00000
     54      14.4012      0.00000
     55      14.9867      0.00000
     56      14.9868      0.00000
     57      15.2268      0.00000
     58      15.2268      0.00000
     59      15.8432      0.00000
     60      15.8432      0.00000


--------------------------------------------------------------------------------------------------------


 soft charge-density along one line, spin component           1
         0         1         2         3         4         5         6         7         8         9
 total charge-density along one line
 
 pseudopotential strength for first ion, spin component:           1
  5.751   8.697  -0.004   0.000  -0.004  -0.007   0.000  -0.007
  8.697  13.139  -0.006   0.000  -0.006  -0.011   0.000  -0.011
 -0.004  -0.006  -1.868  -0.000   0.002  -3.087  -0.000   0.003
  0.000   0.000  -0.000  -1.868  -0.000  -0.000  -3.086  -0.000
 -0.004  -0.006   0.002  -0.000  -1.868   0.003  -0.000  -3.087
 -0.007  -0.011  -3.087  -0.000   0.003  -4.884  -0.000   0.006
  0.000   0.000  -0.000  -3.086  -0.000  -0.000  -4.883  -0.000
 -0.007  -0.011   0.003  -0.000  -3.087   0.006  -0.000  -4.884
 total augmentation occupancy for first ion, spin component:           1
  3.452  -0.886  -0.090   0.000  -0.090   0.048   0.000   0.048
 -0.886   0.238   0.063   0.000   0.063  -0.024   0.000  -0.024
 -0.090   0.063   2.733   0.000   0.044  -0.728   0.000  -0.036
  0.000   0.000  -0.000   2.551  -0.000  -0.000  -0.655   0.000
 -0.090   0.063   0.044  -0.000   2.733  -0.036   0.000  -0.728
  0.048  -0.024  -0.728   0.000  -0.036   0.198  -0.000   0.017
  0.000   0.000   0.000  -0.655  -0.000   0.000   0.172   0.000
  0.048  -0.024  -0.036   0.000  -0.728   0.017   0.000   0.198


------------------------ aborting loop because EDIFF is reached ----------------------------------------




--------------------------------------------------------------------------------------------------------



  FREE ENERGIE OF THE ION-ELECTRON SYSTEM (eV)
  ---------------------------------------------------
  free  energy   TOTEN  =      -189.76981622 eV

  energy  without entropy=     -189.76902348  energy(sigma->0) =     -189.76941985
 


--------------------------------------------------------------------------------------------------------


    POTLOK:  cpu time    0.6095: real time    0.6134


--------------------------------------------------------------------------------------------------------


 writing wavefunctions
     LOOP+:  cpu time  248.3252: real time  250.1552
    4ORBIT:  cpu time    0.0000: real time    0.0000

 total amount of memory used by VASP MPI-rank0   133996. kBytes
=======================================================================

   base      :      30000. kBytes
   nonl-proj :      33694. kBytes
   fftplans  :       7345. kBytes
   grid      :       5166. kBytes
   one-center:         77. kBytes
   wavefun   :      57714. kBytes
 
  
  
 General timing and accounting informations for this job:
 ========================================================
  
                  Total CPU time used (sec):      250.791
                            User time (sec):      249.308
                          System time (sec):        1.483
                         Elapsed time (sec):      253.395
  
                   Maximum memory used (kb):      317280.
                   Average memory used (kb):          N/A
  
                          Minor page faults:       281186
                          Major page faults:           47
                 Voluntary context switches:         1070
