<?xml version="1.0" encoding="ISO-8859-1"?>
<modeling>
 <generator>
  <i name="program" type="string">vasp </i>
  <i name="version" type="string">6.2.0  </i>
  <i name="subversion" type="string">18Jan21 (build Jan 05 2022 15:41:44) complex                          parallel </i>
  <i name="platform" type="string">LinuxIFC </i>
  <i name="date" type="string">2025 05 07 </i>
  <i name="time" type="string">18:34:49 </i>
 </generator>
 <incar>
  <i type="string" name="SYSTEM">routine with relax: pwdword</i>
  <i type="string" name="PREC">Acc</i>
  <i type="int" name="IALGO">    38</i>
  <i type="string" name="ALGO">A</i>
  <i type="logical" name="ADDGRID"> T  </i>
  <i type="int" name="ICHARG">     2</i>
  <i type="int" name="NELM">   100</i>
  <i type="int" name="NELMIN">     6</i>
  <i name="EDIFF">      0.00000000</i>
  <i type="int" name="NSW">     0</i>
  <i type="int" name="ISIF">    -1</i>
  <i name="SYMPREC">      0.00010000</i>
  <i name="ENCUT">    600.00000000</i>
  <i type="logical" name="LREAL"> F  </i>
  <i type="int" name="ISMEAR">     0</i>
  <i name="SIGMA">      0.02000000</i>
  <i type="logical" name="LASPH"> T  </i>
  <i type="string" name="METAGGA">R2SCAN</i>
  <i type="logical" name="LMIXTAU"> F  </i>
 </incar>
 <primitive_cell>
  <structure name="primitive_cell" >
   <crystal>
    <varray name="basis" >
     <v>       5.38227442       0.00000000      -3.47183091 </v>
     <v>      -1.59841352       5.13945057      -3.47183091 </v>
     <v>       0.00000000       0.00000000       6.40488000 </v>
    </varray>
    <i name="volume">    177.17136371 </i>
    <varray name="rec_basis" >
     <v>       0.18579506       0.05778387       0.00000000 </v>
     <v>       0.00000000       0.19457333       0.00000000 </v>
     <v>       0.10071212       0.13679281       0.15613095 </v>
    </varray>
   </crystal>
   <varray name="positions" >
    <v>       0.11031000       0.61031000       0.98119000 </v>
    <v>       0.88969000       0.38969000       0.01881000 </v>
    <v>       0.61031000       0.62912000       0.50000000 </v>
    <v>       0.38969000       0.37088000       0.50000000 </v>
    <v>       0.62912000       0.12912000       0.01881000 </v>
    <v>       0.37088000       0.87088000       0.98119000 </v>
    <v>       0.12912000       0.11031000       0.50000000 </v>
    <v>       0.87088000       0.88969000       0.50000000 </v>
    <v>       0.25000000       0.25000000       0.00000000 </v>
    <v>       0.50000000       0.00000000       0.00000000 </v>
    <v>       0.75000000       0.75000000       0.00000000 </v>
    <v>       0.00000000       0.00000000       0.50000000 </v>
    <v>       0.00000000       0.50000000       0.00000000 </v>
    <v>       0.50000000       0.50000000       0.50000000 </v>
    <v>       0.75000000       0.25000000       0.50000000 </v>
    <v>       0.25000000       0.75000000       0.50000000 </v>
   </varray>
  </structure>
  <varray name="primitive_index" >
   <v type="int" >        1 </v>
   <v type="int" >        2 </v>
   <v type="int" >        3 </v>
   <v type="int" >        4 </v>
   <v type="int" >        5 </v>
   <v type="int" >        6 </v>
   <v type="int" >        7 </v>
   <v type="int" >        8 </v>
   <v type="int" >        9 </v>
   <v type="int" >       10 </v>
   <v type="int" >       11 </v>
   <v type="int" >       12 </v>
   <v type="int" >       13 </v>
   <v type="int" >       14 </v>
   <v type="int" >       15 </v>
   <v type="int" >       16 </v>
  </varray>
 </primitive_cell>
 <kpoints>
  <generation param="Gamma">
   <v type="int" name="divisions">       7        7        8 </v>
   <v name="usershift">      0.00000000       0.00000000       0.00000000 </v>
   <v name="genvec1">      0.14285714       0.00000000       0.00000000 </v>
   <v name="genvec2">      0.00000000       0.14285714       0.00000000 </v>
   <v name="genvec3">      0.00000000       0.00000000       0.12500000 </v>
   <v name="shift">      0.00000000       0.00000000       0.00000000 </v>
  </generation>
  <varray name="kpointlist" >
   <v>       0.00000000       0.00000000       0.00000000 </v>
   <v>       0.14285714       0.00000000       0.00000000 </v>
   <v>       0.28571429       0.00000000       0.00000000 </v>
   <v>       0.42857143      -0.00000000       0.00000000 </v>
   <v>       0.14285714       0.14285714       0.00000000 </v>
   <v>       0.28571429       0.14285714       0.00000000 </v>
   <v>       0.42857143       0.14285714       0.00000000 </v>
   <v>      -0.42857143       0.14285714       0.00000000 </v>
   <v>      -0.28571429       0.14285714       0.00000000 </v>
   <v>      -0.14285714       0.14285714       0.00000000 </v>
   <v>       0.28571429       0.28571429       0.00000000 </v>
   <v>       0.42857143       0.28571429       0.00000000 </v>
   <v>      -0.42857143       0.28571429       0.00000000 </v>
   <v>      -0.28571429       0.28571429       0.00000000 </v>
   <v>       0.42857143       0.42857143       0.00000000 </v>
   <v>      -0.42857143       0.42857143       0.00000000 </v>
   <v>      -0.00000000      -0.00000000       0.12500000 </v>
   <v>       0.14285714      -0.00000000       0.12500000 </v>
   <v>       0.28571429       0.00000000       0.12500000 </v>
   <v>       0.42857143      -0.00000000       0.12500000 </v>
   <v>      -0.42857143      -0.00000000       0.12500000 </v>
   <v>      -0.28571429      -0.00000000       0.12500000 </v>
   <v>      -0.14285714      -0.00000000       0.12500000 </v>
   <v>       0.14285714       0.14285714       0.12500000 </v>
   <v>       0.28571429       0.14285714       0.12500000 </v>
   <v>       0.42857143       0.14285714       0.12500000 </v>
   <v>      -0.42857143       0.14285714       0.12500000 </v>
   <v>      -0.28571429       0.14285714       0.12500000 </v>
   <v>      -0.14285714       0.14285714       0.12500000 </v>
   <v>       0.28571429       0.28571429       0.12500000 </v>
   <v>       0.42857143       0.28571429       0.12500000 </v>
   <v>      -0.42857143       0.28571429       0.12500000 </v>
   <v>      -0.28571429       0.28571429       0.12500000 </v>
   <v>      -0.14285714       0.28571429       0.12500000 </v>
   <v>       0.42857143       0.42857143       0.12500000 </v>
   <v>      -0.42857143       0.42857143       0.12500000 </v>
   <v>      -0.28571429       0.42857143       0.12500000 </v>
   <v>      -0.14285714       0.42857143       0.12500000 </v>
   <v>      -0.42857143      -0.42857143       0.12500000 </v>
   <v>      -0.28571429      -0.42857143       0.12500000 </v>
   <v>      -0.14285714      -0.42857143       0.12500000 </v>
   <v>      -0.28571429      -0.28571429       0.12500000 </v>
   <v>      -0.14285714      -0.28571429       0.12500000 </v>
   <v>      -0.14285714      -0.14285714       0.12500000 </v>
   <v>      -0.00000000      -0.00000000       0.25000000 </v>
   <v>       0.14285714      -0.00000000       0.25000000 </v>
   <v>       0.28571429      -0.00000000       0.25000000 </v>
   <v>       0.42857143      -0.00000000       0.25000000 </v>
   <v>      -0.42857143       0.00000000       0.25000000 </v>
   <v>      -0.28571429      -0.00000000       0.25000000 </v>
   <v>      -0.14285714      -0.00000000       0.25000000 </v>
   <v>       0.14285714       0.14285714       0.25000000 </v>
   <v>       0.28571429       0.14285714       0.25000000 </v>
   <v>       0.42857143       0.14285714       0.25000000 </v>
   <v>      -0.42857143       0.14285714       0.25000000 </v>
   <v>      -0.28571429       0.14285714       0.25000000 </v>
   <v>      -0.14285714       0.14285714       0.25000000 </v>
   <v>       0.28571429       0.28571429       0.25000000 </v>
   <v>       0.42857143       0.28571429       0.25000000 </v>
   <v>      -0.42857143       0.28571429       0.25000000 </v>
   <v>      -0.28571429       0.28571429       0.25000000 </v>
   <v>      -0.14285714       0.28571429       0.25000000 </v>
   <v>       0.42857143       0.42857143       0.25000000 </v>
   <v>      -0.42857143       0.42857143       0.25000000 </v>
   <v>      -0.28571429       0.42857143       0.25000000 </v>
   <v>      -0.14285714       0.42857143       0.25000000 </v>
   <v>      -0.42857143      -0.42857143       0.25000000 </v>
   <v>      -0.28571429      -0.42857143       0.25000000 </v>
   <v>      -0.14285714      -0.42857143       0.25000000 </v>
   <v>      -0.28571429      -0.28571429       0.25000000 </v>
   <v>      -0.14285714      -0.28571429       0.25000000 </v>
   <v>      -0.14285714      -0.14285714       0.25000000 </v>
   <v>       0.00000000       0.00000000       0.37500000 </v>
   <v>       0.14285714       0.00000000       0.37500000 </v>
   <v>       0.28571429      -0.00000000       0.37500000 </v>
   <v>       0.42857143      -0.00000000       0.37500000 </v>
   <v>      -0.42857143       0.00000000       0.37500000 </v>
   <v>      -0.28571429      -0.00000000       0.37500000 </v>
   <v>      -0.14285714       0.00000000       0.37500000 </v>
   <v>       0.14285714       0.14285714       0.37500000 </v>
   <v>       0.28571429       0.14285714       0.37500000 </v>
   <v>       0.42857143       0.14285714       0.37500000 </v>
   <v>      -0.42857143       0.14285714       0.37500000 </v>
   <v>      -0.28571429       0.14285714       0.37500000 </v>
   <v>      -0.14285714       0.14285714       0.37500000 </v>
   <v>       0.28571429       0.28571429       0.37500000 </v>
   <v>       0.42857143       0.28571429       0.37500000 </v>
   <v>      -0.42857143       0.28571429       0.37500000 </v>
   <v>      -0.28571429       0.28571429       0.37500000 </v>
   <v>      -0.14285714       0.28571429       0.37500000 </v>
   <v>       0.42857143       0.42857143       0.37500000 </v>
   <v>      -0.42857143       0.42857143       0.37500000 </v>
   <v>      -0.28571429       0.42857143       0.37500000 </v>
   <v>      -0.14285714       0.42857143       0.37500000 </v>
   <v>      -0.42857143      -0.42857143       0.37500000 </v>
   <v>      -0.28571429      -0.42857143       0.37500000 </v>
   <v>      -0.14285714      -0.42857143       0.37500000 </v>
   <v>      -0.28571429      -0.28571429       0.37500000 </v>
   <v>      -0.14285714      -0.28571429       0.37500000 </v>
   <v>      -0.14285714      -0.14285714       0.37500000 </v>
   <v>      -0.00000000      -0.00000000       0.50000000 </v>
   <v>       0.14285714      -0.00000000       0.50000000 </v>
   <v>       0.28571429      -0.00000000       0.50000000 </v>
   <v>       0.42857143      -0.00000000       0.50000000 </v>
   <v>       0.14285714       0.14285714       0.50000000 </v>
   <v>       0.28571429       0.14285714       0.50000000 </v>
   <v>       0.42857143       0.14285714       0.50000000 </v>
   <v>      -0.42857143       0.14285714       0.50000000 </v>
   <v>      -0.28571429       0.14285714       0.50000000 </v>
   <v>      -0.14285714       0.14285714       0.50000000 </v>
   <v>       0.28571429       0.28571429       0.50000000 </v>
   <v>       0.42857143       0.28571429       0.50000000 </v>
   <v>      -0.42857143       0.28571429       0.50000000 </v>
   <v>      -0.28571429       0.28571429       0.50000000 </v>
   <v>       0.42857143       0.42857143       0.50000000 </v>
   <v>      -0.42857143       0.42857143       0.50000000 </v>
  </varray>
  <varray name="weights" >
   <v>       0.00255102 </v>
   <v>       0.01020408 </v>
   <v>       0.01020408 </v>
   <v>       0.01020408 </v>
   <v>       0.00510204 </v>
   <v>       0.01020408 </v>
   <v>       0.01020408 </v>
   <v>       0.01020408 </v>
   <v>       0.01020408 </v>
   <v>       0.00510204 </v>
   <v>       0.00510204 </v>
   <v>       0.01020408 </v>
   <v>       0.01020408 </v>
   <v>       0.00510204 </v>
   <v>       0.00510204 </v>
   <v>       0.00510204 </v>
   <v>       0.00510204 </v>
   <v>       0.01020408 </v>
   <v>       0.01020408 </v>
   <v>       0.01020408 </v>
   <v>       0.01020408 </v>
   <v>       0.01020408 </v>
   <v>       0.01020408 </v>
   <v>       0.00510204 </v>
   <v>       0.01020408 </v>
   <v>       0.01020408 </v>
   <v>       0.01020408 </v>
   <v>       0.01020408 </v>
   <v>       0.01020408 </v>
   <v>       0.00510204 </v>
   <v>       0.01020408 </v>
   <v>       0.01020408 </v>
   <v>       0.01020408 </v>
   <v>       0.01020408 </v>
   <v>       0.00510204 </v>
   <v>       0.01020408 </v>
   <v>       0.01020408 </v>
   <v>       0.01020408 </v>
   <v>       0.00510204 </v>
   <v>       0.01020408 </v>
   <v>       0.01020408 </v>
   <v>       0.00510204 </v>
   <v>       0.01020408 </v>
   <v>       0.00510204 </v>
   <v>       0.00510204 </v>
   <v>       0.01020408 </v>
   <v>       0.01020408 </v>
   <v>       0.01020408 </v>
   <v>       0.01020408 </v>
   <v>       0.01020408 </v>
   <v>       0.01020408 </v>
   <v>       0.00510204 </v>
   <v>       0.01020408 </v>
   <v>       0.01020408 </v>
   <v>       0.01020408 </v>
   <v>       0.01020408 </v>
   <v>       0.01020408 </v>
   <v>       0.00510204 </v>
   <v>       0.01020408 </v>
   <v>       0.01020408 </v>
   <v>       0.01020408 </v>
   <v>       0.01020408 </v>
   <v>       0.00510204 </v>
   <v>       0.01020408 </v>
   <v>       0.01020408 </v>
   <v>       0.01020408 </v>
   <v>       0.00510204 </v>
   <v>       0.01020408 </v>
   <v>       0.01020408 </v>
   <v>       0.00510204 </v>
   <v>       0.01020408 </v>
   <v>       0.00510204 </v>
   <v>       0.00510204 </v>
   <v>       0.01020408 </v>
   <v>       0.01020408 </v>
   <v>       0.01020408 </v>
   <v>       0.01020408 </v>
   <v>       0.01020408 </v>
   <v>       0.01020408 </v>
   <v>       0.00510204 </v>
   <v>       0.01020408 </v>
   <v>       0.01020408 </v>
   <v>       0.01020408 </v>
   <v>       0.01020408 </v>
   <v>       0.01020408 </v>
   <v>       0.00510204 </v>
   <v>       0.01020408 </v>
   <v>       0.01020408 </v>
   <v>       0.01020408 </v>
   <v>       0.01020408 </v>
   <v>       0.00510204 </v>
   <v>       0.01020408 </v>
   <v>       0.01020408 </v>
   <v>       0.01020408 </v>
   <v>       0.00510204 </v>
   <v>       0.01020408 </v>
   <v>       0.01020408 </v>
   <v>       0.00510204 </v>
   <v>       0.01020408 </v>
   <v>       0.00510204 </v>
   <v>       0.00255102 </v>
   <v>       0.01020408 </v>
   <v>       0.01020408 </v>
   <v>       0.01020408 </v>
   <v>       0.00510204 </v>
   <v>       0.01020408 </v>
   <v>       0.01020408 </v>
   <v>       0.01020408 </v>
   <v>       0.01020408 </v>
   <v>       0.00510204 </v>
   <v>       0.00510204 </v>
   <v>       0.01020408 </v>
   <v>       0.01020408 </v>
   <v>       0.00510204 </v>
   <v>       0.00510204 </v>
   <v>       0.00510204 </v>
  </varray>
 </kpoints>
 <parameters>
  <separator name="general" >
   <i type="string" name="SYSTEM">routine with relax: pwdword</i>
   <i type="logical" name="LCOMPAT"> F  </i>
  </separator>
  <separator name="electronic" >
   <i type="string" name="PREC">acc</i>
   <i name="ENMAX">    600.00000000</i>
   <i name="ENAUG">    535.51400000</i>
   <i name="EDIFF">      0.00000000</i>
   <i type="int" name="IALGO">    58</i>
   <i type="int" name="IWAVPR">    10</i>
   <i type="int" name="NBANDS">    72</i>
   <i type="int" name="NBANDSLOW">    -1</i>
   <i type="int" name="NBANDSHIGH">    -1</i>
   <i name="NELECT">    116.00000000</i>
   <i type="int" name="TURBO">     0</i>
   <i type="int" name="IRESTART">     0</i>
   <i type="int" name="NREBOOT">     0</i>
   <i type="int" name="NMIN">     0</i>
   <i name="EREF">      0.00000000</i>
   <separator name="electronic smearing" >
    <i type="int" name="ISMEAR">     0</i>
    <i name="SIGMA">      0.02000000</i>
    <i name="KSPACING">      0.50000000</i>
    <i type="logical" name="KGAMMA"> T  </i>
    <i type="logical" name="KBLOWUP"> F  </i>
   </separator>
   <separator name="electronic projectors" >
    <i type="logical" name="LREAL"> F  </i>
    <v name="ROPT">      0.00000000      0.00000000      0.00000000</v>
    <i type="int" name="LMAXPAW">  -100</i>
    <i type="int" name="LMAXMIX">     2</i>
    <i type="logical" name="NLSPLINE"> F  </i>
   </separator>
   <separator name="electronic startup" >
    <i type="int" name="ISTART">     0</i>
    <i type="int" name="ICHARG">     2</i>
    <i type="int" name="INIWAV">     1</i>
   </separator>
   <separator name="electronic spin" >
    <i type="int" name="ISPIN">     1</i>
    <i type="logical" name="LNONCOLLINEAR"> F  </i>
    <v name="MAGMOM">      1.00000000      1.00000000      1.00000000      1.00000000      1.00000000      1.00000000      1.00000000      1.00000000      1.00000000      1.00000000      1.00000000      1.00000000      1.00000000      1.00000000      1.00000000      1.00000000</v>
    <i name="NUPDOWN">     -1.00000000</i>
    <i type="logical" name="LSORBIT"> F  </i>
    <v name="SAXIS">      0.00000000      0.00000000      1.00000000</v>
    <i type="logical" name="LSPIRAL"> F  </i>
    <v name="QSPIRAL">      0.00000000      0.00000000      0.00000000</v>
    <i type="logical" name="LZEROZ"> F  </i>
   </separator>
   <separator name="electronic exchange-correlation" >
    <i type="logical" name="LASPH"> T  </i>
    <i type="logical" name="LMETAGGA"> F  </i>
   </separator>
   <separator name="electronic convergence" >
    <i type="int" name="NELM">   100</i>
    <i type="int" name="NELMDL">    -5</i>
    <i type="int" name="NELMIN">     6</i>
    <i name="ENINI">    600.00000000</i>
    <separator name="electronic convergence detail" >
     <i type="logical" name="LDIAG"> T  </i>
     <i type="logical" name="LSUBROT"> F  </i>
     <i name="WEIMIN">      0.00000000</i>
     <i name="EBREAK">      0.00000000</i>
     <i name="DEPER">      0.30000000</i>
     <i type="int" name="NRMM">     4</i>
     <i name="TIME">      0.40000000</i>
    </separator>
   </separator>
   <separator name="electronic mixer" >
    <i name="AMIX">      0.40000000</i>
    <i name="BMIX">      1.00000000</i>
    <i name="AMIN">      0.10000000</i>
    <i name="AMIX_MAG">      1.60000000</i>
    <i name="BMIX_MAG">      1.00000000</i>
    <separator name="electronic mixer details" >
     <i type="int" name="IMIX">     4</i>
     <i type="logical" name="MIXFIRST"> F  </i>
     <i type="int" name="MAXMIX">   -45</i>
     <i name="WC">    100.00000000</i>
     <i type="int" name="INIMIX">     1</i>
     <i type="int" name="MIXPRE">     1</i>
     <i type="int" name="MREMOVE">     5</i>
    </separator>
   </separator>
   <separator name="electronic dipolcorrection" >
    <i type="logical" name="LDIPOL"> F  </i>
    <i type="logical" name="LMONO"> F  </i>
    <i type="int" name="IDIPOL">     0</i>
    <i name="EPSILON">      1.00000000</i>
    <v name="DIPOL">   -100.00000000   -100.00000000   -100.00000000</v>
    <i name="EFIELD">      0.00000000</i>
   </separator>
  </separator>
  <separator name="grids" >
   <i type="int" name="NGX">    54</i>
   <i type="int" name="NGY">    54</i>
   <i type="int" name="NGZ">    54</i>
   <i type="int" name="NGXF">   108</i>
   <i type="int" name="NGYF">   108</i>
   <i type="int" name="NGZF">   108</i>
   <i type="logical" name="ADDGRID"> T  </i>
  </separator>
  <separator name="ionic" >
   <i type="int" name="NSW">     0</i>
   <i type="int" name="IBRION">    -1</i>
   <i type="int" name="MDALGO">     0</i>
   <i type="int" name="ISIF">    -1</i>
   <i name="PSTRESS">      0.00000000</i>
   <i name="EDIFFG">      0.00000001</i>
   <i type="int" name="NFREE">     0</i>
   <i name="POTIM">      0.50000000</i>
   <i name="SMASS">     -3.00000000</i>
   <i name="SCALEE">      1.00000000</i>
  </separator>
  <separator name="ionic md" >
   <i name="TEBEG">      0.00010000</i>
   <i name="TEEND">      0.00010000</i>
   <i type="int" name="NBLOCK">     1</i>
   <i type="int" name="KBLOCK">     1</i>
   <i type="int" name="NPACO">   256</i>
   <i name="APACO">     16.00000000</i>
  </separator>
  <separator name="symmetry" >
   <i type="int" name="ISYM">     2</i>
   <i name="SYMPREC">      0.00010000</i>
  </separator>
  <separator name="dos" >
   <i type="int" name="LORBIT">     0</i>
   <v name="RWIGS">     -1.00000000     -1.00000000     -1.00000000</v>
   <i type="int" name="NEDOS">   301</i>
   <i name="EMIN">     10.00000000</i>
   <i name="EMAX">    -10.00000000</i>
   <i name="EFERMI">      0.00000000</i>
  </separator>
  <separator name="writing" >
   <i type="int" name="NWRITE">     2</i>
   <i type="logical" name="LWAVE"> T  </i>
   <i type="logical" name="LDOWNSAMPLE"> F  </i>
   <i type="logical" name="LCHARG"> T  </i>
   <i type="logical" name="LPARD"> F  </i>
   <i type="logical" name="LVTOT"> F  </i>
   <i type="logical" name="LVHAR"> F  </i>
   <i type="logical" name="LELF"> F  </i>
   <i type="logical" name="LOPTICS"> F  </i>
   <v name="STM">      0.00000000      0.00000000      0.00000000      0.00000000      0.00000000      0.00000000      0.00000000</v>
  </separator>
  <separator name="performance" >
   <i type="int" name="NPAR">     6</i>
   <i type="int" name="NSIM">     4</i>
   <i type="int" name="NBLK">    -1</i>
   <i type="logical" name="LPLANE"> T  </i>
   <i type="logical" name="LSCALAPACK"> T  </i>
   <i type="logical" name="LSCAAWARE"> F  </i>
   <i type="logical" name="LSCALU"> F  </i>
   <i type="logical" name="LASYNC"> F  </i>
   <i type="logical" name="LORBITALREAL"> F  </i>
  </separator>
  <separator name="miscellaneous" >
   <i type="int" name="IDIOT">     3</i>
   <i type="int" name="PHON_NSTRUCT">    -1</i>
   <i type="logical" name="LMUSIC"> F  </i>
   <v name="POMASS">     10.81100000     95.94000000     28.08500000</v>
   <v name="DARWINR">      0.00000000      0.00000000      0.00000000</v>
   <v name="DARWINV">      1.00000000      1.00000000      1.00000000</v>
   <i type="logical" name="LCORR"> T  </i>
  </separator>
  <i type="logical" name="GGA_COMPAT"> T  </i>
  <i type="logical" name="LBERRY"> F  </i>
  <i type="int" name="ICORELEVEL">     0</i>
  <i type="logical" name="LDAU"> F  </i>
  <i type="int" name="I_CONSTRAINED_M">     0</i>
  <separator name="electronic exchange-correlation" >
   <i type="string" name="GGA">--</i>
   <i type="int" name="VOSKOWN">     0</i>
   <i type="logical" name="LHFCALC"> F  </i>
   <i type="string" name="PRECFOCK"></i>
   <i type="logical" name="LSYMGRAD"> F  </i>
   <i type="logical" name="LHFONE"> F  </i>
   <i type="logical" name="LRHFCALC"> F  </i>
   <i type="logical" name="LTHOMAS"> F  </i>
   <i type="logical" name="LMODELHF"> F  </i>
   <i type="logical" name="LFOCKACE"> F  </i>
   <i name="ENCUT4O">     -1.00000000</i>
   <i type="int" name="EXXOEP">     0</i>
   <i type="int" name="FOURORBIT">     0</i>
   <i name="AEXX">      0.00000000</i>
   <i name="HFALPHA">      0.00000000</i>
   <i name="MCALPHA">      0.00000000</i>
   <i name="ALDAX">      1.00000000</i>
   <i name="AGGAX">      1.00000000</i>
   <i name="ALDAC">      1.00000000</i>
   <i name="AGGAC">      1.00000000</i>
   <i type="int" name="NKREDX">     1</i>
   <i type="int" name="NKREDY">     1</i>
   <i type="int" name="NKREDZ">     1</i>
   <i type="logical" name="SHIFTRED"> F  </i>
   <i type="logical" name="ODDONLY"> F  </i>
   <i type="logical" name="EVENONLY"> F  </i>
   <i type="int" name="LMAXFOCK">     0</i>
   <i type="int" name="NMAXFOCKAE">     0</i>
   <i type="logical" name="LFOCKAEDFT"> F  </i>
   <i name="HFSCREEN">      0.00000000</i>
   <i name="HFSCREENC">      0.00000000</i>
   <i type="int" name="NBANDSGWLOW">     0</i>
  </separator>
  <separator name="vdW DFT" >
   <i type="logical" name="LUSE_VDW"> F  </i>
   <i name="Zab_VDW">     -0.84910000</i>
   <i name="PARAM1">      0.12340000</i>
   <i name="PARAM2">      1.00000000</i>
   <i name="PARAM3">      0.00000000</i>
  </separator>
  <separator name="model GW" >
   <i type="int" name="MODEL_GW">     0</i>
   <i name="MODEL_EPS0">      6.64392614</i>
   <i name="MODEL_ALPHA">      1.00000000</i>
  </separator>
  <separator name="linear response parameters" >
   <i type="logical" name="LEPSILON"> F  </i>
   <i type="logical" name="LRPA"> F  </i>
   <i type="logical" name="LNABLA"> F  </i>
   <i type="logical" name="LVEL"> F  </i>
   <i type="int" name="KINTER">     0</i>
   <i name="CSHIFT">      0.10000000</i>
   <i name="OMEGAMAX">     -1.00000000</i>
   <i name="DEG_THRESHOLD">      0.00200000</i>
   <i name="RTIME">     -0.10000000</i>
   <i name="WPLASMAI">      0.00000000</i>
   <v name="DFIELD">      0.00000000      0.00000000      0.00000000</v>
   <v name="WPLASMA">      0.00000000      0.00000000      0.00000000      0.00000000      0.00000000      0.00000000      0.00000000      0.00000000      0.00000000</v>
  </separator>
  <separator name="orbital magnetization" >
   <i type="logical" name="NUCIND"> F  </i>
   <v name="MAGPOS">      0.00000000      0.00000000      0.00000000</v>
   <i type="logical" name="LNICSALL"> T  </i>
   <i type="logical" name="ORBITALMAG"> F  </i>
   <i type="logical" name="LMAGBLOCH"> F  </i>
   <i type="logical" name="LCHIMAG"> F  </i>
   <i type="logical" name="LGAUGE"> T  </i>
   <i type="int" name="MAGATOM">     0</i>
   <v name="MAGDIPOL">      0.00000000      0.00000000      0.00000000</v>
   <v name="AVECCONST">      0.00000000      0.00000000      0.00000000</v>
  </separator>
  <separator name="response functions" >
   <i type="logical" name="LFINITE_TEMPERATURE"> F  </i>
   <i type="logical" name="LADDER"> F  </i>
   <i type="logical" name="LRPAFORCE"> F  </i>
   <i type="logical" name="LFXC"> F  </i>
   <i type="logical" name="LHARTREE"> T  </i>
   <i type="int" name="IBSE">     0</i>
   <v type="int" name="KPOINT">    -1     0     0     0</v>
   <i type="logical" name="LTCTC"> F  </i>
   <i type="logical" name="LTCTE"> F  </i>
   <i type="logical" name="LTETE"> F  </i>
   <i type="logical" name="LTRIPLET"> F  </i>
   <i type="logical" name="LFXCEPS"> F  </i>
   <i type="logical" name="LFXHEG"> F  </i>
   <i type="int" name="NATURALO">     2</i>
   <i type="logical" name="LHOLEGF"> F  </i>
   <i type="logical" name="L2ORDER"> F  </i>
   <i type="logical" name="LDMP1"> F  </i>
   <i type="logical" name="LMP2LT"> F  </i>
   <i type="logical" name="LSMP2LT"> F  </i>
   <i type="logical" name="LGWLF"> F  </i>
   <i name="ENCUTGW">     -2.00000000</i>
   <i name="ENCUTGWSOFT">     -2.00000000</i>
   <i name="ENCUTLF">     -1.00000000</i>
   <i type="logical" name="LESF_SPLINES"> F  </i>
   <i type="int" name="LMAXMP2">    -1</i>
   <i name="SCISSOR">      0.00000000</i>
   <i type="int" name="NOMEGA">     0</i>
   <i type="int" name="NOMEGAR">     0</i>
   <i type="int" name="NBANDSGW">    -1</i>
   <i type="int" name="NBANDSO">    -1</i>
   <i type="int" name="NBANDSV">    -1</i>
   <i type="int" name="NELM">   100</i>
   <i type="int" name="NELMHF">     1</i>
   <i type="int" name="DIM">     3</i>
   <i type="int" name="IESPILON">     4</i>
   <i type="int" name="ANTIRES">     0</i>
   <i name="OMEGAMAX">    -30.00000000</i>
   <i name="OMEGAMIN">    -30.00000000</i>
   <i name="OMEGATL">   -200.00000000</i>
   <i type="int" name="OMEGAGRID">     0</i>
   <i name="CSHIFT">     -0.10000000</i>
   <i type="logical" name="LSELFENERGY"> F  </i>
   <i type="logical" name="LSPECTRAL"> F  </i>
   <i type="logical" name="LSPECTRALGW"> F  </i>
   <i type="logical" name="LSINGLES"> F  </i>
   <i type="logical" name="LFERMIGW"> F  </i>
   <i type="logical" name="ODDONLYGW"> F  </i>
   <i type="logical" name="EVENONLYGW"> F  </i>
   <i type="int" name="NKREDLFX">     1</i>
   <i type="int" name="NKREDLFY">     1</i>
   <i type="int" name="NKREDLFZ">     1</i>
   <i type="int" name="MAXMEM">  2800</i>
   <i type="int" name="TELESCOPE">     0</i>
   <i type="int" name="NTAUPAR">    -1</i>
   <i type="int" name="NOMEGAPAR">    -1</i>
   <i name="DAMP_NEWTON">      0.80000001</i>
   <i name="LAMBDA">      1.00000000</i>
  </separator>
  <separator name="External order field" >
   <i name="OFIELD_KAPPA">      0.00000000</i>
   <v name="OFIELD_K">      0.00000000      0.00000000      0.00000000</v>
   <i name="OFIELD_Q6_NEAR">      0.00000000</i>
   <i name="OFIELD_Q6_FAR">      0.00000000</i>
   <i name="OFIELD_A">      0.00000000</i>
  </separator>
 </parameters>
 <atominfo>
  <atoms>      16 </atoms>
  <types>       3 </types>
  <array name="atoms" >
   <dimension dim="1">ion</dimension>
   <field type="string">element</field>
   <field type="int">atomtype</field>
   <set>
    <rc><c>B </c><c>   1</c></rc>
    <rc><c>B </c><c>   1</c></rc>
    <rc><c>B </c><c>   1</c></rc>
    <rc><c>B </c><c>   1</c></rc>
    <rc><c>B </c><c>   1</c></rc>
    <rc><c>B </c><c>   1</c></rc>
    <rc><c>B </c><c>   1</c></rc>
    <rc><c>B </c><c>   1</c></rc>
    <rc><c>Mo</c><c>   2</c></rc>
    <rc><c>Mo</c><c>   2</c></rc>
    <rc><c>Mo</c><c>   2</c></rc>
    <rc><c>Mo</c><c>   2</c></rc>
    <rc><c>Mo</c><c>   2</c></rc>
    <rc><c>Mo</c><c>   2</c></rc>
    <rc><c>Si</c><c>   3</c></rc>
    <rc><c>Si</c><c>   3</c></rc>
   </set>
  </array>
  <array name="atomtypes" >
   <dimension dim="1">type</dimension>
   <field type="int">atomspertype</field>
   <field type="string">element</field>
   <field>mass</field>
   <field>valence</field>
   <field type="string">pseudopotential</field>
   <set>
    <rc><c>   8</c><c>B </c><c>     10.81100000</c><c>      3.00000000</c><c>  PAW_PBE B 06Sep2000                   </c></rc>
    <rc><c>   6</c><c>Mo</c><c>     95.94000000</c><c>     14.00000000</c><c>  PAW_PBE Mo_sv 02Feb2006               </c></rc>
    <rc><c>   2</c><c>Si</c><c>     28.08500000</c><c>      4.00000000</c><c>  PAW_PBE Si 05Jan2001                  </c></rc>
   </set>
  </array>
 </atominfo>
 <structure name="initialpos" >
  <crystal>
   <varray name="basis" >
    <v>       5.38227442       0.00000000      -3.47183091 </v>
    <v>      -1.59841352       5.13945057      -3.47183091 </v>
    <v>       0.00000000       0.00000000       6.40488000 </v>
   </varray>
   <i name="volume">    177.17136371 </i>
   <varray name="rec_basis" >
    <v>       0.18579506       0.05778387       0.00000000 </v>
    <v>       0.00000000       0.19457333       0.00000000 </v>
    <v>       0.10071212       0.13679281       0.15613095 </v>
   </varray>
  </crystal>
  <varray name="positions" >
   <v>       0.11031000       0.61031000       0.98119000 </v>
   <v>       0.88969000       0.38969000       0.01881000 </v>
   <v>       0.61031000       0.62912000       0.50000000 </v>
   <v>       0.38969000       0.37088000       0.50000000 </v>
   <v>       0.62912000       0.12912000       0.01881000 </v>
   <v>       0.37088000       0.87088000       0.98119000 </v>
   <v>       0.12912000       0.11031000       0.50000000 </v>
   <v>       0.87088000       0.88969000       0.50000000 </v>
   <v>       0.25000000       0.25000000       0.00000000 </v>
   <v>       0.50000000       0.00000000       0.00000000 </v>
   <v>       0.75000000       0.75000000       0.00000000 </v>
   <v>       0.00000000       0.00000000       0.50000000 </v>
   <v>       0.00000000       0.50000000       0.00000000 </v>
   <v>       0.50000000       0.50000000       0.50000000 </v>
   <v>       0.75000000       0.25000000       0.50000000 </v>
   <v>       0.25000000       0.75000000       0.50000000 </v>
  </varray>
 </structure>
 <calculation>
  <scstep>
   <time name="total">   33.59   33.92</time>
   <energy>
    <i name="alphaZ">    648.24136325 </i>
    <i name="ewald">  -6676.73710374 </i>
    <i name="hartreedc">  -4722.67752371 </i>
    <i name="XCdc">    549.19539683 </i>
    <i name="pawpsdc">   9417.46121024 </i>
    <i name="pawaedc">  -9379.23717351 </i>
    <i name="eentropy">     -0.00061760 </i>
    <i name="bandstr">   -218.07260597 </i>
    <i name="atom">  11949.18504973 </i>
    <i name="e_fr_energy">   1567.35799551 </i>
    <i name="e_wo_entrp">   1567.35861312 </i>
    <i name="e_0_energy">   1567.35830432 </i>
   </energy>
  </scstep>
  <scstep>
   <time name="total">   33.13   33.45</time>
   <energy>
    <i name="e_fr_energy">      3.52470879 </i>
    <i name="e_wo_entrp">      3.52569655 </i>
    <i name="e_0_energy">      3.52520267 </i>
   </energy>
  </scstep>
  <scstep>
   <time name="total">   35.97   36.31</time>
   <energy>
    <i name="e_fr_energy">    -59.81035243 </i>
    <i name="e_wo_entrp">    -59.80793606 </i>
    <i name="e_0_energy">    -59.80914424 </i>
   </energy>
  </scstep>
  <scstep>
   <time name="total">   35.30   35.65</time>
   <energy>
    <i name="e_fr_energy">    -61.21339849 </i>
    <i name="e_wo_entrp">    -61.21106316 </i>
    <i name="e_0_energy">    -61.21223082 </i>
   </energy>
  </scstep>
  <scstep>
   <time name="total">   38.31   38.68</time>
   <energy>
    <i name="e_fr_energy">    -61.24163774 </i>
    <i name="e_wo_entrp">    -61.23927931 </i>
    <i name="e_0_energy">    -61.24045853 </i>
   </energy>
  </scstep>
  <scstep>
   <time name="total">   37.64   37.98</time>
   <energy>
    <i name="e_fr_energy">    105.32811425 </i>
    <i name="e_wo_entrp">    105.33117443 </i>
    <i name="e_0_energy">    105.32964434 </i>
   </energy>
  </scstep>
  <scstep>
   <time name="total">   37.56   37.91</time>
   <energy>
    <i name="e_fr_energy">     27.79845502 </i>
    <i name="e_wo_entrp">     27.80118041 </i>
    <i name="e_0_energy">     27.79981772 </i>
   </energy>
  </scstep>
  <scstep>
   <time name="total">   37.67   38.01</time>
   <energy>
    <i name="e_fr_energy">     18.18854243 </i>
    <i name="e_wo_entrp">     18.19078555 </i>
    <i name="e_0_energy">     18.18966399 </i>
   </energy>
  </scstep>
  <scstep>
   <time name="total">   37.34   37.70</time>
   <energy>
    <i name="e_fr_energy">     15.11875054 </i>
    <i name="e_wo_entrp">     15.12028830 </i>
    <i name="e_0_energy">     15.11951942 </i>
   </energy>
  </scstep>
  <scstep>
   <time name="total">   37.50   37.84</time>
   <energy>
    <i name="e_fr_energy">     13.73664668 </i>
    <i name="e_wo_entrp">     13.73834384 </i>
    <i name="e_0_energy">     13.73749526 </i>
   </energy>
  </scstep>
  <scstep>
   <time name="total">   38.17   38.51</time>
   <energy>
    <i name="e_fr_energy">     13.14135050 </i>
    <i name="e_wo_entrp">     13.14332054 </i>
    <i name="e_0_energy">     13.14233552 </i>
   </energy>
  </scstep>
  <scstep>
   <time name="total">   38.47   38.81</time>
   <energy>
    <i name="e_fr_energy">     12.84838890 </i>
    <i name="e_wo_entrp">     12.85043322 </i>
    <i name="e_0_energy">     12.84941106 </i>
   </energy>
  </scstep>
  <scstep>
   <time name="total">   39.28   39.63</time>
   <energy>
    <i name="e_fr_energy">     12.73730398 </i>
    <i name="e_wo_entrp">     12.73927518 </i>
    <i name="e_0_energy">     12.73828958 </i>
   </energy>
  </scstep>
  <scstep>
   <time name="total">   39.40   39.74</time>
   <energy>
    <i name="e_fr_energy">     12.69075379 </i>
    <i name="e_wo_entrp">     12.69271126 </i>
    <i name="e_0_energy">     12.69173253 </i>
   </energy>
  </scstep>
  <scstep>
   <time name="total">   38.08   38.43</time>
   <energy>
    <i name="e_fr_energy">     12.66966268 </i>
    <i name="e_wo_entrp">     12.67170786 </i>
    <i name="e_0_energy">     12.67068527 </i>
   </energy>
  </scstep>
  <scstep>
   <time name="total">   38.13   38.46</time>
   <energy>
    <i name="e_fr_energy">     12.65973548 </i>
    <i name="e_wo_entrp">     12.66183547 </i>
    <i name="e_0_energy">     12.66078547 </i>
   </energy>
  </scstep>
  <scstep>
   <time name="total">   38.15   38.49</time>
   <energy>
    <i name="e_fr_energy">     12.65476509 </i>
    <i name="e_wo_entrp">     12.65687706 </i>
    <i name="e_0_energy">     12.65582108 </i>
   </energy>
  </scstep>
  <scstep>
   <time name="total">   38.21   38.54</time>
   <energy>
    <i name="e_fr_energy">     12.65234126 </i>
    <i name="e_wo_entrp">     12.65445530 </i>
    <i name="e_0_energy">     12.65339828 </i>
   </energy>
  </scstep>
  <scstep>
   <time name="total">   37.86   38.19</time>
   <energy>
    <i name="e_fr_energy">     12.65114128 </i>
    <i name="e_wo_entrp">     12.65325638 </i>
    <i name="e_0_energy">     12.65219883 </i>
   </energy>
  </scstep>
  <scstep>
   <time name="total">   38.41   38.74</time>
   <energy>
    <i name="e_fr_energy">     12.65066948 </i>
    <i name="e_wo_entrp">     12.65278125 </i>
    <i name="e_0_energy">     12.65172537 </i>
   </energy>
  </scstep>
  <scstep>
   <time name="total">   38.25   38.59</time>
   <energy>
    <i name="e_fr_energy">     12.65047367 </i>
    <i name="e_wo_entrp">     12.65258447 </i>
    <i name="e_0_energy">     12.65152907 </i>
   </energy>
  </scstep>
  <scstep>
   <time name="total">   37.68   38.02</time>
   <energy>
    <i name="e_fr_energy">     12.65037984 </i>
    <i name="e_wo_entrp">     12.65248911 </i>
    <i name="e_0_energy">     12.65143447 </i>
   </energy>
  </scstep>
  <scstep>
   <time name="total">   38.29   38.64</time>
   <energy>
    <i name="e_fr_energy">     12.65033823 </i>
    <i name="e_wo_entrp">     12.65244604 </i>
    <i name="e_0_energy">     12.65139214 </i>
   </energy>
  </scstep>
  <scstep>
   <time name="total">   38.38   38.71</time>
   <energy>
    <i name="e_fr_energy">     12.65031845 </i>
    <i name="e_wo_entrp">     12.65242584 </i>
    <i name="e_0_energy">     12.65137215 </i>
   </energy>
  </scstep>
  <scstep>
   <time name="total">   38.08   38.42</time>
   <energy>
    <i name="e_fr_energy">     12.65031066 </i>
    <i name="e_wo_entrp">     12.65241747 </i>
    <i name="e_0_energy">     12.65136406 </i>
   </energy>
  </scstep>
  <scstep>
   <time name="total">   37.89   38.23</time>
   <energy>
    <i name="e_fr_energy">     12.65030755 </i>
    <i name="e_wo_entrp">     12.65241426 </i>
    <i name="e_0_energy">     12.65136091 </i>
   </energy>
  </scstep>
  <scstep>
   <time name="total">   37.82   38.16</time>
   <energy>
    <i name="e_fr_energy">     12.65030567 </i>
    <i name="e_wo_entrp">     12.65241260 </i>
    <i name="e_0_energy">     12.65135914 </i>
   </energy>
  </scstep>
  <scstep>
   <time name="total">   37.98   38.32</time>
   <energy>
    <i name="e_fr_energy">     12.65030486 </i>
    <i name="e_wo_entrp">     12.65241186 </i>
    <i name="e_0_energy">     12.65135836 </i>
   </energy>
  </scstep>
  <scstep>
   <time name="total">   38.22   38.56</time>
   <energy>
    <i name="e_fr_energy">     12.65030459 </i>
    <i name="e_wo_entrp">     12.65241171 </i>
    <i name="e_0_energy">     12.65135815 </i>
   </energy>
  </scstep>
  <scstep>
   <time name="total">   38.19   38.53</time>
   <energy>
    <i name="e_fr_energy">     12.65030445 </i>
    <i name="e_wo_entrp">     12.65241183 </i>
    <i name="e_0_energy">     12.65135814 </i>
   </energy>
  </scstep>
  <scstep>
   <time name="total">   65.15   65.73</time>
   <energy>
    <i name="e_fr_energy">     12.65030433 </i>
    <i name="e_wo_entrp">     12.65241236 </i>
    <i name="e_0_energy">     12.65135834 </i>
   </energy>
  </scstep>
  <scstep>
   <time name="total">   38.32   38.66</time>
   <energy>
    <i name="e_fr_energy">     12.65030492 </i>
    <i name="e_wo_entrp">     12.65241304 </i>
    <i name="e_0_energy">     12.65135898 </i>
   </energy>
  </scstep>
  <scstep>
   <time name="total">   38.88   39.22</time>
   <energy>
    <i name="e_fr_energy">     12.65030452 </i>
    <i name="e_wo_entrp">     12.65241249 </i>
    <i name="e_0_energy">     12.65135851 </i>
   </energy>
  </scstep>
  <scstep>
   <time name="total">   38.29   38.63</time>
   <energy>
    <i name="e_fr_energy">     12.65030438 </i>
    <i name="e_wo_entrp">     12.65241190 </i>
    <i name="e_0_energy">     12.65135814 </i>
   </energy>
  </scstep>
  <scstep>
   <time name="total">   38.29   38.65</time>
   <energy>
    <i name="e_fr_energy">     12.65030434 </i>
    <i name="e_wo_entrp">     12.65241195 </i>
    <i name="e_0_energy">     12.65135814 </i>
   </energy>
  </scstep>
  <scstep>
   <time name="total">   38.10   38.43</time>
   <energy>
    <i name="e_fr_energy">     12.65030427 </i>
    <i name="e_wo_entrp">     12.65241188 </i>
    <i name="e_0_energy">     12.65135808 </i>
   </energy>
  </scstep>
  <scstep>
   <time name="total">   37.28   37.63</time>
   <energy>
    <i name="e_fr_energy">     12.65030427 </i>
    <i name="e_wo_entrp">     12.65241185 </i>
    <i name="e_0_energy">     12.65135806 </i>
   </energy>
  </scstep>
  <scstep>
   <time name="total">   37.79   38.13</time>
   <energy>
    <i name="e_fr_energy">     12.65030423 </i>
    <i name="e_wo_entrp">     12.65241194 </i>
    <i name="e_0_energy">     12.65135808 </i>
   </energy>
  </scstep>
  <scstep>
   <time name="total">   38.09   38.44</time>
   <energy>
    <i name="e_fr_energy">     12.65030460 </i>
    <i name="e_wo_entrp">     12.65241211 </i>
    <i name="e_0_energy">     12.65135835 </i>
   </energy>
  </scstep>
  <scstep>
   <time name="total">   38.05   38.39</time>
   <energy>
    <i name="e_fr_energy">     12.65030427 </i>
    <i name="e_wo_entrp">     12.65241177 </i>
    <i name="e_0_energy">     12.65135802 </i>
   </energy>
  </scstep>
  <scstep>
   <time name="total">   37.98   38.32</time>
   <energy>
    <i name="e_fr_energy">     12.65030420 </i>
    <i name="e_wo_entrp">     12.65241173 </i>
    <i name="e_0_energy">     12.65135797 </i>
   </energy>
  </scstep>
  <scstep>
   <time name="total">   43.66   44.06</time>
   <energy>
    <i name="alphaZ">    648.24136325 </i>
    <i name="ewald">  -6676.73710374 </i>
    <i name="hartreedc">  -5071.95746647 </i>
    <i name="XCdc">    581.38030730 </i>
    <i name="pawpsdc">  34531.64568310 </i>
    <i name="pawaedc"> -34468.30883392 </i>
    <i name="eentropy">     -0.00210753 </i>
    <i name="bandstr">  -1480.79658752 </i>
    <i name="atom">  11949.18504973 </i>
    <i name="e_fr_energy">     12.65030420 </i>
    <i name="e_wo_entrp">     12.65241174 </i>
    <i name="e_0_energy">     12.65135797 </i>
   </energy>
  </scstep>
  <structure>
   <crystal>
    <varray name="basis" >
     <v>       5.38227442       0.00000000      -3.47183091 </v>
     <v>      -1.59841352       5.13945057      -3.47183091 </v>
     <v>       0.00000000       0.00000000       6.40488000 </v>
    </varray>
    <i name="volume">    177.17136371 </i>
    <varray name="rec_basis" >
     <v>       0.18579506       0.05778387       0.00000000 </v>
     <v>       0.00000000       0.19457333       0.00000000 </v>
     <v>       0.10071212       0.13679281       0.15613095 </v>
    </varray>
   </crystal>
   <varray name="positions" >
    <v>       0.11031000       0.61031000       0.98119000 </v>
    <v>       0.88969000       0.38969000       0.01881000 </v>
    <v>       0.61031000       0.62912000       0.50000000 </v>
    <v>       0.38969000       0.37088000       0.50000000 </v>
    <v>       0.62912000       0.12912000       0.01881000 </v>
    <v>       0.37088000       0.87088000       0.98119000 </v>
    <v>       0.12912000       0.11031000       0.50000000 </v>
    <v>       0.87088000       0.88969000       0.50000000 </v>
    <v>       0.25000000       0.25000000       0.00000000 </v>
    <v>       0.50000000       0.00000000       0.00000000 </v>
    <v>       0.75000000       0.75000000       0.00000000 </v>
    <v>       0.00000000       0.00000000       0.50000000 </v>
    <v>       0.00000000       0.50000000       0.00000000 </v>
    <v>       0.50000000       0.50000000       0.50000000 </v>
    <v>       0.75000000       0.25000000       0.50000000 </v>
    <v>       0.25000000       0.75000000       0.50000000 </v>
   </varray>
  </structure>
  <varray name="forces" >
   <v>       0.00000000       0.00000000       0.00000000 </v>
   <v>       0.00000000       0.00000000       0.00000000 </v>
   <v>       0.00000000       0.00000000       0.00000000 </v>
   <v>       0.00000000       0.00000000       0.00000000 </v>
   <v>       0.00000000       0.00000000       0.00000000 </v>
   <v>       0.00000000       0.00000000       0.00000000 </v>
   <v>       0.00000000       0.00000000       0.00000000 </v>
   <v>       0.00000000       0.00000000       0.00000000 </v>
   <v>       0.00000000       0.00000000       0.00000000 </v>
   <v>       0.00000000       0.00000000       0.00000000 </v>
   <v>       0.00000000       0.00000000       0.00000000 </v>
   <v>       0.00000000       0.00000000       0.00000000 </v>
   <v>       0.00000000       0.00000000       0.00000000 </v>
   <v>       0.00000000       0.00000000       0.00000000 </v>
   <v>       0.00000000       0.00000000       0.00000000 </v>
   <v>       0.00000000       0.00000000       0.00000000 </v>
  </varray>
  <varray name="stress" >
   <v>       0.00000000       0.00000000       0.00000000 </v>
   <v>       0.00000000       0.00000000       0.00000000 </v>
   <v>       0.00000000       0.00000000       0.00000000 </v>
  </varray>
  <energy>
   <i name="e_fr_energy">     12.65030420 </i>
   <i name="e_wo_entrp">     12.65241174 </i>
   <i name="e_0_energy">     12.65135797 </i>
  </energy>
  <time name="totalsc"> 1622.99 1637.67</time>
  <eigenvalues>
   <array>
    <dimension dim="1">band</dimension>
    <dimension dim="2">kpoint</dimension>
    <dimension dim="3">spin</dimension>
    <field>eigene</field>
    <field>occ</field>
    <set>
     <set comment="spin 1">
      <set comment="kpoint 1">
       <r>  -56.1828    1.0000 </r>
       <r>  -55.9122    1.0000 </r>
       <r>  -55.9121    1.0000 </r>
       <r>  -55.8621    1.0000 </r>
       <r>  -53.8116    1.0000 </r>
       <r>  -53.4600    1.0000 </r>
       <r>  -33.9565    1.0000 </r>
       <r>  -33.8996    1.0000 </r>
       <r>  -33.8995    1.0000 </r>
       <r>  -33.8682    1.0000 </r>
       <r>  -30.8515    1.0000 </r>
       <r>  -30.8511    1.0000 </r>
       <r>  -28.4918    1.0000 </r>
       <r>  -28.4051    1.0000 </r>
       <r>  -28.3825    1.0000 </r>
       <r>  -28.1050    1.0000 </r>
       <r>  -28.1049    1.0000 </r>
       <r>  -27.8984    1.0000 </r>
       <r>  -27.8590    1.0000 </r>
       <r>  -27.8588    1.0000 </r>
       <r>  -26.8342    1.0000 </r>
       <r>  -26.7441    1.0000 </r>
       <r>  -24.8945    1.0000 </r>
       <r>  -24.8944    1.0000 </r>
       <r>   -3.1940    1.0000 </r>
       <r>   -2.2604    1.0000 </r>
       <r>   -2.0371    1.0000 </r>
       <r>   -2.0369    1.0000 </r>
       <r>   -1.3823    1.0000 </r>
       <r>   -0.2547    1.0000 </r>
       <r>   -0.2546    1.0000 </r>
       <r>   -0.2039    1.0000 </r>
       <r>    0.3397    1.0000 </r>
       <r>    0.9746    1.0000 </r>
       <r>    1.2620    1.0000 </r>
       <r>    1.4134    1.0000 </r>
       <r>    1.4134    1.0000 </r>
       <r>    1.5607    1.0000 </r>
       <r>    1.7327    1.0000 </r>
       <r>    3.0610    1.0000 </r>
       <r>    3.0610    1.0000 </r>
       <r>    3.1972    1.0000 </r>
       <r>    4.3600    1.0000 </r>
       <r>    4.3601    1.0000 </r>
       <r>    4.3613    1.0000 </r>
       <r>    4.4390    1.0000 </r>
       <r>    6.2057    1.0000 </r>
       <r>    6.5631    1.0000 </r>
       <r>    6.5632    1.0000 </r>
       <r>    6.6345    1.0000 </r>
       <r>    7.6036    1.0000 </r>
       <r>    7.8796    1.0000 </r>
       <r>    7.8797    1.0000 </r>
       <r>    8.8487    1.0000 </r>
       <r>    9.1141    1.0000 </r>
       <r>    9.1142    1.0000 </r>
       <r>    9.4054    1.0000 </r>
       <r>    9.7070    1.0000 </r>
       <r>    9.7070    1.0000 </r>
       <r>    9.8504    0.6800 </r>
       <r>   10.6001    0.0000 </r>
       <r>   10.6894    0.0000 </r>
       <r>   10.8048    0.0000 </r>
       <r>   10.8142    0.0000 </r>
       <r>   10.8162    0.0000 </r>
       <r>   11.0222    0.0000 </r>
       <r>   11.4138    0.0000 </r>
       <r>   11.8866    0.0000 </r>
       <r>   11.9398    0.0000 </r>
       <r>   12.2001    0.0000 </r>
       <r>   13.0511    0.0000 </r>
       <r>   13.3208    0.0000 </r>
      </set>
      <set comment="kpoint 2">
       <r>  -56.1710    1.0000 </r>
       <r>  -55.9275    1.0000 </r>
       <r>  -55.9096    1.0000 </r>
       <r>  -55.8646    1.0000 </r>
       <r>  -53.7922    1.0000 </r>
       <r>  -53.4758    1.0000 </r>
       <r>  -33.9536    1.0000 </r>
       <r>  -33.9023    1.0000 </r>
       <r>  -33.8980    1.0000 </r>
       <r>  -33.8696    1.0000 </r>
       <r>  -30.7876    1.0000 </r>
       <r>  -30.7867    1.0000 </r>
       <r>  -28.8227    1.0000 </r>
       <r>  -28.8033    1.0000 </r>
       <r>  -28.4708    1.0000 </r>
       <r>  -28.1247    1.0000 </r>
       <r>  -28.0956    1.0000 </r>
       <r>  -27.9195    1.0000 </r>
       <r>  -27.4196    1.0000 </r>
       <r>  -27.4044    1.0000 </r>
       <r>  -26.8297    1.0000 </r>
       <r>  -26.7485    1.0000 </r>
       <r>  -24.9857    1.0000 </r>
       <r>  -24.9846    1.0000 </r>
       <r>   -3.0672    1.0000 </r>
       <r>   -2.2049    1.0000 </r>
       <r>   -2.0194    1.0000 </r>
       <r>   -1.9697    1.0000 </r>
       <r>   -1.3916    1.0000 </r>
       <r>   -0.3526    1.0000 </r>
       <r>   -0.3054    1.0000 </r>
       <r>   -0.3031    1.0000 </r>
       <r>    0.2811    1.0000 </r>
       <r>    0.6277    1.0000 </r>
       <r>    1.0399    1.0000 </r>
       <r>    1.5061    1.0000 </r>
       <r>    1.6140    1.0000 </r>
       <r>    1.8719    1.0000 </r>
       <r>    1.9128    1.0000 </r>
       <r>    3.0091    1.0000 </r>
       <r>    3.2067    1.0000 </r>
       <r>    3.3231    1.0000 </r>
       <r>    4.2572    1.0000 </r>
       <r>    4.3877    1.0000 </r>
       <r>    4.4085    1.0000 </r>
       <r>    4.5037    1.0000 </r>
       <r>    5.3906    1.0000 </r>
       <r>    6.4791    1.0000 </r>
       <r>    6.5071    1.0000 </r>
       <r>    7.2480    1.0000 </r>
       <r>    7.2647    1.0000 </r>
       <r>    7.3767    1.0000 </r>
       <r>    7.8747    1.0000 </r>
       <r>    8.9539    1.0000 </r>
       <r>    8.9750    1.0000 </r>
       <r>    9.0339    1.0000 </r>
       <r>    9.3571    1.0000 </r>
       <r>    9.4641    1.0000 </r>
       <r>   10.0794    0.0000 </r>
       <r>   10.1776    0.0000 </r>
       <r>   10.3905    0.0000 </r>
       <r>   10.5238    0.0000 </r>
       <r>   10.7202    0.0000 </r>
       <r>   10.9372    0.0000 </r>
       <r>   11.0522    0.0000 </r>
       <r>   11.1694    0.0000 </r>
       <r>   11.5517    0.0000 </r>
       <r>   11.9645    0.0000 </r>
       <r>   12.0642    0.0000 </r>
       <r>   12.4438    0.0000 </r>
       <r>   12.9126    0.0000 </r>
       <r>   13.2554    0.0000 </r>
      </set>
      <set comment="kpoint 3">
       <r>  -56.1372    1.0000 </r>
       <r>  -55.9693    1.0000 </r>
       <r>  -55.9027    1.0000 </r>
       <r>  -55.8716    1.0000 </r>
       <r>  -53.7393    1.0000 </r>
       <r>  -53.5210    1.0000 </r>
       <r>  -33.9457    1.0000 </r>
       <r>  -33.9102    1.0000 </r>
       <r>  -33.8935    1.0000 </r>
       <r>  -33.8738    1.0000 </r>
       <r>  -30.5985    1.0000 </r>
       <r>  -30.5957    1.0000 </r>
       <r>  -29.3788    1.0000 </r>
       <r>  -29.3642    1.0000 </r>
       <r>  -28.4191    1.0000 </r>
       <r>  -28.1795    1.0000 </r>
       <r>  -28.0691    1.0000 </r>
       <r>  -27.9475    1.0000 </r>
       <r>  -26.8172    1.0000 </r>
       <r>  -26.7946    1.0000 </r>
       <r>  -26.7803    1.0000 </r>
       <r>  -26.7601    1.0000 </r>
       <r>  -25.2507    1.0000 </r>
       <r>  -25.2464    1.0000 </r>
       <r>   -2.7002    1.0000 </r>
       <r>   -2.0646    1.0000 </r>
       <r>   -1.9733    1.0000 </r>
       <r>   -1.7743    1.0000 </r>
       <r>   -1.3942    1.0000 </r>
       <r>   -0.6627    1.0000 </r>
       <r>   -0.6341    1.0000 </r>
       <r>   -0.6163    1.0000 </r>
       <r>    0.1683    1.0000 </r>
       <r>    0.1979    1.0000 </r>
       <r>    1.2897    1.0000 </r>
       <r>    1.7317    1.0000 </r>
       <r>    1.8896    1.0000 </r>
       <r>    2.1749    1.0000 </r>
       <r>    2.2562    1.0000 </r>
       <r>    2.8100    1.0000 </r>
       <r>    3.4117    1.0000 </r>
       <r>    3.6077    1.0000 </r>
       <r>    4.0326    1.0000 </r>
       <r>    4.3168    1.0000 </r>
       <r>    4.4835    1.0000 </r>
       <r>    4.5344    1.0000 </r>
       <r>    4.8365    1.0000 </r>
       <r>    6.0457    1.0000 </r>
       <r>    6.2981    1.0000 </r>
       <r>    6.3348    1.0000 </r>
       <r>    6.9859    1.0000 </r>
       <r>    7.5823    1.0000 </r>
       <r>    7.8079    1.0000 </r>
       <r>    8.9162    1.0000 </r>
       <r>    9.1710    1.0000 </r>
       <r>    9.2834    1.0000 </r>
       <r>    9.4857    1.0000 </r>
       <r>    9.6194    1.0000 </r>
       <r>    9.6251    1.0000 </r>
       <r>    9.8814    0.0423 </r>
       <r>   10.2093    0.0000 </r>
       <r>   10.5169    0.0000 </r>
       <r>   10.8346    0.0000 </r>
       <r>   11.2575    0.0000 </r>
       <r>   11.2876    0.0000 </r>
       <r>   11.5008    0.0000 </r>
       <r>   11.6717    0.0000 </r>
       <r>   11.9105    0.0000 </r>
       <r>   12.2353    0.0000 </r>
       <r>   12.3376    0.0000 </r>
       <r>   13.0551    0.0000 </r>
       <r>   13.3459    0.0000 </r>
      </set>
      <set comment="kpoint 4">
       <r>  -56.0863    1.0000 </r>
       <r>  -56.0266    1.0000 </r>
       <r>  -55.8927    1.0000 </r>
       <r>  -55.8816    1.0000 </r>
       <r>  -53.6659    1.0000 </r>
       <r>  -53.5882    1.0000 </r>
       <r>  -33.9344    1.0000 </r>
       <r>  -33.9217    1.0000 </r>
       <r>  -33.8872    1.0000 </r>
       <r>  -33.8801    1.0000 </r>
       <r>  -30.2916    1.0000 </r>
       <r>  -30.2856    1.0000 </r>
       <r>  -29.8791    1.0000 </r>
       <r>  -29.8689    1.0000 </r>
       <r>  -28.3433    1.0000 </r>
       <r>  -28.2577    1.0000 </r>
       <r>  -28.0304    1.0000 </r>
       <r>  -27.9871    1.0000 </r>
       <r>  -26.7991    1.0000 </r>
       <r>  -26.7791    1.0000 </r>
       <r>  -26.1929    1.0000 </r>
       <r>  -26.1804    1.0000 </r>
       <r>  -25.6647    1.0000 </r>
       <r>  -25.6563    1.0000 </r>
       <r>   -2.1384    1.0000 </r>
       <r>   -1.9426    1.0000 </r>
       <r>   -1.9189    1.0000 </r>
       <r>   -1.5333    1.0000 </r>
       <r>   -1.3501    1.0000 </r>
       <r>   -1.2461    1.0000 </r>
       <r>   -1.0414    1.0000 </r>
       <r>   -0.9887    1.0000 </r>
       <r>    0.1030    1.0000 </r>
       <r>    0.1389    1.0000 </r>
       <r>    1.6890    1.0000 </r>
       <r>    2.0545    1.0000 </r>
       <r>    2.0626    1.0000 </r>
       <r>    2.4077    1.0000 </r>
       <r>    2.4494    1.0000 </r>
       <r>    2.6891    1.0000 </r>
       <r>    3.5733    1.0000 </r>
       <r>    3.5967    1.0000 </r>
       <r>    3.6753    1.0000 </r>
       <r>    3.8870    1.0000 </r>
       <r>    4.3744    1.0000 </r>
       <r>    4.5301    1.0000 </r>
       <r>    5.2081    1.0000 </r>
       <r>    5.5827    1.0000 </r>
       <r>    6.1723    1.0000 </r>
       <r>    6.2795    1.0000 </r>
       <r>    6.4530    1.0000 </r>
       <r>    6.9690    1.0000 </r>
       <r>    8.2303    1.0000 </r>
       <r>    8.7831    1.0000 </r>
       <r>    9.0069    1.0000 </r>
       <r>    9.1481    1.0000 </r>
       <r>    9.6135    1.0000 </r>
       <r>    9.7550    1.0000 </r>
       <r>   10.0665    0.0000 </r>
       <r>   10.1479    0.0000 </r>
       <r>   10.4060    0.0000 </r>
       <r>   10.5754    0.0000 </r>
       <r>   10.8333    0.0000 </r>
       <r>   11.0825    0.0000 </r>
       <r>   11.2448    0.0000 </r>
       <r>   11.5760    0.0000 </r>
       <r>   11.6596    0.0000 </r>
       <r>   11.9322    0.0000 </r>
       <r>   11.9361    0.0000 </r>
       <r>   12.4067    0.0000 </r>
       <r>   12.6879    0.0000 </r>
       <r>   13.1117    0.0000 </r>
      </set>
      <set comment="kpoint 5">
       <r>  -56.1599    1.0000 </r>
       <r>  -55.9364    1.0000 </r>
       <r>  -55.9123    1.0000 </r>
       <r>  -55.8673    1.0000 </r>
       <r>  -53.7749    1.0000 </r>
       <r>  -53.4901    1.0000 </r>
       <r>  -33.9510    1.0000 </r>
       <r>  -33.9019    1.0000 </r>
       <r>  -33.8994    1.0000 </r>
       <r>  -33.8710    1.0000 </r>
       <r>  -30.8419    1.0000 </r>
       <r>  -30.6070    1.0000 </r>
       <r>  -29.3552    1.0000 </r>
       <r>  -28.4897    1.0000 </r>
       <r>  -28.3938    1.0000 </r>
       <r>  -28.1171    1.0000 </r>
       <r>  -28.1127    1.0000 </r>
       <r>  -28.0192    1.0000 </r>
       <r>  -27.7305    1.0000 </r>
       <r>  -26.8255    1.0000 </r>
       <r>  -26.8015    1.0000 </r>
       <r>  -26.7527    1.0000 </r>
       <r>  -25.2440    1.0000 </r>
       <r>  -24.8981    1.0000 </r>
       <r>   -2.9264    1.0000 </r>
       <r>   -2.1271    1.0000 </r>
       <r>   -2.0069    1.0000 </r>
       <r>   -1.9335    1.0000 </r>
       <r>   -1.3896    1.0000 </r>
       <r>   -0.4594    1.0000 </r>
       <r>   -0.3623    1.0000 </r>
       <r>   -0.3368    1.0000 </r>
       <r>    0.2204    1.0000 </r>
       <r>    0.3564    1.0000 </r>
       <r>    1.1174    1.0000 </r>
       <r>    1.4251    1.0000 </r>
       <r>    1.6416    1.0000 </r>
       <r>    1.9658    1.0000 </r>
       <r>    2.1337    1.0000 </r>
       <r>    3.1256    1.0000 </r>
       <r>    3.2041    1.0000 </r>
       <r>    3.2827    1.0000 </r>
       <r>    4.3534    1.0000 </r>
       <r>    4.3847    1.0000 </r>
       <r>    4.4394    1.0000 </r>
       <r>    4.6218    1.0000 </r>
       <r>    5.0417    1.0000 </r>
       <r>    6.2552    1.0000 </r>
       <r>    6.5742    1.0000 </r>
       <r>    6.6242    1.0000 </r>
       <r>    7.3521    1.0000 </r>
       <r>    7.4153    1.0000 </r>
       <r>    7.9658    1.0000 </r>
       <r>    8.4601    1.0000 </r>
       <r>    9.0679    1.0000 </r>
       <r>    9.1309    1.0000 </r>
       <r>    9.5537    1.0000 </r>
       <r>    9.7014    1.0000 </r>
       <r>    9.9359    0.0000 </r>
       <r>   10.1217    0.0000 </r>
       <r>   10.2660    0.0000 </r>
       <r>   10.3665    0.0000 </r>
       <r>   10.8763    0.0000 </r>
       <r>   11.0142    0.0000 </r>
       <r>   11.1497    0.0000 </r>
       <r>   11.2398    0.0000 </r>
       <r>   11.3747    0.0000 </r>
       <r>   11.7950    0.0000 </r>
       <r>   12.1217    0.0000 </r>
       <r>   12.5775    0.0000 </r>
       <r>   12.7950    0.0000 </r>
       <r>   13.2302    0.0000 </r>
      </set>
      <set comment="kpoint 6">
       <r>  -56.1281    1.0000 </r>
       <r>  -55.9723    1.0000 </r>
       <r>  -55.9076    1.0000 </r>
       <r>  -55.8748    1.0000 </r>
       <r>  -53.7274    1.0000 </r>
       <r>  -53.5309    1.0000 </r>
       <r>  -33.9432    1.0000 </r>
       <r>  -33.9087    1.0000 </r>
       <r>  -33.8956    1.0000 </r>
       <r>  -33.8756    1.0000 </r>
       <r>  -30.7700    1.0000 </r>
       <r>  -30.3079    1.0000 </r>
       <r>  -29.8512    1.0000 </r>
       <r>  -28.8555    1.0000 </r>
       <r>  -28.4019    1.0000 </r>
       <r>  -28.1690    1.0000 </r>
       <r>  -28.0875    1.0000 </r>
       <r>  -27.9841    1.0000 </r>
       <r>  -27.3527    1.0000 </r>
       <r>  -26.8140    1.0000 </r>
       <r>  -26.7640    1.0000 </r>
       <r>  -26.2019    1.0000 </r>
       <r>  -25.6500    1.0000 </r>
       <r>  -24.9920    1.0000 </r>
       <r>   -2.5578    1.0000 </r>
       <r>   -1.9676    1.0000 </r>
       <r>   -1.9629    1.0000 </r>
       <r>   -1.7759    1.0000 </r>
       <r>   -1.4013    1.0000 </r>
       <r>   -0.7671    1.0000 </r>
       <r>   -0.5954    1.0000 </r>
       <r>   -0.5827    1.0000 </r>
       <r>   -0.0173    1.0000 </r>
       <r>    0.1170    1.0000 </r>
       <r>    1.3769    1.0000 </r>
       <r>    1.5918    1.0000 </r>
       <r>    1.8323    1.0000 </r>
       <r>    2.1883    1.0000 </r>
       <r>    2.3202    1.0000 </r>
       <r>    2.8808    1.0000 </r>
       <r>    3.3504    1.0000 </r>
       <r>    3.4360    1.0000 </r>
       <r>    4.1234    1.0000 </r>
       <r>    4.3253    1.0000 </r>
       <r>    4.4035    1.0000 </r>
       <r>    4.6277    1.0000 </r>
       <r>    5.0812    1.0000 </r>
       <r>    5.7948    1.0000 </r>
       <r>    6.1716    1.0000 </r>
       <r>    6.4573    1.0000 </r>
       <r>    7.2297    1.0000 </r>
       <r>    7.3835    1.0000 </r>
       <r>    7.6364    1.0000 </r>
       <r>    8.3307    1.0000 </r>
       <r>    8.9714    1.0000 </r>
       <r>    9.3946    1.0000 </r>
       <r>    9.7045    1.0000 </r>
       <r>    9.8324    0.9592 </r>
       <r>    9.9161    0.0000 </r>
       <r>   10.1954    0.0000 </r>
       <r>   10.2644    0.0000 </r>
       <r>   10.4145    0.0000 </r>
       <r>   10.7118    0.0000 </r>
       <r>   11.1121    0.0000 </r>
       <r>   11.2661    0.0000 </r>
       <r>   11.3717    0.0000 </r>
       <r>   11.5118    0.0000 </r>
       <r>   11.8705    0.0000 </r>
       <r>   12.4229    0.0000 </r>
       <r>   12.7736    0.0000 </r>
       <r>   12.9206    0.0000 </r>
       <r>   13.0932    0.0000 </r>
      </set>
      <set comment="kpoint 7">
       <r>  -56.0804    1.0000 </r>
       <r>  -56.0248    1.0000 </r>
       <r>  -55.8974    1.0000 </r>
       <r>  -55.8856    1.0000 </r>
       <r>  -53.6615    1.0000 </r>
       <r>  -53.5915    1.0000 </r>
       <r>  -33.9322    1.0000 </r>
       <r>  -33.9199    1.0000 </r>
       <r>  -33.8892    1.0000 </r>
       <r>  -33.8821    1.0000 </r>
       <r>  -30.5746    1.0000 </r>
       <r>  -30.2644    1.0000 </r>
       <r>  -29.9016    1.0000 </r>
       <r>  -29.4062    1.0000 </r>
       <r>  -28.3297    1.0000 </r>
       <r>  -28.2458    1.0000 </r>
       <r>  -28.0487    1.0000 </r>
       <r>  -28.0080    1.0000 </r>
       <r>  -26.7977    1.0000 </r>
       <r>  -26.7809    1.0000 </r>
       <r>  -26.7547    1.0000 </r>
       <r>  -26.1679    1.0000 </r>
       <r>  -25.6736    1.0000 </r>
       <r>  -25.2585    1.0000 </r>
       <r>   -2.0253    1.0000 </r>
       <r>   -1.9133    1.0000 </r>
       <r>   -1.8282    1.0000 </r>
       <r>   -1.5813    1.0000 </r>
       <r>   -1.3705    1.0000 </r>
       <r>   -1.2699    1.0000 </r>
       <r>   -0.9864    1.0000 </r>
       <r>   -0.9090    1.0000 </r>
       <r>   -0.0666    1.0000 </r>
       <r>    0.0521    1.0000 </r>
       <r>    1.7681    1.0000 </r>
       <r>    1.9386    1.0000 </r>
       <r>    2.1102    1.0000 </r>
       <r>    2.2766    1.0000 </r>
       <r>    2.4396    1.0000 </r>
       <r>    2.4985    1.0000 </r>
       <r>    3.3444    1.0000 </r>
       <r>    3.5273    1.0000 </r>
       <r>    3.6976    1.0000 </r>
       <r>    4.0473    1.0000 </r>
       <r>    4.3409    1.0000 </r>
       <r>    4.5747    1.0000 </r>
       <r>    5.5013    1.0000 </r>
       <r>    5.7329    1.0000 </r>
       <r>    6.2591    1.0000 </r>
       <r>    6.3578    1.0000 </r>
       <r>    6.6028    1.0000 </r>
       <r>    6.7357    1.0000 </r>
       <r>    8.0987    1.0000 </r>
       <r>    8.4476    1.0000 </r>
       <r>    8.8591    1.0000 </r>
       <r>    9.2376    1.0000 </r>
       <r>    9.6486    1.0000 </r>
       <r>    9.7835    1.0000 </r>
       <r>   10.0201    0.0000 </r>
       <r>   10.2628    0.0000 </r>
       <r>   10.5567    0.0000 </r>
       <r>   10.7656    0.0000 </r>
       <r>   10.8673    0.0000 </r>
       <r>   11.0260    0.0000 </r>
       <r>   11.1480    0.0000 </r>
       <r>   11.3434    0.0000 </r>
       <r>   11.7733    0.0000 </r>
       <r>   11.9122    0.0000 </r>
       <r>   12.3549    0.0000 </r>
       <r>   12.4921    0.0000 </r>
       <r>   12.8956    0.0000 </r>
       <r>   12.9263    0.0000 </r>
      </set>
      <set comment="kpoint 8">
       <r>  -56.0804    1.0000 </r>
       <r>  -56.0248    1.0000 </r>
       <r>  -55.8974    1.0000 </r>
       <r>  -55.8856    1.0000 </r>
       <r>  -53.6615    1.0000 </r>
       <r>  -53.5915    1.0000 </r>
       <r>  -33.9320    1.0000 </r>
       <r>  -33.9199    1.0000 </r>
       <r>  -33.8894    1.0000 </r>
       <r>  -33.8821    1.0000 </r>
       <r>  -30.5752    1.0000 </r>
       <r>  -30.2638    1.0000 </r>
       <r>  -29.9014    1.0000 </r>
       <r>  -29.4063    1.0000 </r>
       <r>  -28.3295    1.0000 </r>
       <r>  -28.2460    1.0000 </r>
       <r>  -28.0489    1.0000 </r>
       <r>  -28.0078    1.0000 </r>
       <r>  -26.7984    1.0000 </r>
       <r>  -26.7802    1.0000 </r>
       <r>  -26.7548    1.0000 </r>
       <r>  -26.1678    1.0000 </r>
       <r>  -25.6733    1.0000 </r>
       <r>  -25.2587    1.0000 </r>
       <r>   -2.1016    1.0000 </r>
       <r>   -1.9182    1.0000 </r>
       <r>   -1.8404    1.0000 </r>
       <r>   -1.5125    1.0000 </r>
       <r>   -1.4167    1.0000 </r>
       <r>   -1.2142    1.0000 </r>
       <r>   -0.9871    1.0000 </r>
       <r>   -0.8958    1.0000 </r>
       <r>   -0.0244    1.0000 </r>
       <r>    0.0137    1.0000 </r>
       <r>    1.7456    1.0000 </r>
       <r>    1.9954    1.0000 </r>
       <r>    2.0613    1.0000 </r>
       <r>    2.2938    1.0000 </r>
       <r>    2.3915    1.0000 </r>
       <r>    2.6568    1.0000 </r>
       <r>    3.3504    1.0000 </r>
       <r>    3.5107    1.0000 </r>
       <r>    3.8141    1.0000 </r>
       <r>    3.9557    1.0000 </r>
       <r>    4.3257    1.0000 </r>
       <r>    4.4548    1.0000 </r>
       <r>    5.4251    1.0000 </r>
       <r>    5.5470    1.0000 </r>
       <r>    6.0841    1.0000 </r>
       <r>    6.1725    1.0000 </r>
       <r>    6.8908    1.0000 </r>
       <r>    7.3569    1.0000 </r>
       <r>    8.4959    1.0000 </r>
       <r>    8.5772    1.0000 </r>
       <r>    8.7917    1.0000 </r>
       <r>    8.8389    1.0000 </r>
       <r>    9.4159    1.0000 </r>
       <r>    9.7034    1.0000 </r>
       <r>   10.0105    0.0000 </r>
       <r>   10.2385    0.0000 </r>
       <r>   10.2922    0.0000 </r>
       <r>   10.6906    0.0000 </r>
       <r>   10.7799    0.0000 </r>
       <r>   11.1137    0.0000 </r>
       <r>   11.3539    0.0000 </r>
       <r>   11.4642    0.0000 </r>
       <r>   12.0512    0.0000 </r>
       <r>   12.1870    0.0000 </r>
       <r>   12.2186    0.0000 </r>
       <r>   12.3607    0.0000 </r>
       <r>   12.5782    0.0000 </r>
       <r>   12.7207    0.0000 </r>
      </set>
      <set comment="kpoint 9">
       <r>  -56.1281    1.0000 </r>
       <r>  -55.9722    1.0000 </r>
       <r>  -55.9076    1.0000 </r>
       <r>  -55.8748    1.0000 </r>
       <r>  -53.7274    1.0000 </r>
       <r>  -53.5309    1.0000 </r>
       <r>  -33.9432    1.0000 </r>
       <r>  -33.9088    1.0000 </r>
       <r>  -33.8958    1.0000 </r>
       <r>  -33.8756    1.0000 </r>
       <r>  -30.7706    1.0000 </r>
       <r>  -30.3076    1.0000 </r>
       <r>  -29.8507    1.0000 </r>
       <r>  -28.8557    1.0000 </r>
       <r>  -28.4017    1.0000 </r>
       <r>  -28.1692    1.0000 </r>
       <r>  -28.0877    1.0000 </r>
       <r>  -27.9840    1.0000 </r>
       <r>  -27.3528    1.0000 </r>
       <r>  -26.8147    1.0000 </r>
       <r>  -26.7634    1.0000 </r>
       <r>  -26.2017    1.0000 </r>
       <r>  -25.6499    1.0000 </r>
       <r>  -24.9922    1.0000 </r>
       <r>   -2.6240    1.0000 </r>
       <r>   -2.0400    1.0000 </r>
       <r>   -1.9114    1.0000 </r>
       <r>   -1.7150    1.0000 </r>
       <r>   -1.4636    1.0000 </r>
       <r>   -0.7049    1.0000 </r>
       <r>   -0.6403    1.0000 </r>
       <r>   -0.5307    1.0000 </r>
       <r>    0.0533    1.0000 </r>
       <r>    0.0667    1.0000 </r>
       <r>    1.3671    1.0000 </r>
       <r>    1.6723    1.0000 </r>
       <r>    1.7795    1.0000 </r>
       <r>    2.2059    1.0000 </r>
       <r>    2.3471    1.0000 </r>
       <r>    2.9804    1.0000 </r>
       <r>    3.5301    1.0000 </r>
       <r>    3.6650    1.0000 </r>
       <r>    3.9131    1.0000 </r>
       <r>    4.1714    1.0000 </r>
       <r>    4.2311    1.0000 </r>
       <r>    4.3784    1.0000 </r>
       <r>    4.9978    1.0000 </r>
       <r>    5.7039    1.0000 </r>
       <r>    6.2702    1.0000 </r>
       <r>    6.3883    1.0000 </r>
       <r>    7.5599    1.0000 </r>
       <r>    7.7933    1.0000 </r>
       <r>    8.0592    1.0000 </r>
       <r>    8.6702    1.0000 </r>
       <r>    8.9602    1.0000 </r>
       <r>    9.1160    1.0000 </r>
       <r>    9.3456    1.0000 </r>
       <r>    9.4311    1.0000 </r>
       <r>    9.8075    0.9998 </r>
       <r>    9.9986    0.0000 </r>
       <r>   10.2570    0.0000 </r>
       <r>   10.5786    0.0000 </r>
       <r>   10.7670    0.0000 </r>
       <r>   11.0638    0.0000 </r>
       <r>   11.3318    0.0000 </r>
       <r>   11.5000    0.0000 </r>
       <r>   11.6947    0.0000 </r>
       <r>   12.0814    0.0000 </r>
       <r>   12.2341    0.0000 </r>
       <r>   12.3716    0.0000 </r>
       <r>   12.5903    0.0000 </r>
       <r>   13.5335    0.0000 </r>
      </set>
      <set comment="kpoint 10">
       <r>  -56.1599    1.0000 </r>
       <r>  -55.9362    1.0000 </r>
       <r>  -55.9124    1.0000 </r>
       <r>  -55.8673    1.0000 </r>
       <r>  -53.7749    1.0000 </r>
       <r>  -53.4902    1.0000 </r>
       <r>  -33.9508    1.0000 </r>
       <r>  -33.9019    1.0000 </r>
       <r>  -33.8996    1.0000 </r>
       <r>  -33.8713    1.0000 </r>
       <r>  -30.8424    1.0000 </r>
       <r>  -30.6067    1.0000 </r>
       <r>  -29.3548    1.0000 </r>
       <r>  -28.4896    1.0000 </r>
       <r>  -28.3941    1.0000 </r>
       <r>  -28.1174    1.0000 </r>
       <r>  -28.1127    1.0000 </r>
       <r>  -28.0192    1.0000 </r>
       <r>  -27.7307    1.0000 </r>
       <r>  -26.8258    1.0000 </r>
       <r>  -26.8013    1.0000 </r>
       <r>  -26.7524    1.0000 </r>
       <r>  -25.2440    1.0000 </r>
       <r>  -24.8982    1.0000 </r>
       <r>   -2.9626    1.0000 </r>
       <r>   -2.1688    1.0000 </r>
       <r>   -1.9774    1.0000 </r>
       <r>   -1.9004    1.0000 </r>
       <r>   -1.4264    1.0000 </r>
       <r>   -0.4301    1.0000 </r>
       <r>   -0.3811    1.0000 </r>
       <r>   -0.3178    1.0000 </r>
       <r>    0.1864    1.0000 </r>
       <r>    0.4123    1.0000 </r>
       <r>    1.1127    1.0000 </r>
       <r>    1.4700    1.0000 </r>
       <r>    1.6372    1.0000 </r>
       <r>    1.9710    1.0000 </r>
       <r>    2.1621    1.0000 </r>
       <r>    3.1134    1.0000 </r>
       <r>    3.2869    1.0000 </r>
       <r>    3.4412    1.0000 </r>
       <r>    4.1434    1.0000 </r>
       <r>    4.2519    1.0000 </r>
       <r>    4.3506    1.0000 </r>
       <r>    4.6451    1.0000 </r>
       <r>    4.9466    1.0000 </r>
       <r>    6.4408    1.0000 </r>
       <r>    6.4620    1.0000 </r>
       <r>    6.7305    1.0000 </r>
       <r>    7.4401    1.0000 </r>
       <r>    7.4628    1.0000 </r>
       <r>    8.2563    1.0000 </r>
       <r>    8.6873    1.0000 </r>
       <r>    8.9896    1.0000 </r>
       <r>    9.0603    1.0000 </r>
       <r>    9.4317    1.0000 </r>
       <r>    9.7848    1.0000 </r>
       <r>    9.9013    0.0009 </r>
       <r>    9.9505    0.0000 </r>
       <r>   10.1877    0.0000 </r>
       <r>   10.3215    0.0000 </r>
       <r>   10.8936    0.0000 </r>
       <r>   11.1460    0.0000 </r>
       <r>   11.1626    0.0000 </r>
       <r>   11.2901    0.0000 </r>
       <r>   11.3774    0.0000 </r>
       <r>   12.0892    0.0000 </r>
       <r>   12.1298    0.0000 </r>
       <r>   12.4620    0.0000 </r>
       <r>   12.5327    0.0000 </r>
       <r>   13.3833    0.0000 </r>
      </set>
      <set comment="kpoint 11">
       <r>  -56.1023    1.0000 </r>
       <r>  -55.9882    1.0000 </r>
       <r>  -55.9129    1.0000 </r>
       <r>  -55.8837    1.0000 </r>
       <r>  -53.6949    1.0000 </r>
       <r>  -53.5591    1.0000 </r>
       <r>  -33.9363    1.0000 </r>
       <r>  -33.9073    1.0000 </r>
       <r>  -33.8993    1.0000 </r>
       <r>  -33.8805    1.0000 </r>
       <r>  -30.8209    1.0000 </r>
       <r>  -30.2532    1.0000 </r>
       <r>  -29.9134    1.0000 </r>
       <r>  -28.4884    1.0000 </r>
       <r>  -28.3944    1.0000 </r>
       <r>  -28.1449    1.0000 </r>
       <r>  -28.1347    1.0000 </r>
       <r>  -28.1190    1.0000 </r>
       <r>  -27.6107    1.0000 </r>
       <r>  -26.8060    1.0000 </r>
       <r>  -26.7720    1.0000 </r>
       <r>  -26.1595    1.0000 </r>
       <r>  -25.6793    1.0000 </r>
       <r>  -24.9062    1.0000 </r>
       <r>   -2.2240    1.0000 </r>
       <r>   -1.9080    1.0000 </r>
       <r>   -1.7646    1.0000 </r>
       <r>   -1.7043    1.0000 </r>
       <r>   -1.4647    1.0000 </r>
       <r>   -0.9374    1.0000 </r>
       <r>   -0.6141    1.0000 </r>
       <r>   -0.5621    1.0000 </r>
       <r>   -0.4032    1.0000 </r>
       <r>   -0.0744    1.0000 </r>
       <r>    1.4025    1.0000 </r>
       <r>    1.6437    1.0000 </r>
       <r>    1.8800    1.0000 </r>
       <r>    2.2125    1.0000 </r>
       <r>    2.4441    1.0000 </r>
       <r>    2.8207    1.0000 </r>
       <r>    3.1157    1.0000 </r>
       <r>    3.5200    1.0000 </r>
       <r>    3.8413    1.0000 </r>
       <r>    4.0972    1.0000 </r>
       <r>    4.2840    1.0000 </r>
       <r>    4.8199    1.0000 </r>
       <r>    5.5842    1.0000 </r>
       <r>    5.9900    1.0000 </r>
       <r>    6.0509    1.0000 </r>
       <r>    6.3451    1.0000 </r>
       <r>    6.7483    1.0000 </r>
       <r>    7.2706    1.0000 </r>
       <r>    7.8691    1.0000 </r>
       <r>    8.0312    1.0000 </r>
       <r>    8.9061    1.0000 </r>
       <r>    9.5371    1.0000 </r>
       <r>    9.6218    1.0000 </r>
       <r>   10.0328    0.0000 </r>
       <r>   10.1446    0.0000 </r>
       <r>   10.1889    0.0000 </r>
       <r>   10.3021    0.0000 </r>
       <r>   10.5895    0.0000 </r>
       <r>   10.9362    0.0000 </r>
       <r>   10.9620    0.0000 </r>
       <r>   11.1394    0.0000 </r>
       <r>   11.3024    0.0000 </r>
       <r>   11.4509    0.0000 </r>
       <r>   11.8777    0.0000 </r>
       <r>   12.5124    0.0000 </r>
       <r>   12.6072    0.0000 </r>
       <r>   12.9377    0.0000 </r>
       <r>   13.1781    0.0000 </r>
      </set>
      <set comment="kpoint 12">
       <r>  -56.0643    1.0000 </r>
       <r>  -56.0225    1.0000 </r>
       <r>  -55.9077    1.0000 </r>
       <r>  -55.8960    1.0000 </r>
       <r>  -53.6495    1.0000 </r>
       <r>  -53.6011    1.0000 </r>
       <r>  -33.9262    1.0000 </r>
       <r>  -33.9151    1.0000 </r>
       <r>  -33.8947    1.0000 </r>
       <r>  -33.8875    1.0000 </r>
       <r>  -30.7485    1.0000 </r>
       <r>  -30.5570    1.0000 </r>
       <r>  -29.4322    1.0000 </r>
       <r>  -28.8986    1.0000 </r>
       <r>  -28.3019    1.0000 </r>
       <r>  -28.2150    1.0000 </r>
       <r>  -28.1020    1.0000 </r>
       <r>  -28.0815    1.0000 </r>
       <r>  -27.2908    1.0000 </r>
       <r>  -26.7946    1.0000 </r>
       <r>  -26.7834    1.0000 </r>
       <r>  -26.7306    1.0000 </r>
       <r>  -25.2667    1.0000 </r>
       <r>  -25.0006    1.0000 </r>
       <r>   -1.8534    1.0000 </r>
       <r>   -1.7896    1.0000 </r>
       <r>   -1.6643    1.0000 </r>
       <r>   -1.5978    1.0000 </r>
       <r>   -1.3832    1.0000 </r>
       <r>   -1.2102    1.0000 </r>
       <r>   -0.9124    1.0000 </r>
       <r>   -0.7549    1.0000 </r>
       <r>   -0.4316    1.0000 </r>
       <r>   -0.1999    1.0000 </r>
       <r>    1.5095    1.0000 </r>
       <r>    1.8087    1.0000 </r>
       <r>    2.0233    1.0000 </r>
       <r>    2.2536    1.0000 </r>
       <r>    2.4602    1.0000 </r>
       <r>    2.6349    1.0000 </r>
       <r>    3.0725    1.0000 </r>
       <r>    3.3269    1.0000 </r>
       <r>    3.7535    1.0000 </r>
       <r>    3.8366    1.0000 </r>
       <r>    4.2032    1.0000 </r>
       <r>    5.0853    1.0000 </r>
       <r>    5.5208    1.0000 </r>
       <r>    5.8271    1.0000 </r>
       <r>    6.0416    1.0000 </r>
       <r>    6.6011    1.0000 </r>
       <r>    6.8787    1.0000 </r>
       <r>    6.9692    1.0000 </r>
       <r>    8.0976    1.0000 </r>
       <r>    8.2890    1.0000 </r>
       <r>    8.9327    1.0000 </r>
       <r>    9.1907    1.0000 </r>
       <r>    9.5805    1.0000 </r>
       <r>    9.8545    0.5679 </r>
       <r>   10.0180    0.0000 </r>
       <r>   10.3838    0.0000 </r>
       <r>   10.4570    0.0000 </r>
       <r>   10.7431    0.0000 </r>
       <r>   10.9820    0.0000 </r>
       <r>   11.0894    0.0000 </r>
       <r>   11.1064    0.0000 </r>
       <r>   11.1621    0.0000 </r>
       <r>   11.8099    0.0000 </r>
       <r>   11.8916    0.0000 </r>
       <r>   12.0186    0.0000 </r>
       <r>   12.3766    0.0000 </r>
       <r>   12.9923    0.0000 </r>
       <r>   13.2080    0.0000 </r>
      </set>
      <set comment="kpoint 13">
       <r>  -56.0644    1.0000 </r>
       <r>  -56.0223    1.0000 </r>
       <r>  -55.9077    1.0000 </r>
       <r>  -55.8960    1.0000 </r>
       <r>  -53.6495    1.0000 </r>
       <r>  -53.6011    1.0000 </r>
       <r>  -33.9260    1.0000 </r>
       <r>  -33.9152    1.0000 </r>
       <r>  -33.8949    1.0000 </r>
       <r>  -33.8873    1.0000 </r>
       <r>  -30.7492    1.0000 </r>
       <r>  -30.5563    1.0000 </r>
       <r>  -29.4322    1.0000 </r>
       <r>  -28.8985    1.0000 </r>
       <r>  -28.3015    1.0000 </r>
       <r>  -28.2155    1.0000 </r>
       <r>  -28.1024    1.0000 </r>
       <r>  -28.0811    1.0000 </r>
       <r>  -27.2909    1.0000 </r>
       <r>  -26.7959    1.0000 </r>
       <r>  -26.7820    1.0000 </r>
       <r>  -26.7306    1.0000 </r>
       <r>  -25.2665    1.0000 </r>
       <r>  -25.0007    1.0000 </r>
       <r>   -1.9477    1.0000 </r>
       <r>   -1.7562    1.0000 </r>
       <r>   -1.7263    1.0000 </r>
       <r>   -1.5526    1.0000 </r>
       <r>   -1.4766    1.0000 </r>
       <r>   -1.0489    1.0000 </r>
       <r>   -0.9062    1.0000 </r>
       <r>   -0.7599    1.0000 </r>
       <r>   -0.3628    1.0000 </r>
       <r>   -0.2593    1.0000 </r>
       <r>    1.6550    1.0000 </r>
       <r>    1.7449    1.0000 </r>
       <r>    1.9798    1.0000 </r>
       <r>    2.1761    1.0000 </r>
       <r>    2.3577    1.0000 </r>
       <r>    3.0277    1.0000 </r>
       <r>    3.0438    1.0000 </r>
       <r>    3.2859    1.0000 </r>
       <r>    3.7784    1.0000 </r>
       <r>    3.8984    1.0000 </r>
       <r>    4.0665    1.0000 </r>
       <r>    5.0287    1.0000 </r>
       <r>    5.1786    1.0000 </r>
       <r>    5.7522    1.0000 </r>
       <r>    6.0130    1.0000 </r>
       <r>    6.0261    1.0000 </r>
       <r>    7.7085    1.0000 </r>
       <r>    7.7497    1.0000 </r>
       <r>    8.2392    1.0000 </r>
       <r>    8.7863    1.0000 </r>
       <r>    8.8106    1.0000 </r>
       <r>    8.9452    1.0000 </r>
       <r>    9.1701    1.0000 </r>
       <r>    9.6582    1.0000 </r>
       <r>    9.8252    0.9876 </r>
       <r>   10.0803    0.0000 </r>
       <r>   10.2934    0.0000 </r>
       <r>   10.7245    0.0000 </r>
       <r>   10.7579    0.0000 </r>
       <r>   11.0381    0.0000 </r>
       <r>   11.2999    0.0000 </r>
       <r>   11.3798    0.0000 </r>
       <r>   11.5081    0.0000 </r>
       <r>   12.1942    0.0000 </r>
       <r>   12.3885    0.0000 </r>
       <r>   12.5053    0.0000 </r>
       <r>   12.6521    0.0000 </r>
       <r>   12.9880    0.0000 </r>
      </set>
      <set comment="kpoint 14">
       <r>  -56.1023    1.0000 </r>
       <r>  -55.9880    1.0000 </r>
       <r>  -55.9130    1.0000 </r>
       <r>  -55.8837    1.0000 </r>
       <r>  -53.6949    1.0000 </r>
       <r>  -53.5591    1.0000 </r>
       <r>  -33.9360    1.0000 </r>
[...]
       <r>   10.6773    0.0000 </r>
       <r>   11.1857    0.0000 </r>
       <r>   11.2596    0.0000 </r>
       <r>   11.3605    0.0000 </r>
       <r>   11.3855    0.0000 </r>
       <r>   11.7762    0.0000 </r>
       <r>   11.7872    0.0000 </r>
       <r>   12.5097    0.0000 </r>
       <r>   12.6457    0.0000 </r>
       <r>   13.2068    0.0000 </r>
       <r>   13.9624    0.0000 </r>
      </set>
      <set comment="kpoint 116">
       <r>  -56.1769    1.0000 </r>
       <r>  -55.9185    1.0000 </r>
       <r>  -55.9123    1.0000 </r>
       <r>  -55.8633    1.0000 </r>
       <r>  -53.8019    1.0000 </r>
       <r>  -53.4679    1.0000 </r>
       <r>  -33.9552    1.0000 </r>
       <r>  -33.8998    1.0000 </r>
       <r>  -33.8992    1.0000 </r>
       <r>  -33.8692    1.0000 </r>
       <r>  -30.8488    1.0000 </r>
       <r>  -30.7890    1.0000 </r>
       <r>  -28.8063    1.0000 </r>
       <r>  -28.4919    1.0000 </r>
       <r>  -28.3943    1.0000 </r>
       <r>  -28.1078    1.0000 </r>
       <r>  -28.1065    1.0000 </r>
       <r>  -27.9543    1.0000 </r>
       <r>  -27.8018    1.0000 </r>
       <r>  -27.4218    1.0000 </r>
       <r>  -26.8302    1.0000 </r>
       <r>  -26.7481    1.0000 </r>
       <r>  -24.9840    1.0000 </r>
       <r>  -24.8953    1.0000 </r>
       <r>   -2.9292    1.0000 </r>
       <r>   -2.1771    1.0000 </r>
       <r>   -2.1610    1.0000 </r>
       <r>   -2.0002    1.0000 </r>
       <r>   -1.1762    1.0000 </r>
       <r>   -0.4153    1.0000 </r>
       <r>   -0.3659    1.0000 </r>
       <r>   -0.1715    1.0000 </r>
       <r>    0.4906    1.0000 </r>
       <r>    0.5741    1.0000 </r>
       <r>    1.0294    1.0000 </r>
       <r>    1.2082    1.0000 </r>
       <r>    1.3916    1.0000 </r>
       <r>    1.6083    1.0000 </r>
       <r>    1.8021    1.0000 </r>
       <r>    2.4767    1.0000 </r>
       <r>    3.1488    1.0000 </r>
       <r>    3.1946    1.0000 </r>
       <r>    4.5180    1.0000 </r>
       <r>    4.7393    1.0000 </r>
       <r>    5.2420    1.0000 </r>
       <r>    5.4825    1.0000 </r>
       <r>    5.5809    1.0000 </r>
       <r>    5.7830    1.0000 </r>
       <r>    6.5171    1.0000 </r>
       <r>    6.6706    1.0000 </r>
       <r>    7.0121    1.0000 </r>
       <r>    7.2289    1.0000 </r>
       <r>    7.4046    1.0000 </r>
       <r>    7.9337    1.0000 </r>
       <r>    8.5225    1.0000 </r>
       <r>    9.5103    1.0000 </r>
       <r>    9.5795    1.0000 </r>
       <r>    9.6384    1.0000 </r>
       <r>    9.7991    1.0000 </r>
       <r>    9.9172    0.0000 </r>
       <r>   10.0024    0.0000 </r>
       <r>   10.6855    0.0000 </r>
       <r>   11.2444    0.0000 </r>
       <r>   11.2472    0.0000 </r>
       <r>   11.3785    0.0000 </r>
       <r>   11.4303    0.0000 </r>
       <r>   11.8461    0.0000 </r>
       <r>   11.8603    0.0000 </r>
       <r>   12.4615    0.0000 </r>
       <r>   12.6115    0.0000 </r>
       <r>   13.2803    0.0000 </r>
       <r>   14.0587    0.0000 </r>
      </set>
     </set>
    </set>
   </array>
  </eigenvalues>
  <separator name="orbital magnetization" >
   <v name="MAGDIPOLOUT">      0.00000000      0.00000000      0.00000000</v>
  </separator>
  <dos>
   <i name="efermi">      9.85696891 </i>
   <total>
    <array>
     <dimension dim="1">gridpoints</dimension>
     <dimension dim="2">spin</dimension>
     <field>energy</field>
     <field>total</field>
     <field>integrated</field>
     <set>
      <set comment="spin 1">
       <r>   -59.7126     0.0000     0.0000 </r>
       <r>   -59.4538     0.0000     0.0000 </r>
       <r>   -59.1949     0.0000     0.0000 </r>
       <r>   -58.9361     0.0000     0.0000 </r>
       <r>   -58.6772     0.0000     0.0000 </r>
       <r>   -58.4184     0.0000     0.0000 </r>
       <r>   -58.1595     0.0000     0.0000 </r>
       <r>   -57.9007     0.0000     0.0000 </r>
       <r>   -57.6418     0.0000     0.0000 </r>
       <r>   -57.3830     0.0000     0.0000 </r>
       <r>   -57.1241     0.0000     0.0000 </r>
       <r>   -56.8653     0.0000     0.0000 </r>
       <r>   -56.6064     0.0000     0.0000 </r>
       <r>   -56.3476     0.0000     0.0000 </r>
       <r>   -56.0887     4.5978     1.1901 </r>
       <r>   -55.8299    18.7731     7.9972 </r>
       <r>   -55.5710     0.0000     8.0000 </r>
       <r>   -55.3122     0.0000     8.0000 </r>
       <r>   -55.0533     0.0000     8.0000 </r>
       <r>   -54.7945     0.0000     8.0000 </r>
       <r>   -54.5356     0.0000     8.0000 </r>
       <r>   -54.2768     0.0000     8.0000 </r>
       <r>   -54.0179     0.0000     8.0000 </r>
       <r>   -53.7591     1.4521     8.3759 </r>
       <r>   -53.5002     8.9375    11.6553 </r>
       <r>   -53.2414     0.0000    12.0000 </r>
       <r>   -52.9825     0.0000    12.0000 </r>
       <r>   -52.7237     0.0000    12.0000 </r>
       <r>   -52.4648     0.0000    12.0000 </r>
       <r>   -52.2060     0.0000    12.0000 </r>
       <r>   -51.9471     0.0000    12.0000 </r>
       <r>   -51.6883     0.0000    12.0000 </r>
       <r>   -51.4294     0.0000    12.0000 </r>
       <r>   -51.1706     0.0000    12.0000 </r>
       <r>   -50.9117     0.0000    12.0000 </r>
       <r>   -50.6529     0.0000    12.0000 </r>
       <r>   -50.3940     0.0000    12.0000 </r>
       <r>   -50.1352     0.0000    12.0000 </r>
       <r>   -49.8763     0.0000    12.0000 </r>
       <r>   -49.6175     0.0000    12.0000 </r>
       <r>   -49.3586     0.0000    12.0000 </r>
       <r>   -49.0998     0.0000    12.0000 </r>
       <r>   -48.8409     0.0000    12.0000 </r>
       <r>   -48.5821     0.0000    12.0000 </r>
       <r>   -48.3232     0.0000    12.0000 </r>
       <r>   -48.0644     0.0000    12.0000 </r>
       <r>   -47.8055     0.0000    12.0000 </r>
       <r>   -47.5467     0.0000    12.0000 </r>
       <r>   -47.2878     0.0000    12.0000 </r>
       <r>   -47.0290     0.0000    12.0000 </r>
       <r>   -46.7701     0.0000    12.0000 </r>
       <r>   -46.5113     0.0000    12.0000 </r>
       <r>   -46.2524     0.0000    12.0000 </r>
       <r>   -45.9936     0.0000    12.0000 </r>
       <r>   -45.7347     0.0000    12.0000 </r>
       <r>   -45.4759     0.0000    12.0000 </r>
       <r>   -45.2170     0.0000    12.0000 </r>
       <r>   -44.9582     0.0000    12.0000 </r>
       <r>   -44.6993     0.0000    12.0000 </r>
       <r>   -44.4405     0.0000    12.0000 </r>
       <r>   -44.1816     0.0000    12.0000 </r>
       <r>   -43.9228     0.0000    12.0000 </r>
       <r>   -43.6639     0.0000    12.0000 </r>
       <r>   -43.4051     0.0000    12.0000 </r>
       <r>   -43.1462     0.0000    12.0000 </r>
       <r>   -42.8874     0.0000    12.0000 </r>
       <r>   -42.6285     0.0000    12.0000 </r>
       <r>   -42.3697     0.0000    12.0000 </r>
       <r>   -42.1108     0.0000    12.0000 </r>
       <r>   -41.8520     0.0000    12.0000 </r>
       <r>   -41.5931     0.0000    12.0000 </r>
       <r>   -41.3343     0.0000    12.0000 </r>
       <r>   -41.0754     0.0000    12.0000 </r>
       <r>   -40.8166     0.0000    12.0000 </r>
       <r>   -40.5577     0.0000    12.0000 </r>
       <r>   -40.2989     0.0000    12.0000 </r>
       <r>   -40.0400     0.0000    12.0000 </r>
       <r>   -39.7812     0.0000    12.0000 </r>
       <r>   -39.5223     0.0000    12.0000 </r>
       <r>   -39.2635     0.0000    12.0000 </r>
       <r>   -39.0046     0.0000    12.0000 </r>
       <r>   -38.7458     0.0000    12.0000 </r>
       <r>   -38.4869     0.0000    12.0000 </r>
       <r>   -38.2281     0.0000    12.0000 </r>
       <r>   -37.9692     0.0000    12.0000 </r>
       <r>   -37.7104     0.0000    12.0000 </r>
       <r>   -37.4515     0.0000    12.0000 </r>
       <r>   -37.1927     0.0000    12.0000 </r>
       <r>   -36.9338     0.0000    12.0000 </r>
       <r>   -36.6750     0.0000    12.0000 </r>
       <r>   -36.4161     0.0000    12.0000 </r>
       <r>   -36.1573     0.0000    12.0000 </r>
       <r>   -35.8984     0.0000    12.0000 </r>
       <r>   -35.6396     0.0000    12.0000 </r>
       <r>   -35.3807     0.0000    12.0000 </r>
       <r>   -35.1219     0.0000    12.0000 </r>
       <r>   -34.8630     0.0000    12.0000 </r>
       <r>   -34.6042     0.0000    12.0000 </r>
       <r>   -34.3453     0.0000    12.0000 </r>
       <r>   -34.0865     0.0000    12.0000 </r>
       <r>   -33.8276    30.9031    19.9992 </r>
       <r>   -33.5688     0.0000    20.0000 </r>
       <r>   -33.3099     0.0000    20.0000 </r>
       <r>   -33.0511     0.0000    20.0000 </r>
       <r>   -32.7922     0.0000    20.0000 </r>
       <r>   -32.5334     0.0000    20.0000 </r>
       <r>   -32.2745     0.0000    20.0000 </r>
       <r>   -32.0157     0.0000    20.0000 </r>
       <r>   -31.7568     0.0000    20.0000 </r>
       <r>   -31.4980     0.0000    20.0000 </r>
       <r>   -31.2392     0.0000    20.0000 </r>
       <r>   -30.9803     0.0000    20.0000 </r>
       <r>   -30.7215     6.1140    21.5826 </r>
       <r>   -30.4626     3.6498    22.8223 </r>
       <r>   -30.2038     3.2213    23.8338 </r>
       <r>   -29.9449     0.8928    24.2107 </r>
       <r>   -29.6861     0.6060    25.0854 </r>
       <r>   -29.4272     1.1118    25.5021 </r>
       <r>   -29.1684     0.6608    26.2425 </r>
       <r>   -28.9095     0.9883    26.6130 </r>
       <r>   -28.6507     1.0846    27.3930 </r>
       <r>   -28.3918     4.8225    28.7687 </r>
       <r>   -28.1330     8.9716    32.1743 </r>
       <r>   -27.8741     5.4661    36.0016 </r>
       <r>   -27.6153     0.9206    36.3199 </r>
       <r>   -27.3564     1.7240    37.0789 </r>
       <r>   -27.0976     0.5571    37.6748 </r>
       <r>   -26.8387     0.9654    38.0356 </r>
       <r>   -26.5799     1.2078    42.7718 </r>
       <r>   -26.3210     0.6505    43.0051 </r>
       <r>   -26.0622     2.8694    43.8142 </r>
       <r>   -25.8033     0.6419    44.0947 </r>
       <r>   -25.5445     3.1024    45.0173 </r>
       <r>   -25.2856     0.9238    45.3820 </r>
       <r>   -25.0268     1.5959    46.4947 </r>
       <r>   -24.7679     2.2076    48.0000 </r>
       <r>   -24.5091     0.0000    48.0000 </r>
       <r>   -24.2502     0.0000    48.0000 </r>
       <r>   -23.9914     0.0000    48.0000 </r>
       <r>   -23.7325     0.0000    48.0000 </r>
       <r>   -23.4737     0.0000    48.0000 </r>
       <r>   -23.2148     0.0000    48.0000 </r>
       <r>   -22.9560     0.0000    48.0000 </r>
       <r>   -22.6971     0.0000    48.0000 </r>
       <r>   -22.4383     0.0000    48.0000 </r>
       <r>   -22.1794     0.0000    48.0000 </r>
       <r>   -21.9206     0.0000    48.0000 </r>
       <r>   -21.6617     0.0000    48.0000 </r>
       <r>   -21.4029     0.0000    48.0000 </r>
       <r>   -21.1440     0.0000    48.0000 </r>
       <r>   -20.8852     0.0000    48.0000 </r>
       <r>   -20.6263     0.0000    48.0000 </r>
       <r>   -20.3675     0.0000    48.0000 </r>
       <r>   -20.1086     0.0000    48.0000 </r>
       <r>   -19.8498     0.0000    48.0000 </r>
       <r>   -19.5909     0.0000    48.0000 </r>
       <r>   -19.3321     0.0000    48.0000 </r>
       <r>   -19.0732     0.0000    48.0000 </r>
       <r>   -18.8144     0.0000    48.0000 </r>
       <r>   -18.5555     0.0000    48.0000 </r>
       <r>   -18.2967     0.0000    48.0000 </r>
       <r>   -18.0378     0.0000    48.0000 </r>
       <r>   -17.7790     0.0000    48.0000 </r>
       <r>   -17.5201     0.0000    48.0000 </r>
       <r>   -17.2613     0.0000    48.0000 </r>
       <r>   -17.0024     0.0000    48.0000 </r>
       <r>   -16.7436     0.0000    48.0000 </r>
       <r>   -16.4847     0.0000    48.0000 </r>
       <r>   -16.2259     0.0000    48.0000 </r>
       <r>   -15.9670     0.0000    48.0000 </r>
       <r>   -15.7082     0.0000    48.0000 </r>
       <r>   -15.4493     0.0000    48.0000 </r>
       <r>   -15.1905     0.0000    48.0000 </r>
       <r>   -14.9316     0.0000    48.0000 </r>
       <r>   -14.6728     0.0000    48.0000 </r>
       <r>   -14.4139     0.0000    48.0000 </r>
       <r>   -14.1551     0.0000    48.0000 </r>
       <r>   -13.8962     0.0000    48.0000 </r>
       <r>   -13.6374     0.0000    48.0000 </r>
       <r>   -13.3785     0.0000    48.0000 </r>
       <r>   -13.1197     0.0000    48.0000 </r>
       <r>   -12.8608     0.0000    48.0000 </r>
       <r>   -12.6020     0.0000    48.0000 </r>
       <r>   -12.3431     0.0000    48.0000 </r>
       <r>   -12.0843     0.0000    48.0000 </r>
       <r>   -11.8254     0.0000    48.0000 </r>
       <r>   -11.5666     0.0000    48.0000 </r>
       <r>   -11.3077     0.0000    48.0000 </r>
       <r>   -11.0489     0.0000    48.0000 </r>
       <r>   -10.7900     0.0000    48.0000 </r>
       <r>   -10.5312     0.0000    48.0000 </r>
       <r>   -10.2723     0.0000    48.0000 </r>
       <r>   -10.0135     0.0000    48.0000 </r>
       <r>    -9.7546     0.0000    48.0000 </r>
       <r>    -9.4958     0.0000    48.0000 </r>
       <r>    -9.2369     0.0000    48.0000 </r>
       <r>    -8.9781     0.0000    48.0000 </r>
       <r>    -8.7192     0.0000    48.0000 </r>
       <r>    -8.4604     0.0000    48.0000 </r>
       <r>    -8.2015     0.0000    48.0000 </r>
       <r>    -7.9427     0.0000    48.0000 </r>
       <r>    -7.6838     0.0000    48.0000 </r>
       <r>    -7.4250     0.0000    48.0000 </r>
       <r>    -7.1661     0.0000    48.0000 </r>
       <r>    -6.9073     0.0000    48.0000 </r>
       <r>    -6.6484     0.0000    48.0000 </r>
       <r>    -6.3896     0.0000    48.0000 </r>
       <r>    -6.1307     0.0000    48.0000 </r>
       <r>    -5.8719     0.0000    48.0000 </r>
       <r>    -5.6130     0.0000    48.0000 </r>
       <r>    -5.3542     0.0000    48.0000 </r>
       <r>    -5.0953     0.0000    48.0000 </r>
       <r>    -4.8365     0.0000    48.0000 </r>
       <r>    -4.5776     0.0000    48.0000 </r>
       <r>    -4.3188     0.0000    48.0000 </r>
       <r>    -4.0599     0.0000    48.0000 </r>
       <r>    -3.8011     0.0000    48.0000 </r>
       <r>    -3.5422     0.0000    48.0000 </r>
       <r>    -3.2834     0.0000    48.0000 </r>
       <r>    -3.0245     0.3410    48.0934 </r>
       <r>    -2.7657     0.5474    48.3509 </r>
       <r>    -2.5068     0.7244    48.6926 </r>
       <r>    -2.2480     1.1005    49.0145 </r>
       <r>    -1.9891     5.8211    50.8231 </r>
       <r>    -1.7303     7.5102    54.0869 </r>
       <r>    -1.4714     4.2607    56.2151 </r>
       <r>    -1.2126     4.1851    58.1598 </r>
       <r>    -0.9537     4.2559    59.7037 </r>
       <r>    -0.6949     4.7014    61.6710 </r>
       <r>    -0.4360     4.1604    63.5820 </r>
       <r>    -0.1772     3.5987    65.1509 </r>
       <r>     0.0817     3.6114    66.3838 </r>
       <r>     0.3405     2.1396    67.5844 </r>
       <r>     0.5994     0.4824    67.8851 </r>
       <r>     0.8582     0.1183    67.9745 </r>
       <r>     1.1171     0.8704    68.2100 </r>
       <r>     1.3759     2.4511    69.0886 </r>
       <r>     1.6348     3.5684    70.6023 </r>
       <r>     1.8936     4.5266    72.5952 </r>
       <r>     2.1525     4.2828    74.7260 </r>
       <r>     2.4113     5.6705    77.2484 </r>
       <r>     2.6702     3.1430    78.7013 </r>
       <r>     2.9290     2.0537    79.5928 </r>
       <r>     3.1879     4.5765    81.3122 </r>
       <r>     3.4467     4.0340    83.2024 </r>
       <r>     3.7056     3.1086    84.5241 </r>
       <r>     3.9644     4.1793    85.9849 </r>
       <r>     4.2233     2.7292    87.0483 </r>
       <r>     4.4821     4.5219    88.8593 </r>
       <r>     4.7410     3.3041    90.4930 </r>
       <r>     4.9998     2.0548    91.3992 </r>
       <r>     5.2586     3.0386    92.5621 </r>
       <r>     5.5175     3.3412    93.7424 </r>
       <r>     5.7763     3.6510    95.1644 </r>
       <r>     6.0352     2.8092    96.4210 </r>
       <r>     6.2940     3.9113    98.1094 </r>
       <r>     6.5529     3.5911    99.6285 </r>
       <r>     6.8117     2.4385   100.7128 </r>
       <r>     7.0706     2.3655   101.7960 </r>
       <r>     7.3294     2.6474   102.7363 </r>
       <r>     7.5883     2.1816   103.8096 </r>
       <r>     7.8471     2.0205   104.5995 </r>
       <r>     8.1060     2.4279   105.7611 </r>
       <r>     8.3648     1.8977   106.4912 </r>
       <r>     8.6237     2.2341   107.5477 </r>
       <r>     8.8825     2.3494   108.5979 </r>
       <r>     9.1414     3.8914   110.2318 </r>
       <r>     9.4002     3.6906   111.7665 </r>
       <r>     9.6591     5.7008   114.0777 </r>
       <r>     9.9179     6.0420   116.5181 </r>
       <r>    10.1768     6.4723   118.7876 </r>
       <r>    10.4356     6.3973   121.5386 </r>
       <r>    10.6945     5.0472   123.8626 </r>
       <r>    10.9533     5.7438   126.2062 </r>
       <r>    11.2122     7.2951   129.0159 </r>
       <r>    11.4710     6.9826   132.2309 </r>
       <r>    11.7299     3.4821   133.7636 </r>
       <r>    11.9887     3.7255   135.1633 </r>
       <r>    12.2476     4.9238   137.1266 </r>
       <r>    12.5064     4.5938   138.9289 </r>
       <r>    12.7653     3.5707   140.7049 </r>
       <r>    13.0241     3.2531   142.0768 </r>
       <r>    13.2830     2.3778   143.0441 </r>
       <r>    13.5418     1.2423   143.6940 </r>
       <r>    13.8007     0.4996   143.9048 </r>
       <r>    14.0595     0.2571   143.9849 </r>
       <r>    14.3184     0.0000   143.9898 </r>
       <r>    14.5772     0.0000   144.0000 </r>
       <r>    14.8361     0.0000   144.0000 </r>
       <r>    15.0949     0.0000   144.0000 </r>
       <r>    15.3538     0.0000   144.0000 </r>
       <r>    15.6126     0.0000   144.0000 </r>
       <r>    15.8715     0.0000   144.0000 </r>
       <r>    16.1303     0.0000   144.0000 </r>
       <r>    16.3892     0.0000   144.0000 </r>
       <r>    16.6480     0.0000   144.0000 </r>
       <r>    16.9069     0.0000   144.0000 </r>
       <r>    17.1657     0.0000   144.0000 </r>
       <r>    17.4246     0.0000   144.0000 </r>
       <r>    17.6834     0.0000   144.0000 </r>
       <r>    17.9423     0.0000   144.0000 </r>
      </set>
     </set>
    </array>
   </total>
  </dos>
 </calculation>
 <structure name="finalpos" >
  <crystal>
   <varray name="basis" >
    <v>       5.38227442       0.00000000      -3.47183091 </v>
    <v>      -1.59841352       5.13945057      -3.47183091 </v>
    <v>       0.00000000       0.00000000       6.40488000 </v>
   </varray>
   <i name="volume">    177.17136371 </i>
   <varray name="rec_basis" >
    <v>       0.18579506       0.05778387       0.00000000 </v>
    <v>       0.00000000       0.19457333       0.00000000 </v>
    <v>       0.10071212       0.13679281       0.15613095 </v>
   </varray>
  </crystal>
  <varray name="positions" >
   <v>       0.11031000       0.61031000       0.98119000 </v>
   <v>       0.88969000       0.38969000       0.01881000 </v>
   <v>       0.61031000       0.62912000       0.50000000 </v>
   <v>       0.38969000       0.37088000       0.50000000 </v>
   <v>       0.62912000       0.12912000       0.01881000 </v>
   <v>       0.37088000       0.87088000       0.98119000 </v>
   <v>       0.12912000       0.11031000       0.50000000 </v>
   <v>       0.87088000       0.88969000       0.50000000 </v>
   <v>       0.25000000       0.25000000       0.00000000 </v>
   <v>       0.50000000       0.00000000       0.00000000 </v>
   <v>       0.75000000       0.75000000       0.00000000 </v>
   <v>       0.00000000       0.00000000       0.50000000 </v>
   <v>       0.00000000       0.50000000       0.00000000 </v>
   <v>       0.50000000       0.50000000       0.50000000 </v>
   <v>       0.75000000       0.25000000       0.50000000 </v>
   <v>       0.25000000       0.75000000       0.50000000 </v>
  </varray>
 </structure>
</modeling>
