<?xml version="1.0" encoding="ISO-8859-1"?>
<modeling>
 <generator>
  <i name="program" type="string">vasp </i>
  <i name="version" type="string">6.2.0  </i>
  <i name="subversion" type="string">18Jan21 (build Jan 05 2022 15:41:44) complex                          parallel </i>
  <i name="platform" type="string">LinuxIFC </i>
  <i name="date" type="string">2025 05 07 </i>
  <i name="time" type="string">16:02:01 </i>
 </generator>
 <incar>
  <i type="string" name="SYSTEM">routine with relax: pwdword</i>
  <i type="string" name="PREC">Acc</i>
  <i type="int" name="IALGO">    38</i>
  <i type="string" name="ALGO">A</i>
  <i type="logical" name="ADDGRID"> T  </i>
  <i type="int" name="ICHARG">     2</i>
  <i type="int" name="NELM">   100</i>
  <i type="int" name="NELMIN">     6</i>
  <i name="EDIFF">      0.00000000</i>
  <i type="int" name="NSW">     0</i>
  <i type="int" name="ISIF">    -1</i>
  <i name="SYMPREC">      0.00010000</i>
  <i name="ENCUT">    600.00000000</i>
  <i type="logical" name="LREAL"> F  </i>
  <i type="int" name="ISMEAR">     0</i>
  <i name="SIGMA">      0.02000000</i>
  <i type="logical" name="LASPH"> T  </i>
  <i type="string" name="METAGGA">R2SCAN</i>
  <i type="logical" name="LMIXTAU"> F  </i>
 </incar>
 <primitive_cell>
  <structure name="primitive_cell" >
   <crystal>
    <varray name="basis" >
     <v>       6.71846264       0.00000000      -2.43536567 </v>
     <v>      -3.30325912       5.85031788      -2.43536567 </v>
     <v>       0.00000000       0.00000000       7.14624000 </v>
    </varray>
    <i name="volume">    280.88397878 </i>
    <varray name="rec_basis" >
     <v>       0.14884358       0.08404140       0.00000000 </v>
     <v>       0.00000000       0.17093088       0.00000000 </v>
     <v>       0.05072437       0.08689195       0.13993373 </v>
    </varray>
   </crystal>
   <varray name="positions" >
    <v>       0.26905000       0.23095000       0.50000000 </v>
    <v>       0.73095000       0.76905000       0.50000000 </v>
    <v>       0.23095000       0.73095000       0.96191000 </v>
    <v>       0.76905000       0.26905000       0.03809000 </v>
    <v>       0.25000000       0.25000000       1.00000000 </v>
    <v>       0.00000000       0.50000000       0.50000000 </v>
    <v>       0.75000000       0.75000000       1.00000000 </v>
    <v>       0.50000000       0.00000000       0.50000000 </v>
    <v>       0.67050000       0.17050000       0.84100000 </v>
    <v>       0.32950000       0.82950000       0.15900000 </v>
    <v>       0.17050000       0.32950000       0.50000000 </v>
    <v>       0.82950000       0.67050000       0.50000000 </v>
   </varray>
  </structure>
  <varray name="primitive_index" >
   <v type="int" >        1 </v>
   <v type="int" >        2 </v>
   <v type="int" >        3 </v>
   <v type="int" >        4 </v>
   <v type="int" >        5 </v>
   <v type="int" >        6 </v>
   <v type="int" >        7 </v>
   <v type="int" >        8 </v>
   <v type="int" >        9 </v>
   <v type="int" >       10 </v>
   <v type="int" >       11 </v>
   <v type="int" >       12 </v>
  </varray>
 </primitive_cell>
 <kpoints>
  <generation param="Gamma">
   <v type="int" name="divisions">       6        6        6 </v>
   <v name="usershift">      0.00000000       0.00000000       0.00000000 </v>
   <v name="genvec1">      0.16666667       0.00000000       0.00000000 </v>
   <v name="genvec2">      0.00000000       0.16666667       0.00000000 </v>
   <v name="genvec3">      0.00000000       0.00000000       0.16666667 </v>
   <v name="shift">      0.00000000       0.00000000       0.00000000 </v>
  </generation>
  <varray name="kpointlist" >
   <v>       0.00000000       0.00000000       0.00000000 </v>
   <v>       0.16666667       0.00000000       0.00000000 </v>
   <v>       0.33333333      -0.00000000       0.00000000 </v>
   <v>       0.50000000       0.00000000       0.00000000 </v>
   <v>       0.16666667       0.16666667       0.00000000 </v>
   <v>       0.33333333       0.16666667       0.00000000 </v>
   <v>       0.50000000       0.16666667       0.00000000 </v>
   <v>      -0.33333333       0.16666667       0.00000000 </v>
   <v>      -0.16666667       0.16666667       0.00000000 </v>
   <v>       0.33333333       0.33333333       0.00000000 </v>
   <v>       0.50000000       0.33333333       0.00000000 </v>
   <v>      -0.33333333       0.33333333       0.00000000 </v>
   <v>       0.50000000       0.50000000       0.00000000 </v>
   <v>       0.16666667       0.16666667       0.16666667 </v>
   <v>       0.33333333       0.16666667       0.16666667 </v>
   <v>      -0.16666667       0.16666667       0.16666667 </v>
   <v>       0.33333333       0.33333333       0.16666667 </v>
   <v>      -0.33333333       0.33333333       0.16666667 </v>
   <v>      -0.16666667       0.33333333       0.16666667 </v>
   <v>       0.50000000       0.50000000       0.16666667 </v>
   <v>      -0.33333333       0.50000000       0.16666667 </v>
   <v>      -0.16666667       0.50000000       0.16666667 </v>
   <v>      -0.33333333      -0.33333333       0.16666667 </v>
   <v>      -0.16666667      -0.33333333       0.16666667 </v>
   <v>      -0.16666667      -0.16666667       0.16666667 </v>
   <v>      -0.33333333       0.33333333       0.33333333 </v>
   <v>       0.50000000       0.50000000       0.33333333 </v>
   <v>      -0.33333333       0.50000000       0.33333333 </v>
   <v>      -0.33333333      -0.33333333       0.33333333 </v>
   <v>       0.50000000       0.50000000       0.50000000 </v>
  </varray>
  <varray name="weights" >
   <v>       0.00462963 </v>
   <v>       0.03703704 </v>
   <v>       0.03703704 </v>
   <v>       0.01851852 </v>
   <v>       0.03703704 </v>
   <v>       0.07407407 </v>
   <v>       0.07407407 </v>
   <v>       0.07407407 </v>
   <v>       0.01851852 </v>
   <v>       0.03703704 </v>
   <v>       0.07407407 </v>
   <v>       0.01851852 </v>
   <v>       0.00925926 </v>
   <v>       0.03703704 </v>
   <v>       0.03703704 </v>
   <v>       0.01851852 </v>
   <v>       0.01851852 </v>
   <v>       0.03703704 </v>
   <v>       0.03703704 </v>
   <v>       0.01851852 </v>
   <v>       0.07407407 </v>
   <v>       0.03703704 </v>
   <v>       0.03703704 </v>
   <v>       0.03703704 </v>
   <v>       0.00925926 </v>
   <v>       0.01851852 </v>
   <v>       0.01851852 </v>
   <v>       0.03703704 </v>
   <v>       0.00925926 </v>
   <v>       0.00462963 </v>
  </varray>
 </kpoints>
 <parameters>
  <separator name="general" >
   <i type="string" name="SYSTEM">routine with relax: pwdword</i>
   <i type="logical" name="LCOMPAT"> F  </i>
  </separator>
  <separator name="electronic" >
   <i type="string" name="PREC">acc</i>
   <i name="ENMAX">    600.00000000</i>
   <i name="ENAUG">    535.51400000</i>
   <i name="EDIFF">      0.00000000</i>
   <i type="int" name="IALGO">    58</i>
   <i type="int" name="IWAVPR">    10</i>
   <i type="int" name="NBANDS">    54</i>
   <i type="int" name="NBANDSLOW">    -1</i>
   <i type="int" name="NBANDSHIGH">    -1</i>
   <i name="NELECT">     84.00000000</i>
   <i type="int" name="TURBO">     0</i>
   <i type="int" name="IRESTART">     0</i>
   <i type="int" name="NREBOOT">     0</i>
   <i type="int" name="NMIN">     0</i>
   <i name="EREF">      0.00000000</i>
   <separator name="electronic smearing" >
    <i type="int" name="ISMEAR">     0</i>
    <i name="SIGMA">      0.02000000</i>
    <i name="KSPACING">      0.50000000</i>
    <i type="logical" name="KGAMMA"> T  </i>
    <i type="logical" name="KBLOWUP"> T  </i>
   </separator>
   <separator name="electronic projectors" >
    <i type="logical" name="LREAL"> F  </i>
    <v name="ROPT">      0.00000000      0.00000000      0.00000000</v>
    <i type="int" name="LMAXPAW">  -100</i>
    <i type="int" name="LMAXMIX">     2</i>
    <i type="logical" name="NLSPLINE"> F  </i>
   </separator>
   <separator name="electronic startup" >
    <i type="int" name="ISTART">     0</i>
    <i type="int" name="ICHARG">     2</i>
    <i type="int" name="INIWAV">     1</i>
   </separator>
   <separator name="electronic spin" >
    <i type="int" name="ISPIN">     1</i>
    <i type="logical" name="LNONCOLLINEAR"> F  </i>
    <v name="MAGMOM">      1.00000000      1.00000000      1.00000000      1.00000000      1.00000000      1.00000000      1.00000000      1.00000000      1.00000000      1.00000000      1.00000000      1.00000000</v>
    <i name="NUPDOWN">     -1.00000000</i>
    <i type="logical" name="LSORBIT"> F  </i>
    <v name="SAXIS">      0.00000000      0.00000000      1.00000000</v>
    <i type="logical" name="LSPIRAL"> F  </i>
    <v name="QSPIRAL">      0.00000000      0.00000000      0.00000000</v>
    <i type="logical" name="LZEROZ"> F  </i>
   </separator>
   <separator name="electronic exchange-correlation" >
    <i type="logical" name="LASPH"> T  </i>
    <i type="logical" name="LMETAGGA"> F  </i>
   </separator>
   <separator name="electronic convergence" >
    <i type="int" name="NELM">   100</i>
    <i type="int" name="NELMDL">    -5</i>
    <i type="int" name="NELMIN">     6</i>
    <i name="ENINI">    600.00000000</i>
    <separator name="electronic convergence detail" >
     <i type="logical" name="LDIAG"> T  </i>
     <i type="logical" name="LSUBROT"> F  </i>
     <i name="WEIMIN">      0.00000000</i>
     <i name="EBREAK">      0.00000000</i>
     <i name="DEPER">      0.30000000</i>
     <i type="int" name="NRMM">     4</i>
     <i name="TIME">      0.40000000</i>
    </separator>
   </separator>
   <separator name="electronic mixer" >
    <i name="AMIX">      0.40000000</i>
    <i name="BMIX">      1.00000000</i>
    <i name="AMIN">      0.10000000</i>
    <i name="AMIX_MAG">      1.60000000</i>
    <i name="BMIX_MAG">      1.00000000</i>
    <separator name="electronic mixer details" >
     <i type="int" name="IMIX">     4</i>
     <i type="logical" name="MIXFIRST"> F  </i>
     <i type="int" name="MAXMIX">   -45</i>
     <i name="WC">    100.00000000</i>
     <i type="int" name="INIMIX">     1</i>
     <i type="int" name="MIXPRE">     1</i>
     <i type="int" name="MREMOVE">     5</i>
    </separator>
   </separator>
   <separator name="electronic dipolcorrection" >
    <i type="logical" name="LDIPOL"> F  </i>
    <i type="logical" name="LMONO"> F  </i>
    <i type="int" name="IDIPOL">     0</i>
    <i name="EPSILON">      1.00000000</i>
    <v name="DIPOL">   -100.00000000   -100.00000000   -100.00000000</v>
    <i name="EFIELD">      0.00000000</i>
   </separator>
  </separator>
  <separator name="grids" >
   <i type="int" name="NGX">    60</i>
   <i type="int" name="NGY">    60</i>
   <i type="int" name="NGZ">    60</i>
   <i type="int" name="NGXF">   120</i>
   <i type="int" name="NGYF">   120</i>
   <i type="int" name="NGZF">   120</i>
   <i type="logical" name="ADDGRID"> T  </i>
  </separator>
  <separator name="ionic" >
   <i type="int" name="NSW">     0</i>
   <i type="int" name="IBRION">    -1</i>
   <i type="int" name="MDALGO">     0</i>
   <i type="int" name="ISIF">    -1</i>
   <i name="PSTRESS">      0.00000000</i>
   <i name="EDIFFG">      0.00000001</i>
   <i type="int" name="NFREE">     0</i>
   <i name="POTIM">      0.50000000</i>
   <i name="SMASS">     -3.00000000</i>
   <i name="SCALEE">      1.00000000</i>
  </separator>
  <separator name="ionic md" >
   <i name="TEBEG">      0.00010000</i>
   <i name="TEEND">      0.00010000</i>
   <i type="int" name="NBLOCK">     1</i>
   <i type="int" name="KBLOCK">     1</i>
   <i type="int" name="NPACO">   256</i>
   <i name="APACO">     16.00000000</i>
  </separator>
  <separator name="symmetry" >
   <i type="int" name="ISYM">     2</i>
   <i name="SYMPREC">      0.00010000</i>
  </separator>
  <separator name="dos" >
   <i type="int" name="LORBIT">     0</i>
   <v name="RWIGS">     -1.00000000     -1.00000000     -1.00000000</v>
   <i type="int" name="NEDOS">   301</i>
   <i name="EMIN">     10.00000000</i>
   <i name="EMAX">    -10.00000000</i>
   <i name="EFERMI">      0.00000000</i>
  </separator>
  <separator name="writing" >
   <i type="int" name="NWRITE">     2</i>
   <i type="logical" name="LWAVE"> T  </i>
   <i type="logical" name="LDOWNSAMPLE"> F  </i>
   <i type="logical" name="LCHARG"> T  </i>
   <i type="logical" name="LPARD"> F  </i>
   <i type="logical" name="LVTOT"> F  </i>
   <i type="logical" name="LVHAR"> F  </i>
   <i type="logical" name="LELF"> F  </i>
   <i type="logical" name="LOPTICS"> F  </i>
   <v name="STM">      0.00000000      0.00000000      0.00000000      0.00000000      0.00000000      0.00000000      0.00000000</v>
  </separator>
  <separator name="performance" >
   <i type="int" name="NPAR">     6</i>
   <i type="int" name="NSIM">     4</i>
   <i type="int" name="NBLK">    -1</i>
   <i type="logical" name="LPLANE"> T  </i>
   <i type="logical" name="LSCALAPACK"> T  </i>
   <i type="logical" name="LSCAAWARE"> F  </i>
   <i type="logical" name="LSCALU"> F  </i>
   <i type="logical" name="LASYNC"> F  </i>
   <i type="logical" name="LORBITALREAL"> F  </i>
  </separator>
  <separator name="miscellaneous" >
   <i type="int" name="IDIOT">     3</i>
   <i type="int" name="PHON_NSTRUCT">    -1</i>
   <i type="logical" name="LMUSIC"> F  </i>
   <v name="POMASS">     10.81100000     95.94000000     28.08500000</v>
   <v name="DARWINR">      0.00000000      0.00000000      0.00000000</v>
   <v name="DARWINV">      1.00000000      1.00000000      1.00000000</v>
   <i type="logical" name="LCORR"> T  </i>
  </separator>
  <i type="logical" name="GGA_COMPAT"> T  </i>
  <i type="logical" name="LBERRY"> F  </i>
  <i type="int" name="ICORELEVEL">     0</i>
  <i type="logical" name="LDAU"> F  </i>
  <i type="int" name="I_CONSTRAINED_M">     0</i>
  <separator name="electronic exchange-correlation" >
   <i type="string" name="GGA">--</i>
   <i type="int" name="VOSKOWN">     0</i>
   <i type="logical" name="LHFCALC"> F  </i>
   <i type="string" name="PRECFOCK"></i>
   <i type="logical" name="LSYMGRAD"> F  </i>
   <i type="logical" name="LHFONE"> F  </i>
   <i type="logical" name="LRHFCALC"> F  </i>
   <i type="logical" name="LTHOMAS"> F  </i>
   <i type="logical" name="LMODELHF"> F  </i>
   <i type="logical" name="LFOCKACE"> F  </i>
   <i name="ENCUT4O">     -1.00000000</i>
   <i type="int" name="EXXOEP">     0</i>
   <i type="int" name="FOURORBIT">     0</i>
   <i name="AEXX">      0.00000000</i>
   <i name="HFALPHA">      0.00000000</i>
   <i name="MCALPHA">      0.00000000</i>
   <i name="ALDAX">      1.00000000</i>
   <i name="AGGAX">      1.00000000</i>
   <i name="ALDAC">      1.00000000</i>
   <i name="AGGAC">      1.00000000</i>
   <i type="int" name="NKREDX">     1</i>
   <i type="int" name="NKREDY">     1</i>
   <i type="int" name="NKREDZ">     1</i>
   <i type="logical" name="SHIFTRED"> F  </i>
   <i type="logical" name="ODDONLY"> F  </i>
   <i type="logical" name="EVENONLY"> F  </i>
   <i type="int" name="LMAXFOCK">     0</i>
   <i type="int" name="NMAXFOCKAE">     0</i>
   <i type="logical" name="LFOCKAEDFT"> F  </i>
   <i name="HFSCREEN">      0.00000000</i>
   <i name="HFSCREENC">      0.00000000</i>
   <i type="int" name="NBANDSGWLOW">     0</i>
  </separator>
  <separator name="vdW DFT" >
   <i type="logical" name="LUSE_VDW"> F  </i>
   <i name="Zab_VDW">     -0.84910000</i>
   <i name="PARAM1">      0.12340000</i>
   <i name="PARAM2">      1.00000000</i>
   <i name="PARAM3">      0.00000000</i>
  </separator>
  <separator name="model GW" >
   <i type="int" name="MODEL_GW">     0</i>
   <i name="MODEL_EPS0">     14.04419894</i>
   <i name="MODEL_ALPHA">      1.00000000</i>
  </separator>
  <separator name="linear response parameters" >
   <i type="logical" name="LEPSILON"> F  </i>
   <i type="logical" name="LRPA"> F  </i>
   <i type="logical" name="LNABLA"> F  </i>
   <i type="logical" name="LVEL"> F  </i>
   <i type="int" name="KINTER">     0</i>
   <i name="CSHIFT">      0.10000000</i>
   <i name="OMEGAMAX">     -1.00000000</i>
   <i name="DEG_THRESHOLD">      0.00200000</i>
   <i name="RTIME">     -0.10000000</i>
   <i name="WPLASMAI">      0.00000000</i>
   <v name="DFIELD">      0.00000000      0.00000000      0.00000000</v>
   <v name="WPLASMA">      0.00000000      0.00000000      0.00000000      0.00000000      0.00000000      0.00000000      0.00000000      0.00000000      0.00000000</v>
  </separator>
  <separator name="orbital magnetization" >
   <i type="logical" name="NUCIND"> F  </i>
   <v name="MAGPOS">      0.00000000      0.00000000      0.00000000</v>
   <i type="logical" name="LNICSALL"> T  </i>
   <i type="logical" name="ORBITALMAG"> F  </i>
   <i type="logical" name="LMAGBLOCH"> F  </i>
   <i type="logical" name="LCHIMAG"> F  </i>
   <i type="logical" name="LGAUGE"> T  </i>
   <i type="int" name="MAGATOM">     0</i>
   <v name="MAGDIPOL">      0.00000000      0.00000000      0.00000000</v>
   <v name="AVECCONST">      0.00000000      0.00000000      0.00000000</v>
  </separator>
  <separator name="response functions" >
   <i type="logical" name="LFINITE_TEMPERATURE"> F  </i>
   <i type="logical" name="LADDER"> F  </i>
   <i type="logical" name="LRPAFORCE"> F  </i>
   <i type="logical" name="LFXC"> F  </i>
   <i type="logical" name="LHARTREE"> T  </i>
   <i type="int" name="IBSE">     0</i>
   <v type="int" name="KPOINT">    -1     0     0     0</v>
   <i type="logical" name="LTCTC"> F  </i>
   <i type="logical" name="LTCTE"> F  </i>
   <i type="logical" name="LTETE"> F  </i>
   <i type="logical" name="LTRIPLET"> F  </i>
   <i type="logical" name="LFXCEPS"> F  </i>
   <i type="logical" name="LFXHEG"> F  </i>
   <i type="int" name="NATURALO">     2</i>
   <i type="logical" name="LHOLEGF"> F  </i>
   <i type="logical" name="L2ORDER"> F  </i>
   <i type="logical" name="LDMP1"> F  </i>
   <i type="logical" name="LMP2LT"> F  </i>
   <i type="logical" name="LSMP2LT"> F  </i>
   <i type="logical" name="LGWLF"> F  </i>
   <i name="ENCUTGW">     -2.00000000</i>
   <i name="ENCUTGWSOFT">     -2.00000000</i>
   <i name="ENCUTLF">     -1.00000000</i>
   <i type="logical" name="LESF_SPLINES"> F  </i>
   <i type="int" name="LMAXMP2">    -1</i>
   <i name="SCISSOR">      0.00000000</i>
   <i type="int" name="NOMEGA">     0</i>
   <i type="int" name="NOMEGAR">     0</i>
   <i type="int" name="NBANDSGW">    -1</i>
   <i type="int" name="NBANDSO">    -1</i>
   <i type="int" name="NBANDSV">    -1</i>
   <i type="int" name="NELM">   100</i>
   <i type="int" name="NELMHF">     1</i>
   <i type="int" name="DIM">     3</i>
   <i type="int" name="IESPILON">     4</i>
   <i type="int" name="ANTIRES">     0</i>
   <i name="OMEGAMAX">    -30.00000000</i>
   <i name="OMEGAMIN">    -30.00000000</i>
   <i name="OMEGATL">   -200.00000000</i>
   <i type="int" name="OMEGAGRID">     0</i>
   <i name="CSHIFT">     -0.10000000</i>
   <i type="logical" name="LSELFENERGY"> F  </i>
   <i type="logical" name="LSPECTRAL"> F  </i>
   <i type="logical" name="LSPECTRALGW"> F  </i>
   <i type="logical" name="LSINGLES"> F  </i>
   <i type="logical" name="LFERMIGW"> F  </i>
   <i type="logical" name="ODDONLYGW"> F  </i>
   <i type="logical" name="EVENONLYGW"> F  </i>
   <i type="int" name="NKREDLFX">     1</i>
   <i type="int" name="NKREDLFY">     1</i>
   <i type="int" name="NKREDLFZ">     1</i>
   <i type="int" name="MAXMEM">  2800</i>
   <i type="int" name="TELESCOPE">     0</i>
   <i type="int" name="NTAUPAR">    -1</i>
   <i type="int" name="NOMEGAPAR">    -1</i>
   <i name="DAMP_NEWTON">      0.80000001</i>
   <i name="LAMBDA">      1.00000000</i>
  </separator>
  <separator name="External order field" >
   <i name="OFIELD_KAPPA">      0.00000000</i>
   <v name="OFIELD_K">      0.00000000      0.00000000      0.00000000</v>
   <i name="OFIELD_Q6_NEAR">      0.00000000</i>
   <i name="OFIELD_Q6_FAR">      0.00000000</i>
   <i name="OFIELD_A">      0.00000000</i>
  </separator>
 </parameters>
 <atominfo>
  <atoms>      12 </atoms>
  <types>       3 </types>
  <array name="atoms" >
   <dimension dim="1">ion</dimension>
   <field type="string">element</field>
   <field type="int">atomtype</field>
   <set>
    <rc><c>B </c><c>   1</c></rc>
    <rc><c>B </c><c>   1</c></rc>
    <rc><c>B </c><c>   1</c></rc>
    <rc><c>B </c><c>   1</c></rc>
    <rc><c>Mo</c><c>   2</c></rc>
    <rc><c>Mo</c><c>   2</c></rc>
    <rc><c>Mo</c><c>   2</c></rc>
    <rc><c>Mo</c><c>   2</c></rc>
    <rc><c>Si</c><c>   3</c></rc>
    <rc><c>Si</c><c>   3</c></rc>
    <rc><c>Si</c><c>   3</c></rc>
    <rc><c>Si</c><c>   3</c></rc>
   </set>
  </array>
  <array name="atomtypes" >
   <dimension dim="1">type</dimension>
   <field type="int">atomspertype</field>
   <field type="string">element</field>
   <field>mass</field>
   <field>valence</field>
   <field type="string">pseudopotential</field>
   <set>
    <rc><c>   4</c><c>B </c><c>     10.81100000</c><c>      3.00000000</c><c>  PAW_PBE B 06Sep2000                   </c></rc>
    <rc><c>   4</c><c>Mo</c><c>     95.94000000</c><c>     14.00000000</c><c>  PAW_PBE Mo_sv 02Feb2006               </c></rc>
    <rc><c>   4</c><c>Si</c><c>     28.08500000</c><c>      4.00000000</c><c>  PAW_PBE Si 05Jan2001                  </c></rc>
   </set>
  </array>
 </atominfo>
 <structure name="initialpos" >
  <crystal>
   <varray name="basis" >
    <v>       6.71846264       0.00000000      -2.43536567 </v>
    <v>      -3.30325912       5.85031788      -2.43536567 </v>
    <v>       0.00000000       0.00000000       7.14624000 </v>
   </varray>
   <i name="volume">    280.88397878 </i>
   <varray name="rec_basis" >
    <v>       0.14884358       0.08404140       0.00000000 </v>
    <v>       0.00000000       0.17093088       0.00000000 </v>
    <v>       0.05072437       0.08689195       0.13993373 </v>
   </varray>
  </crystal>
  <varray name="positions" >
   <v>       0.26905000       0.23095000       0.50000000 </v>
   <v>       0.73095000       0.76905000       0.50000000 </v>
   <v>       0.23095000       0.73095000       0.96191000 </v>
   <v>       0.76905000       0.26905000       0.03809000 </v>
   <v>       0.25000000       0.25000000       0.00000000 </v>
   <v>       0.00000000       0.50000000       0.50000000 </v>
   <v>       0.75000000       0.75000000       0.00000000 </v>
   <v>       0.50000000       0.00000000       0.50000000 </v>
   <v>       0.67050000       0.17050000       0.84100000 </v>
   <v>       0.32950000       0.82950000       0.15900000 </v>
   <v>       0.17050000       0.32950000       0.50000000 </v>
   <v>       0.82950000       0.67050000       0.50000000 </v>
  </varray>
 </structure>
 <calculation>
  <scstep>
   <time name="total">   13.28   13.42</time>
   <energy>
    <i name="alphaZ">    194.96134799 </i>
    <i name="ewald">  -4970.08317265 </i>
    <i name="hartreedc">  -2519.78558055 </i>
    <i name="XCdc">    310.91905637 </i>
    <i name="pawpsdc">   6444.67582193 </i>
    <i name="pawaedc">  -6389.50304870 </i>
    <i name="eentropy">     -0.00100794 </i>
    <i name="bandstr">   -518.55870707 </i>
    <i name="atom">   8146.07472429 </i>
    <i name="e_fr_energy">    698.69943367 </i>
    <i name="e_wo_entrp">    698.70044160 </i>
    <i name="e_0_energy">    698.69993763 </i>
   </energy>
  </scstep>
  <scstep>
   <time name="total">   13.43   13.78</time>
   <energy>
    <i name="e_fr_energy">    -94.28958808 </i>
    <i name="e_wo_entrp">    -94.28842123 </i>
    <i name="e_0_energy">    -94.28900466 </i>
   </energy>
  </scstep>
  <scstep>
   <time name="total">   13.92   14.14</time>
   <energy>
    <i name="e_fr_energy">   -143.56759494 </i>
    <i name="e_wo_entrp">   -143.56532480 </i>
    <i name="e_0_energy">   -143.56645987 </i>
   </energy>
  </scstep>
  <scstep>
   <time name="total">   14.36   14.60</time>
   <energy>
    <i name="e_fr_energy">   -145.20143804 </i>
    <i name="e_wo_entrp">   -145.19894305 </i>
    <i name="e_0_energy">   -145.20019054 </i>
   </energy>
  </scstep>
  <scstep>
   <time name="total">   15.20   15.44</time>
   <energy>
    <i name="e_fr_energy">   -145.24907243 </i>
    <i name="e_wo_entrp">   -145.24653865 </i>
    <i name="e_0_energy">   -145.24780554 </i>
   </energy>
  </scstep>
  <scstep>
   <time name="total">   16.78   16.96</time>
   <energy>
    <i name="e_fr_energy">    216.71955335 </i>
    <i name="e_wo_entrp">    216.72224015 </i>
    <i name="e_0_energy">    216.72089675 </i>
   </energy>
  </scstep>
  <scstep>
   <time name="total">   16.92   17.07</time>
   <energy>
    <i name="e_fr_energy">     59.09078060 </i>
    <i name="e_wo_entrp">     59.09491626 </i>
    <i name="e_0_energy">     59.09284843 </i>
   </energy>
  </scstep>
  <scstep>
   <time name="total">   17.31   17.52</time>
   <energy>
    <i name="e_fr_energy">    -27.71019282 </i>
    <i name="e_wo_entrp">    -27.70613542 </i>
    <i name="e_0_energy">    -27.70816412 </i>
   </energy>
  </scstep>
  <scstep>
   <time name="total">   17.24   17.47</time>
   <energy>
    <i name="e_fr_energy">    -51.58352758 </i>
    <i name="e_wo_entrp">    -51.58032748 </i>
    <i name="e_0_energy">    -51.58192753 </i>
   </energy>
  </scstep>
  <scstep>
   <time name="total">   17.16   17.36</time>
   <energy>
    <i name="e_fr_energy">    -55.51550964 </i>
    <i name="e_wo_entrp">    -55.51072586 </i>
    <i name="e_0_energy">    -55.51311775 </i>
   </energy>
  </scstep>
  <scstep>
   <time name="total">   17.14   17.32</time>
   <energy>
    <i name="e_fr_energy">    -57.15141653 </i>
    <i name="e_wo_entrp">    -57.14698574 </i>
    <i name="e_0_energy">    -57.14920113 </i>
   </energy>
  </scstep>
  <scstep>
   <time name="total">   17.28   17.45</time>
   <energy>
    <i name="e_fr_energy">    -58.57385721 </i>
    <i name="e_wo_entrp">    -58.57026298 </i>
    <i name="e_0_energy">    -58.57206010 </i>
   </energy>
  </scstep>
  <scstep>
   <time name="total">   17.04   17.18</time>
   <energy>
    <i name="e_fr_energy">    -59.04705599 </i>
    <i name="e_wo_entrp">    -59.04394307 </i>
    <i name="e_0_energy">    -59.04549953 </i>
   </energy>
  </scstep>
  <scstep>
   <time name="total">   17.17   17.38</time>
   <energy>
    <i name="e_fr_energy">    -59.34684088 </i>
    <i name="e_wo_entrp">    -59.34281360 </i>
    <i name="e_0_energy">    -59.34482724 </i>
   </energy>
  </scstep>
  <scstep>
   <time name="total">   17.24   17.43</time>
   <energy>
    <i name="e_fr_energy">    -59.65408402 </i>
    <i name="e_wo_entrp">    -59.65005445 </i>
    <i name="e_0_energy">    -59.65206923 </i>
   </energy>
  </scstep>
  <scstep>
   <time name="total">   17.18   17.33</time>
   <energy>
    <i name="e_fr_energy">    -59.77748372 </i>
    <i name="e_wo_entrp">    -59.77173599 </i>
    <i name="e_0_energy">    -59.77460986 </i>
   </energy>
  </scstep>
  <scstep>
   <time name="total">   17.09   17.26</time>
   <energy>
    <i name="e_fr_energy">    -60.01435192 </i>
    <i name="e_wo_entrp">    -60.00912967 </i>
    <i name="e_0_energy">    -60.01174079 </i>
   </energy>
  </scstep>
  <scstep>
   <time name="total">   16.82   16.97</time>
   <energy>
    <i name="e_fr_energy">    -60.17512886 </i>
    <i name="e_wo_entrp">    -60.17123564 </i>
    <i name="e_0_energy">    -60.17318225 </i>
   </energy>
  </scstep>
  <scstep>
   <time name="total">   17.25   17.44</time>
   <energy>
    <i name="e_fr_energy">    -60.27210962 </i>
    <i name="e_wo_entrp">    -60.26762387 </i>
    <i name="e_0_energy">    -60.26986675 </i>
   </energy>
  </scstep>
  <scstep>
   <time name="total">   17.33   17.51</time>
   <energy>
    <i name="e_fr_energy">    -60.32346996 </i>
    <i name="e_wo_entrp">    -60.31986782 </i>
    <i name="e_0_energy">    -60.32166889 </i>
   </energy>
  </scstep>
  <scstep>
   <time name="total">   17.08   17.23</time>
   <energy>
    <i name="e_fr_energy">    -60.40019507 </i>
    <i name="e_wo_entrp">    -60.39756477 </i>
    <i name="e_0_energy">    -60.39887992 </i>
   </energy>
  </scstep>
  <scstep>
   <time name="total">   16.85   17.05</time>
   <energy>
    <i name="e_fr_energy">    -60.44497062 </i>
    <i name="e_wo_entrp">    -60.44110394 </i>
    <i name="e_0_energy">    -60.44303728 </i>
   </energy>
  </scstep>
  <scstep>
   <time name="total">   17.25   17.40</time>
   <energy>
    <i name="e_fr_energy">    -60.49929518 </i>
    <i name="e_wo_entrp">    -60.49624223 </i>
    <i name="e_0_energy">    -60.49776871 </i>
   </energy>
  </scstep>
  <scstep>
   <time name="total">   17.35   17.51</time>
   <energy>
    <i name="e_fr_energy">    -60.54504047 </i>
    <i name="e_wo_entrp">    -60.54267748 </i>
    <i name="e_0_energy">    -60.54385898 </i>
   </energy>
  </scstep>
  <scstep>
   <time name="total">   16.88   17.03</time>
   <energy>
    <i name="e_fr_energy">    -60.57559099 </i>
    <i name="e_wo_entrp">    -60.57336457 </i>
    <i name="e_0_energy">    -60.57447778 </i>
   </energy>
  </scstep>
  <scstep>
   <time name="total">   16.95   17.11</time>
   <energy>
    <i name="e_fr_energy">    -60.60274143 </i>
    <i name="e_wo_entrp">    -60.60028342 </i>
    <i name="e_0_energy">    -60.60151243 </i>
   </energy>
  </scstep>
  <scstep>
   <time name="total">   17.43   17.61</time>
   <energy>
    <i name="e_fr_energy">    -60.62581421 </i>
    <i name="e_wo_entrp">    -60.62338260 </i>
    <i name="e_0_energy">    -60.62459841 </i>
   </energy>
  </scstep>
  <scstep>
   <time name="total">   17.06   17.27</time>
   <energy>
    <i name="e_fr_energy">    -60.64966424 </i>
    <i name="e_wo_entrp">    -60.64724803 </i>
    <i name="e_0_energy">    -60.64845613 </i>
   </energy>
  </scstep>
  <scstep>
   <time name="total">   17.25   17.40</time>
   <energy>
    <i name="e_fr_energy">    -60.66740104 </i>
    <i name="e_wo_entrp">    -60.66478047 </i>
    <i name="e_0_energy">    -60.66609075 </i>
   </energy>
  </scstep>
  <scstep>
   <time name="total">   16.81   17.00</time>
   <energy>
    <i name="e_fr_energy">    -60.68569066 </i>
    <i name="e_wo_entrp">    -60.68326877 </i>
    <i name="e_0_energy">    -60.68447971 </i>
   </energy>
  </scstep>
  <scstep>
   <time name="total">   17.27   17.42</time>
   <energy>
    <i name="e_fr_energy">    -60.69839388 </i>
    <i name="e_wo_entrp">    -60.69586186 </i>
    <i name="e_0_energy">    -60.69712787 </i>
   </energy>
  </scstep>
  <scstep>
   <time name="total">   16.83   17.04</time>
   <energy>
    <i name="e_fr_energy">    -60.71100892 </i>
    <i name="e_wo_entrp">    -60.70828511 </i>
    <i name="e_0_energy">    -60.70964702 </i>
   </energy>
  </scstep>
  <scstep>
   <time name="total">   17.18   17.36</time>
   <energy>
    <i name="e_fr_energy">    -60.72204393 </i>
    <i name="e_wo_entrp">    -60.71872838 </i>
    <i name="e_0_energy">    -60.72038616 </i>
   </energy>
  </scstep>
  <scstep>
   <time name="total">   16.99   17.21</time>
   <energy>
    <i name="e_fr_energy">    -60.73186704 </i>
    <i name="e_wo_entrp">    -60.72862355 </i>
    <i name="e_0_energy">    -60.73024530 </i>
   </energy>
  </scstep>
  <scstep>
   <time name="total">   16.84   17.00</time>
   <energy>
    <i name="e_fr_energy">    -60.73891185 </i>
    <i name="e_wo_entrp">    -60.73551962 </i>
    <i name="e_0_energy">    -60.73721574 </i>
   </energy>
  </scstep>
  <scstep>
   <time name="total">   16.99   17.13</time>
   <energy>
    <i name="e_fr_energy">    -60.74491598 </i>
    <i name="e_wo_entrp">    -60.74108266 </i>
    <i name="e_0_energy">    -60.74299932 </i>
   </energy>
  </scstep>
  <scstep>
   <time name="total">   17.25   17.45</time>
   <energy>
    <i name="e_fr_energy">    -60.75125546 </i>
    <i name="e_wo_entrp">    -60.74714006 </i>
    <i name="e_0_energy">    -60.74919776 </i>
   </energy>
  </scstep>
  <scstep>
   <time name="total">   16.98   17.22</time>
   <energy>
    <i name="e_fr_energy">    -60.75691034 </i>
    <i name="e_wo_entrp">    -60.75332791 </i>
    <i name="e_0_energy">    -60.75511913 </i>
   </energy>
  </scstep>
  <scstep>
   <time name="total">   16.96   17.15</time>
   <energy>
    <i name="e_fr_energy">    -60.77850980 </i>
    <i name="e_wo_entrp">    -60.77465656 </i>
    <i name="e_0_energy">    -60.77658318 </i>
   </energy>
  </scstep>
  <scstep>
   <time name="total">   17.27   17.43</time>
   <energy>
    <i name="e_fr_energy">    -60.80980183 </i>
    <i name="e_wo_entrp">    -60.80613594 </i>
    <i name="e_0_energy">    -60.80796889 </i>
   </energy>
  </scstep>
  <scstep>
   <time name="total">   17.00   17.17</time>
   <energy>
    <i name="e_fr_energy">    -60.82228145 </i>
    <i name="e_wo_entrp">    -60.81874577 </i>
    <i name="e_0_energy">    -60.82051361 </i>
   </energy>
  </scstep>
  <scstep>
   <time name="total">   16.95   17.13</time>
   <energy>
    <i name="e_fr_energy">    -60.82604699 </i>
    <i name="e_wo_entrp">    -60.82274732 </i>
    <i name="e_0_energy">    -60.82439716 </i>
   </energy>
  </scstep>
  <scstep>
   <time name="total">   17.01   17.16</time>
   <energy>
    <i name="e_fr_energy">    -60.82864324 </i>
    <i name="e_wo_entrp">    -60.82548808 </i>
    <i name="e_0_energy">    -60.82706566 </i>
   </energy>
  </scstep>
  <scstep>
   <time name="total">   17.02   17.16</time>
   <energy>
    <i name="e_fr_energy">    -60.82948492 </i>
    <i name="e_wo_entrp">    -60.82635806 </i>
    <i name="e_0_energy">    -60.82792149 </i>
   </energy>
  </scstep>
  <scstep>
   <time name="total">   17.39   17.55</time>
   <energy>
    <i name="e_fr_energy">    -60.82973546 </i>
    <i name="e_wo_entrp">    -60.82668758 </i>
    <i name="e_0_energy">    -60.82821152 </i>
   </energy>
  </scstep>
  <scstep>
   <time name="total">   16.91   17.07</time>
   <energy>
    <i name="e_fr_energy">    -60.83002283 </i>
    <i name="e_wo_entrp">    -60.82700745 </i>
    <i name="e_0_energy">    -60.82851514 </i>
   </energy>
  </scstep>
  <scstep>
   <time name="total">   17.11   17.35</time>
   <energy>
    <i name="e_fr_energy">    -60.83018035 </i>
    <i name="e_wo_entrp">    -60.82718142 </i>
    <i name="e_0_energy">    -60.82868088 </i>
   </energy>
  </scstep>
  <scstep>
   <time name="total">   17.12   17.28</time>
   <energy>
    <i name="e_fr_energy">    -60.83022910 </i>
    <i name="e_wo_entrp">    -60.82723026 </i>
    <i name="e_0_energy">    -60.82872968 </i>
   </energy>
  </scstep>
  <scstep>
   <time name="total">   17.42   17.60</time>
   <energy>
    <i name="e_fr_energy">    -60.83026142 </i>
    <i name="e_wo_entrp">    -60.82727152 </i>
    <i name="e_0_energy">    -60.82876647 </i>
   </energy>
  </scstep>
  <scstep>
   <time name="total">   17.25   17.49</time>
   <energy>
    <i name="e_fr_energy">    -60.83028436 </i>
    <i name="e_wo_entrp">    -60.82729420 </i>
    <i name="e_0_energy">    -60.82878928 </i>
   </energy>
  </scstep>
  <scstep>
   <time name="total">   17.21   17.39</time>
   <energy>
    <i name="e_fr_energy">    -60.83029075 </i>
    <i name="e_wo_entrp">    -60.82730684 </i>
    <i name="e_0_energy">    -60.82879879 </i>
   </energy>
  </scstep>
  <scstep>
   <time name="total">   17.15   17.30</time>
   <energy>
    <i name="e_fr_energy">    -60.83029737 </i>
    <i name="e_wo_entrp">    -60.82731504 </i>
    <i name="e_0_energy">    -60.82880621 </i>
   </energy>
  </scstep>
  <scstep>
   <time name="total">   17.40   17.64</time>
   <energy>
    <i name="e_fr_energy">    -60.83030007 </i>
    <i name="e_wo_entrp">    -60.82731986 </i>
    <i name="e_0_energy">    -60.82880997 </i>
   </energy>
  </scstep>
  <scstep>
   <time name="total">   17.28   17.51</time>
   <energy>
    <i name="e_fr_energy">    -60.83030098 </i>
    <i name="e_wo_entrp">    -60.82732078 </i>
    <i name="e_0_energy">    -60.82881088 </i>
   </energy>
  </scstep>
  <scstep>
   <time name="total">   17.23   17.40</time>
   <energy>
    <i name="e_fr_energy">    -60.83030198 </i>
    <i name="e_wo_entrp">    -60.82732219 </i>
    <i name="e_0_energy">    -60.82881209 </i>
   </energy>
  </scstep>
  <scstep>
   <time name="total">   17.16   17.34</time>
   <energy>
    <i name="e_fr_energy">    -60.83030223 </i>
    <i name="e_wo_entrp">    -60.82732051 </i>
    <i name="e_0_energy">    -60.82881137 </i>
   </energy>
  </scstep>
  <scstep>
   <time name="total">   17.26   17.45</time>
   <energy>
    <i name="e_fr_energy">    -60.83030260 </i>
    <i name="e_wo_entrp">    -60.82732057 </i>
    <i name="e_0_energy">    -60.82881158 </i>
   </energy>
  </scstep>
  <scstep>
   <time name="total">   17.23   17.43</time>
   <energy>
    <i name="e_fr_energy">    -60.83030266 </i>
    <i name="e_wo_entrp">    -60.82731971 </i>
    <i name="e_0_energy">    -60.82881118 </i>
   </energy>
  </scstep>
  <scstep>
   <time name="total">   17.23   17.39</time>
   <energy>
    <i name="e_fr_energy">    -60.83030272 </i>
    <i name="e_wo_entrp">    -60.82731915 </i>
    <i name="e_0_energy">    -60.82881093 </i>
   </energy>
  </scstep>
  <scstep>
   <time name="total">   17.01   17.22</time>
   <energy>
    <i name="e_fr_energy">    -60.83030276 </i>
    <i name="e_wo_entrp">    -60.82731854 </i>
    <i name="e_0_energy">    -60.82881065 </i>
   </energy>
  </scstep>
  <scstep>
   <time name="total">   17.27   17.46</time>
   <energy>
    <i name="e_fr_energy">    -60.83030281 </i>
    <i name="e_wo_entrp">    -60.82731820 </i>
    <i name="e_0_energy">    -60.82881050 </i>
   </energy>
  </scstep>
  <scstep>
   <time name="total">   16.69   16.89</time>
   <energy>
    <i name="e_fr_energy">    -60.83030284 </i>
    <i name="e_wo_entrp">    -60.82731822 </i>
    <i name="e_0_energy">    -60.82881053 </i>
   </energy>
  </scstep>
  <scstep>
   <time name="total">   16.91   17.06</time>
   <energy>
    <i name="e_fr_energy">    -60.83030285 </i>
    <i name="e_wo_entrp">    -60.82731786 </i>
    <i name="e_0_energy">    -60.82881036 </i>
   </energy>
  </scstep>
  <scstep>
   <time name="total">   17.21   17.37</time>
   <energy>
    <i name="e_fr_energy">    -60.83030289 </i>
    <i name="e_wo_entrp">    -60.82731657 </i>
    <i name="e_0_energy">    -60.82880973 </i>
   </energy>
  </scstep>
  <scstep>
   <time name="total">   17.33   17.55</time>
   <energy>
    <i name="e_fr_energy">    -60.83030280 </i>
    <i name="e_wo_entrp">    -60.82731703 </i>
    <i name="e_0_energy">    -60.82880991 </i>
   </energy>
  </scstep>
  <scstep>
   <time name="total">   16.95   17.11</time>
   <energy>
    <i name="e_fr_energy">    -60.83030292 </i>
    <i name="e_wo_entrp">    -60.82731718 </i>
    <i name="e_0_energy">    -60.82881005 </i>
   </energy>
  </scstep>
  <scstep>
   <time name="total">   19.34   19.53</time>
   <energy>
    <i name="alphaZ">    194.96134799 </i>
    <i name="ewald">  -4970.08317265 </i>
    <i name="hartreedc">  -2514.53930076 </i>
    <i name="XCdc">    325.50384810 </i>
    <i name="pawpsdc">  11413.25519874 </i>
    <i name="pawaedc"> -11363.26245962 </i>
    <i name="eentropy">     -0.00298574 </i>
    <i name="bandstr">  -1292.73750326 </i>
    <i name="atom">   8146.07472429 </i>
    <i name="e_fr_energy">    -60.83030292 </i>
    <i name="e_wo_entrp">    -60.82731718 </i>
    <i name="e_0_energy">    -60.82881005 </i>
   </energy>
  </scstep>
  <structure>
   <crystal>
    <varray name="basis" >
     <v>       6.71846264       0.00000000      -2.43536567 </v>
     <v>      -3.30325912       5.85031788      -2.43536567 </v>
     <v>       0.00000000       0.00000000       7.14624000 </v>
    </varray>
    <i name="volume">    280.88397878 </i>
    <varray name="rec_basis" >
     <v>       0.14884358       0.08404140       0.00000000 </v>
     <v>       0.00000000       0.17093088       0.00000000 </v>
     <v>       0.05072437       0.08689195       0.13993373 </v>
    </varray>
   </crystal>
   <varray name="positions" >
    <v>       0.26905000       0.23095000       0.50000000 </v>
    <v>       0.73095000       0.76905000       0.50000000 </v>
    <v>       0.23095000       0.73095000       0.96191000 </v>
    <v>       0.76905000       0.26905000       0.03809000 </v>
    <v>       0.25000000       0.25000000       0.00000000 </v>
    <v>       0.00000000       0.50000000       0.50000000 </v>
    <v>       0.75000000       0.75000000       0.00000000 </v>
    <v>       0.50000000       0.00000000       0.50000000 </v>
    <v>       0.67050000       0.17050000       0.84100000 </v>
    <v>       0.32950000       0.82950000       0.15900000 </v>
    <v>       0.17050000       0.32950000       0.50000000 </v>
    <v>       0.82950000       0.67050000       0.50000000 </v>
   </varray>
  </structure>
  <varray name="forces" >
   <v>       0.00000000       0.00000000       0.00000000 </v>
   <v>       0.00000000       0.00000000       0.00000000 </v>
   <v>       0.00000000       0.00000000       0.00000000 </v>
   <v>       0.00000000       0.00000000       0.00000000 </v>
   <v>       0.00000000       0.00000000       0.00000000 </v>
   <v>       0.00000000       0.00000000       0.00000000 </v>
   <v>       0.00000000       0.00000000       0.00000000 </v>
   <v>       0.00000000       0.00000000       0.00000000 </v>
   <v>       0.00000000       0.00000000       0.00000000 </v>
   <v>       0.00000000       0.00000000       0.00000000 </v>
   <v>       0.00000000       0.00000000       0.00000000 </v>
   <v>       0.00000000       0.00000000       0.00000000 </v>
  </varray>
  <varray name="stress" >
   <v>       0.00000000       0.00000000       0.00000000 </v>
   <v>       0.00000000       0.00000000       0.00000000 </v>
   <v>       0.00000000       0.00000000       0.00000000 </v>
  </varray>
  <energy>
   <i name="e_fr_energy">    -60.83030292 </i>
   <i name="e_wo_entrp">    -60.82731718 </i>
   <i name="e_0_energy">    -60.82881005 </i>
  </energy>
  <time name="totalsc"> 1136.73 1149.17</time>
  <eigenvalues>
   <array>
    <dimension dim="1">band</dimension>
    <dimension dim="2">kpoint</dimension>
    <dimension dim="3">spin</dimension>
    <field>eigene</field>
    <field>occ</field>
    <set>
     <set comment="spin 1">
      <set comment="kpoint 1">
       <r>  -60.6029    1.0000 </r>
       <r>  -60.6026    1.0000 </r>
       <r>  -59.1622    1.0000 </r>
       <r>  -59.1611    1.0000 </r>
       <r>  -33.9416    1.0000 </r>
       <r>  -33.9415    1.0000 </r>
       <r>  -33.9410    1.0000 </r>
       <r>  -33.9409    1.0000 </r>
       <r>  -33.9062    1.0000 </r>
       <r>  -33.8980    1.0000 </r>
       <r>  -33.0548    1.0000 </r>
       <r>  -33.0536    1.0000 </r>
       <r>  -32.7818    1.0000 </r>
       <r>  -32.7722    1.0000 </r>
       <r>  -32.5237    1.0000 </r>
       <r>  -32.5228    1.0000 </r>
       <r>   -7.0459    1.0000 </r>
       <r>   -6.3463    1.0000 </r>
       <r>   -5.7942    1.0000 </r>
       <r>   -5.7936    1.0000 </r>
       <r>   -1.9561    1.0000 </r>
       <r>   -1.3205    1.0000 </r>
       <r>   -1.2237    1.0000 </r>
       <r>   -0.7188    1.0000 </r>
       <r>   -0.7180    1.0000 </r>
       <r>   -0.3305    1.0000 </r>
       <r>   -0.3299    1.0000 </r>
       <r>    0.3670    1.0000 </r>
       <r>    0.9089    1.0000 </r>
       <r>    1.1355    1.0000 </r>
       <r>    1.2357    1.0000 </r>
       <r>    1.3748    1.0000 </r>
       <r>    1.6196    1.0000 </r>
       <r>    1.9428    1.0000 </r>
       <r>    2.0593    1.0000 </r>
       <r>    2.0600    1.0000 </r>
       <r>    2.0665    1.0000 </r>
       <r>    2.0668    1.0000 </r>
       <r>    2.0928    1.0000 </r>
       <r>    2.1441    1.0000 </r>
       <r>    2.4401    1.0000 </r>
       <r>    2.4689    1.0000 </r>
       <r>    2.7683    0.0000 </r>
       <r>    2.7685    0.0000 </r>
       <r>    2.7913    0.0000 </r>
       <r>    2.8109    0.0000 </r>
       <r>    2.9017    0.0000 </r>
       <r>    2.9230    0.0000 </r>
       <r>    2.9233    0.0000 </r>
       <r>    3.7475    0.0000 </r>
       <r>    3.7480    0.0000 </r>
       <r>    4.1099    0.0000 </r>
       <r>    4.2765    0.0000 </r>
       <r>    4.6002    0.0000 </r>
      </set>
      <set comment="kpoint 2">
       <r>  -60.6029    1.0000 </r>
       <r>  -60.6026    1.0000 </r>
       <r>  -59.1622    1.0000 </r>
       <r>  -59.1611    1.0000 </r>
       <r>  -33.9415    1.0000 </r>
       <r>  -33.9414    1.0000 </r>
       <r>  -33.9410    1.0000 </r>
       <r>  -33.9409    1.0000 </r>
       <r>  -33.9056    1.0000 </r>
       <r>  -33.8985    1.0000 </r>
       <r>  -33.0548    1.0000 </r>
       <r>  -33.0536    1.0000 </r>
       <r>  -32.7811    1.0000 </r>
       <r>  -32.7729    1.0000 </r>
       <r>  -32.5237    1.0000 </r>
       <r>  -32.5228    1.0000 </r>
       <r>   -6.9908    1.0000 </r>
       <r>   -6.3701    1.0000 </r>
       <r>   -5.8262    1.0000 </r>
       <r>   -5.8110    1.0000 </r>
       <r>   -1.9025    1.0000 </r>
       <r>   -1.3674    1.0000 </r>
       <r>   -1.2120    1.0000 </r>
       <r>   -0.6909    1.0000 </r>
       <r>   -0.6495    1.0000 </r>
       <r>   -0.4045    1.0000 </r>
       <r>   -0.2501    1.0000 </r>
       <r>    0.3692    1.0000 </r>
       <r>    0.6341    1.0000 </r>
       <r>    0.9134    1.0000 </r>
       <r>    1.0821    1.0000 </r>
       <r>    1.1441    1.0000 </r>
       <r>    1.7217    1.0000 </r>
       <r>    1.7812    1.0000 </r>
       <r>    2.0468    1.0000 </r>
       <r>    2.0888    1.0000 </r>
       <r>    2.1307    1.0000 </r>
       <r>    2.2071    1.0000 </r>
       <r>    2.2878    1.0000 </r>
       <r>    2.4028    1.0000 </r>
       <r>    2.4710    1.0000 </r>
       <r>    2.5086    1.0000 </r>
       <r>    2.6924    0.9003 </r>
       <r>    2.8233    0.0000 </r>
       <r>    2.8307    0.0000 </r>
       <r>    2.9156    0.0000 </r>
       <r>    2.9484    0.0000 </r>
       <r>    3.0424    0.0000 </r>
       <r>    3.0542    0.0000 </r>
       <r>    3.6009    0.0000 </r>
       <r>    3.7155    0.0000 </r>
       <r>    3.8392    0.0000 </r>
       <r>    4.3956    0.0000 </r>
       <r>    4.4564    0.0000 </r>
      </set>
      <set comment="kpoint 3">
       <r>  -60.6029    1.0000 </r>
       <r>  -60.6026    1.0000 </r>
       <r>  -59.1622    1.0000 </r>
       <r>  -59.1611    1.0000 </r>
       <r>  -33.9414    1.0000 </r>
       <r>  -33.9413    1.0000 </r>
       <r>  -33.9411    1.0000 </r>
       <r>  -33.9410    1.0000 </r>
       <r>  -33.9041    1.0000 </r>
       <r>  -33.9000    1.0000 </r>
       <r>  -33.0548    1.0000 </r>
       <r>  -33.0536    1.0000 </r>
       <r>  -32.7794    1.0000 </r>
       <r>  -32.7746    1.0000 </r>
       <r>  -32.5237    1.0000 </r>
       <r>  -32.5228    1.0000 </r>
       <r>   -6.8405    1.0000 </r>
       <r>   -6.4637    1.0000 </r>
       <r>   -5.8787    1.0000 </r>
       <r>   -5.8512    1.0000 </r>
       <r>   -1.7765    1.0000 </r>
       <r>   -1.4933    1.0000 </r>
       <r>   -1.1314    1.0000 </r>
       <r>   -0.6220    1.0000 </r>
       <r>   -0.5776    1.0000 </r>
       <r>   -0.4456    1.0000 </r>
       <r>   -0.0403    1.0000 </r>
       <r>    0.1689    1.0000 </r>
       <r>    0.4190    1.0000 </r>
       <r>    0.5545    1.0000 </r>
       <r>    0.7618    1.0000 </r>
       <r>    0.7815    1.0000 </r>
       <r>    1.6762    1.0000 </r>
       <r>    1.9582    1.0000 </r>
       <r>    2.0060    1.0000 </r>
       <r>    2.0653    1.0000 </r>
       <r>    2.2092    1.0000 </r>
       <r>    2.2756    1.0000 </r>
       <r>    2.4219    1.0000 </r>
       <r>    2.5221    1.0000 </r>
       <r>    2.5830    1.0000 </r>
       <r>    2.6757    0.9932 </r>
       <r>    2.7508    0.0022 </r>
       <r>    2.9061    0.0000 </r>
       <r>    2.9363    0.0000 </r>
       <r>    2.9665    0.0000 </r>
       <r>    3.2023    0.0000 </r>
       <r>    3.2070    0.0000 </r>
       <r>    3.3804    0.0000 </r>
       <r>    3.3850    0.0000 </r>
       <r>    3.6217    0.0000 </r>
       <r>    3.7146    0.0000 </r>
       <r>    4.1916    0.0000 </r>
       <r>    4.3453    0.0000 </r>
      </set>
      <set comment="kpoint 4">
       <r>  -60.6028    1.0000 </r>
       <r>  -60.6027    1.0000 </r>
       <r>  -59.1621    1.0000 </r>
       <r>  -59.1611    1.0000 </r>
       <r>  -33.9414    1.0000 </r>
       <r>  -33.9412    1.0000 </r>
       <r>  -33.9412    1.0000 </r>
       <r>  -33.9411    1.0000 </r>
       <r>  -33.9022    1.0000 </r>
       <r>  -33.9020    1.0000 </r>
       <r>  -33.0548    1.0000 </r>
       <r>  -33.0536    1.0000 </r>
       <r>  -32.7775    1.0000 </r>
       <r>  -32.7765    1.0000 </r>
       <r>  -32.5237    1.0000 </r>
       <r>  -32.5228    1.0000 </r>
       <r>   -6.6406    1.0000 </r>
       <r>   -6.6399    1.0000 </r>
       <r>   -5.8860    1.0000 </r>
       <r>   -5.8855    1.0000 </r>
       <r>   -1.6385    1.0000 </r>
       <r>   -1.6381    1.0000 </r>
       <r>   -0.9075    1.0000 </r>
       <r>   -0.9069    1.0000 </r>
       <r>   -0.4022    1.0000 </r>
       <r>   -0.4014    1.0000 </r>
       <r>    0.0752    1.0000 </r>
       <r>    0.0753    1.0000 </r>
       <r>    0.4250    1.0000 </r>
       <r>    0.4253    1.0000 </r>
       <r>    0.5231    1.0000 </r>
       <r>    0.5231    1.0000 </r>
       <r>    1.8772    1.0000 </r>
       <r>    1.8776    1.0000 </r>
       <r>    1.9985    1.0000 </r>
       <r>    1.9990    1.0000 </r>
       <r>    2.2087    1.0000 </r>
       <r>    2.2088    1.0000 </r>
       <r>    2.5126    1.0000 </r>
       <r>    2.5130    1.0000 </r>
       <r>    2.7918    0.0000 </r>
       <r>    2.7921    0.0000 </r>
       <r>    2.8247    0.0000 </r>
       <r>    2.8247    0.0000 </r>
       <r>    2.9858    0.0000 </r>
       <r>    2.9861    0.0000 </r>
       <r>    3.2443    0.0000 </r>
       <r>    3.2444    0.0000 </r>
       <r>    3.4681    0.0000 </r>
       <r>    3.4683    0.0000 </r>
       <r>    3.6955    0.0000 </r>
       <r>    3.6975    0.0000 </r>
       <r>    4.0797    0.0000 </r>
       <r>    4.1084    0.0000 </r>
      </set>
      <set comment="kpoint 5">
       <r>  -60.6029    1.0000 </r>
       <r>  -60.6026    1.0000 </r>
       <r>  -59.1622    1.0000 </r>
       <r>  -59.1611    1.0000 </r>
       <r>  -33.9414    1.0000 </r>
       <r>  -33.9413    1.0000 </r>
       <r>  -33.9411    1.0000 </r>
       <r>  -33.9410    1.0000 </r>
       <r>  -33.9041    1.0000 </r>
       <r>  -33.9000    1.0000 </r>
       <r>  -33.0548    1.0000 </r>
       <r>  -33.0536    1.0000 </r>
       <r>  -32.7794    1.0000 </r>
       <r>  -32.7746    1.0000 </r>
       <r>  -32.5237    1.0000 </r>
       <r>  -32.5228    1.0000 </r>
       <r>   -6.9086    1.0000 </r>
       <r>   -6.3901    1.0000 </r>
       <r>   -5.8659    1.0000 </r>
       <r>   -5.8559    1.0000 </r>
       <r>   -1.8803    1.0000 </r>
       <r>   -1.3991    1.0000 </r>
       <r>   -1.2616    1.0000 </r>
       <r>   -0.6044    1.0000 </r>
       <r>   -0.4919    1.0000 </r>
       <r>   -0.3892    1.0000 </r>
       <r>   -0.2036    1.0000 </r>
       <r>    0.2135    1.0000 </r>
       <r>    0.4134    1.0000 </r>
       <r>    0.6890    1.0000 </r>
       <r>    0.7875    1.0000 </r>
       <r>    1.3465    1.0000 </r>
       <r>    1.5439    1.0000 </r>
       <r>    1.9326    1.0000 </r>
       <r>    1.9662    1.0000 </r>
       <r>    2.0150    1.0000 </r>
       <r>    2.2060    1.0000 </r>
       <r>    2.2194    1.0000 </r>
       <r>    2.3232    1.0000 </r>
       <r>    2.4524    1.0000 </r>
       <r>    2.4702    1.0000 </r>
       <r>    2.6503    1.0000 </r>
       <r>    2.7141    0.4020 </r>
       <r>    2.8497    0.0000 </r>
       <r>    2.9308    0.0000 </r>
       <r>    3.0422    0.0000 </r>
       <r>    3.0651    0.0000 </r>
       <r>    3.1974    0.0000 </r>
       <r>    3.2010    0.0000 </r>
       <r>    3.3694    0.0000 </r>
       <r>    3.6696    0.0000 </r>
       <r>    3.7861    0.0000 </r>
       <r>    4.1112    0.0000 </r>
       <r>    4.6678    0.0000 </r>
      </set>
      <set comment="kpoint 6">
       <r>  -60.6028    1.0000 </r>
       <r>  -60.6027    1.0000 </r>
       <r>  -59.1621    1.0000 </r>
       <r>  -59.1611    1.0000 </r>
       <r>  -33.9414    1.0000 </r>
       <r>  -33.9412    1.0000 </r>
       <r>  -33.9412    1.0000 </r>
       <r>  -33.9411    1.0000 </r>
       <r>  -33.9022    1.0000 </r>
       <r>  -33.9020    1.0000 </r>
       <r>  -33.0548    1.0000 </r>
       <r>  -33.0536    1.0000 </r>
       <r>  -32.7775    1.0000 </r>
       <r>  -32.7765    1.0000 </r>
       <r>  -32.5237    1.0000 </r>
       <r>  -32.5228    1.0000 </r>
       <r>   -6.7561    1.0000 </r>
       <r>   -6.4950    1.0000 </r>
       <r>   -5.9144    1.0000 </r>
       <r>   -5.8856    1.0000 </r>
       <r>   -1.7839    1.0000 </r>
       <r>   -1.4851    1.0000 </r>
       <r>   -1.1873    1.0000 </r>
       <r>   -0.5980    1.0000 </r>
       <r>   -0.4189    1.0000 </r>
       <r>   -0.3898    1.0000 </r>
       <r>   -0.0009    1.0000 </r>
       <r>    0.0232    1.0000 </r>
       <r>    0.3999    1.0000 </r>
       <r>    0.4200    1.0000 </r>
       <r>    0.5266    1.0000 </r>
       <r>    0.9498    1.0000 </r>
       <r>    1.6332    1.0000 </r>
       <r>    1.9169    1.0000 </r>
       <r>    1.9409    1.0000 </r>
       <r>    2.1128    1.0000 </r>
       <r>    2.1988    1.0000 </r>
       <r>    2.2357    1.0000 </r>
       <r>    2.4051    1.0000 </r>
       <r>    2.5089    1.0000 </r>
       <r>    2.5684    1.0000 </r>
       <r>    2.7398    0.0192 </r>
       <r>    2.8110    0.0000 </r>
       <r>    2.8982    0.0000 </r>
       <r>    2.9388    0.0000 </r>
       <r>    2.9654    0.0000 </r>
       <r>    3.1522    0.0000 </r>
       <r>    3.2810    0.0000 </r>
       <r>    3.3978    0.0000 </r>
       <r>    3.4839    0.0000 </r>
       <r>    3.6014    0.0000 </r>
       <r>    3.7594    0.0000 </r>
       <r>    4.0605    0.0000 </r>
       <r>    4.7290    0.0000 </r>
      </set>
      <set comment="kpoint 7">
       <r>  -60.6029    1.0000 </r>
       <r>  -60.6026    1.0000 </r>
       <r>  -59.1622    1.0000 </r>
       <r>  -59.1611    1.0000 </r>
       <r>  -33.9414    1.0000 </r>
       <r>  -33.9413    1.0000 </r>
       <r>  -33.9411    1.0000 </r>
       <r>  -33.9410    1.0000 </r>
       <r>  -33.9042    1.0000 </r>
       <r>  -33.9000    1.0000 </r>
       <r>  -33.0548    1.0000 </r>
       <r>  -33.0536    1.0000 </r>
       <r>  -32.7794    1.0000 </r>
       <r>  -32.7746    1.0000 </r>
       <r>  -32.5237    1.0000 </r>
       <r>  -32.5228    1.0000 </r>
       <r>   -6.6780    1.0000 </r>
       <r>   -6.5862    1.0000 </r>
       <r>   -5.9352    1.0000 </r>
       <r>   -5.8592    1.0000 </r>
       <r>   -1.6595    1.0000 </r>
       <r>   -1.5928    1.0000 </r>
       <r>   -0.9310    1.0000 </r>
       <r>   -0.8339    1.0000 </r>
       <r>   -0.6046    1.0000 </r>
       <r>   -0.3302    1.0000 </r>
       <r>    0.0937    1.0000 </r>
       <r>    0.1861    1.0000 </r>
       <r>    0.3687    1.0000 </r>
       <r>    0.4178    1.0000 </r>
       <r>    0.5384    1.0000 </r>
       <r>    0.6040    1.0000 </r>
       <r>    1.7968    1.0000 </r>
       <r>    1.8628    1.0000 </r>
       <r>    1.9724    1.0000 </r>
       <r>    2.0360    1.0000 </r>
       <r>    2.1189    1.0000 </r>
       <r>    2.3328    1.0000 </r>
       <r>    2.4061    1.0000 </r>
       <r>    2.5222    1.0000 </r>
       <r>    2.5531    1.0000 </r>
       <r>    2.7101    0.5122 </r>
       <r>    2.8003    0.0000 </r>
       <r>    2.9228    0.0000 </r>
       <r>    3.0147    0.0000 </r>
       <r>    3.1054    0.0000 </r>
       <r>    3.1326    0.0000 </r>
       <r>    3.2722    0.0000 </r>
       <r>    3.3952    0.0000 </r>
       <r>    3.4324    0.0000 </r>
       <r>    3.6593    0.0000 </r>
       <r>    3.7341    0.0000 </r>
       <r>    4.3062    0.0000 </r>
       <r>    4.5023    0.0000 </r>
      </set>
      <set comment="kpoint 8">
       <r>  -60.6029    1.0000 </r>
       <r>  -60.6026    1.0000 </r>
       <r>  -59.1622    1.0000 </r>
       <r>  -59.1611    1.0000 </r>
       <r>  -33.9415    1.0000 </r>
       <r>  -33.9414    1.0000 </r>
       <r>  -33.9410    1.0000 </r>
       <r>  -33.9409    1.0000 </r>
       <r>  -33.9057    1.0000 </r>
       <r>  -33.8985    1.0000 </r>
       <r>  -33.0548    1.0000 </r>
       <r>  -33.0536    1.0000 </r>
       <r>  -32.7811    1.0000 </r>
       <r>  -32.7729    1.0000 </r>
       <r>  -32.5237    1.0000 </r>
       <r>  -32.5228    1.0000 </r>
       <r>   -6.8580    1.0000 </r>
       <r>   -6.4640    1.0000 </r>
       <r>   -5.8979    1.0000 </r>
       <r>   -5.8161    1.0000 </r>
       <r>   -1.7167    1.0000 </r>
       <r>   -1.5192    1.0000 </r>
       <r>   -1.0114    1.0000 </r>
       <r>   -0.7559    1.0000 </r>
       <r>   -0.6067    1.0000 </r>
       <r>   -0.5068    1.0000 </r>
       <r>   -0.0395    1.0000 </r>
       <r>    0.2764    1.0000 </r>
       <r>    0.3839    1.0000 </r>
       <r>    0.5626    1.0000 </r>
       <r>    0.7623    1.0000 </r>
       <r>    1.0050    1.0000 </r>
       <r>    1.6230    1.0000 </r>
       <r>    1.8082    1.0000 </r>
       <r>    1.9786    1.0000 </r>
       <r>    2.0138    1.0000 </r>
       <r>    2.1699    1.0000 </r>
       <r>    2.3619    1.0000 </r>
       <r>    2.3767    1.0000 </r>
       <r>    2.4368    1.0000 </r>
       <r>    2.5624    1.0000 </r>
       <r>    2.5945    1.0000 </r>
       <r>    2.7268    0.1247 </r>
       <r>    2.9046    0.0000 </r>
       <r>    2.9362    0.0000 </r>
       <r>    3.0464    0.0000 </r>
       <r>    3.1038    0.0000 </r>
       <r>    3.2794    0.0000 </r>
       <r>    3.3823    0.0000 </r>
       <r>    3.5708    0.0000 </r>
       <r>    3.6978    0.0000 </r>
       <r>    3.8522    0.0000 </r>
       <r>    4.0696    0.0000 </r>
       <r>    4.7873    0.0000 </r>
      </set>
      <set comment="kpoint 9">
       <r>  -60.6029    1.0000 </r>
       <r>  -60.6026    1.0000 </r>
       <r>  -59.1622    1.0000 </r>
       <r>  -59.1611    1.0000 </r>
       <r>  -33.9415    1.0000 </r>
       <r>  -33.9415    1.0000 </r>
       <r>  -33.9410    1.0000 </r>
       <r>  -33.9409    1.0000 </r>
       <r>  -33.9062    1.0000 </r>
       <r>  -33.8980    1.0000 </r>
       <r>  -33.0548    1.0000 </r>
       <r>  -33.0536    1.0000 </r>
       <r>  -32.7818    1.0000 </r>
       <r>  -32.7722    1.0000 </r>
       <r>  -32.5237    1.0000 </r>
       <r>  -32.5228    1.0000 </r>
       <r>   -6.9736    1.0000 </r>
       <r>   -6.3976    1.0000 </r>
       <r>   -5.8393    1.0000 </r>
       <r>   -5.7954    1.0000 </r>
       <r>   -1.8360    1.0000 </r>
       <r>   -1.4079    1.0000 </r>
       <r>   -1.1228    1.0000 </r>
       <r>   -0.7701    1.0000 </r>
       <r>   -0.6439    1.0000 </r>
       <r>   -0.4265    1.0000 </r>
       <r>   -0.2400    1.0000 </r>
       <r>    0.3693    1.0000 </r>
       <r>    0.6661    1.0000 </r>
       <r>    0.7587    1.0000 </r>
       <r>    0.9882    1.0000 </r>
       <r>    1.2990    1.0000 </r>
       <r>    1.6232    1.0000 </r>
       <r>    1.6583    1.0000 </r>
       <r>    1.9931    1.0000 </r>
       <r>    2.0889    1.0000 </r>
       <r>    2.0994    1.0000 </r>
       <r>    2.1803    1.0000 </r>
       <r>    2.3146    1.0000 </r>
       <r>    2.4950    1.0000 </r>
       <r>    2.5331    1.0000 </r>
       <r>    2.6050    1.0000 </r>
       <r>    2.6527    1.0000 </r>
       <r>    2.8418    0.0000 </r>
       <r>    2.8666    0.0000 </r>
       <r>    2.9401    0.0000 </r>
       <r>    3.0063    0.0000 </r>
       <r>    3.0694    0.0000 </r>
       <r>    3.1471    0.0000 </r>
       <r>    3.6184    0.0000 </r>
       <r>    3.7583    0.0000 </r>
       <r>    3.9451    0.0000 </r>
       <r>    4.3340    0.0000 </r>
       <r>    4.6046    0.0000 </r>
      </set>
      <set comment="kpoint 10">
       <r>  -60.6029    1.0000 </r>
       <r>  -60.6026    1.0000 </r>
       <r>  -59.1622    1.0000 </r>
       <r>  -59.1611    1.0000 </r>
       <r>  -33.9414    1.0000 </r>
       <r>  -33.9414    1.0000 </r>
       <r>  -33.9411    1.0000 </r>
       <r>  -33.9410    1.0000 </r>
       <r>  -33.9042    1.0000 </r>
       <r>  -33.9000    1.0000 </r>
       <r>  -33.0548    1.0000 </r>
       <r>  -33.0536    1.0000 </r>
       <r>  -32.7794    1.0000 </r>
       <r>  -32.7746    1.0000 </r>
       <r>  -32.5237    1.0000 </r>
       <r>  -32.5228    1.0000 </r>
       <r>   -6.6518    1.0000 </r>
       <r>   -6.5566    1.0000 </r>
       <r>   -5.9995    1.0000 </r>
       <r>   -5.8620    1.0000 </r>
       <r>   -1.7276    1.0000 </r>
       <r>   -1.5131    1.0000 </r>
       <r>   -1.0989    1.0000 </r>
       <r>   -0.6668    1.0000 </r>
       <r>   -0.5830    1.0000 </r>
       <r>   -0.2274    1.0000 </r>
       <r>    0.0042    1.0000 </r>
       <r>    0.1470    1.0000 </r>
       <r>    0.2196    1.0000 </r>
       <r>    0.3159    1.0000 </r>
       <r>    0.5532    1.0000 </r>
       <r>    1.2843    1.0000 </r>
       <r>    1.3433    1.0000 </r>
       <r>    1.8667    1.0000 </r>
       <r>    1.8847    1.0000 </r>
       <r>    2.0130    1.0000 </r>
       <r>    2.1165    1.0000 </r>
       <r>    2.2796    1.0000 </r>
       <r>    2.4475    1.0000 </r>
       <r>    2.4515    1.0000 </r>
       <r>    2.4613    1.0000 </r>
       <r>    2.5599    1.0000 </r>
       <r>    2.8047    0.0000 </r>
       <r>    2.9097    0.0000 </r>
       <r>    2.9379    0.0000 </r>
       <r>    3.1523    0.0000 </r>
       <r>    3.2473    0.0000 </r>
       <r>    3.3016    0.0000 </r>
       <r>    3.3540    0.0000 </r>
       <r>    3.4808    0.0000 </r>
       <r>    3.7023    0.0000 </r>
       <r>    3.9354    0.0000 </r>
       <r>    4.5982    0.0000 </r>
       <r>    4.7579    0.0000 </r>
      </set>
      <set comment="kpoint 11">
       <r>  -60.6029    1.0000 </r>
       <r>  -60.6026    1.0000 </r>
       <r>  -59.1622    1.0000 </r>
       <r>  -59.1611    1.0000 </r>
       <r>  -33.9415    1.0000 </r>
       <r>  -33.9414    1.0000 </r>
       <r>  -33.9410    1.0000 </r>
       <r>  -33.9409    1.0000 </r>
       <r>  -33.9057    1.0000 </r>
       <r>  -33.8985    1.0000 </r>
       <r>  -33.0548    1.0000 </r>
       <r>  -33.0536    1.0000 </r>
       <r>  -32.7811    1.0000 </r>
       <r>  -32.7729    1.0000 </r>
       <r>  -32.5237    1.0000 </r>
       <r>  -32.5228    1.0000 </r>
       <r>   -6.6925    1.0000 </r>
       <r>   -6.5318    1.0000 </r>
       <r>   -6.0269    1.0000 </r>
       <r>   -5.8195    1.0000 </r>
       <r>   -1.6524    1.0000 </r>
       <r>   -1.5718    1.0000 </r>
       <r>   -0.8476    1.0000 </r>
       <r>   -0.8264    1.0000 </r>
       <r>   -0.6920    1.0000 </r>
       <r>   -0.2607    1.0000 </r>
       <r>   -0.1086    1.0000 </r>
       <r>    0.0952    1.0000 </r>
       <r>    0.1661    1.0000 </r>
       <r>    0.6846    1.0000 </r>
       <r>    0.8089    1.0000 </r>
       <r>    0.8925    1.0000 </r>
       <r>    1.6455    1.0000 </r>
       <r>    1.8036    1.0000 </r>
       <r>    1.8664    1.0000 </r>
       <r>    1.9460    1.0000 </r>
       <r>    2.0024    1.0000 </r>
       <r>    2.2188    1.0000 </r>
       <r>    2.3118    1.0000 </r>
       <r>    2.4897    1.0000 </r>
       <r>    2.5225    1.0000 </r>
       <r>    2.5648    1.0000 </r>
       <r>    2.6936    0.8845 </r>
       <r>    2.8904    0.0000 </r>
       <r>    2.9489    0.0000 </r>
       <r>    3.0561    0.0000 </r>
       <r>    3.1262    0.0000 </r>
       <r>    3.2577    0.0000 </r>
       <r>    3.5855    0.0000 </r>
       <r>    3.7019    0.0000 </r>
       <r>    3.7786    0.0000 </r>
       <r>    4.0724    0.0000 </r>
       <r>    4.5370    0.0000 </r>
       <r>    5.0073    0.0000 </r>
      </set>
      <set comment="kpoint 12">
       <r>  -60.6029    1.0000 </r>
       <r>  -60.6026    1.0000 </r>
       <r>  -59.1622    1.0000 </r>
       <r>  -59.1611    1.0000 </r>
       <r>  -33.9416    1.0000 </r>
       <r>  -33.9415    1.0000 </r>
       <r>  -33.9410    1.0000 </r>
       <r>  -33.9409    1.0000 </r>
       <r>  -33.9062    1.0000 </r>
       <r>  -33.8980    1.0000 </r>
       <r>  -33.0548    1.0000 </r>
       <r>  -33.0536    1.0000 </r>
       <r>  -32.7818    1.0000 </r>
       <r>  -32.7722    1.0000 </r>
       <r>  -32.5237    1.0000 </r>
       <r>  -32.5228    1.0000 </r>
       <r>   -6.7991    1.0000 </r>
       <r>   -6.4859    1.0000 </r>
       <r>   -5.9707    1.0000 </r>
       <r>   -5.7978    1.0000 </r>
       <r>   -1.6508    1.0000 </r>
       <r>   -1.5683    1.0000 </r>
       <r>   -0.8660    1.0000 </r>
       <r>   -0.8571    1.0000 </r>
       <r>   -0.5801    1.0000 </r>
       <r>   -0.4330    1.0000 </r>
       <r>   -0.1990    1.0000 </r>
       <r>    0.2571    1.0000 </r>
       <r>    0.3312    1.0000 </r>
       <r>    0.4752    1.0000 </r>
       <r>    0.9407    1.0000 </r>
       <r>    1.2036    1.0000 </r>
       <r>    1.3023    1.0000 </r>
       <r>    1.7880    1.0000 </r>
       <r>    1.9217    1.0000 </r>
       <r>    1.9871    1.0000 </r>
       <r>    2.0627    1.0000 </r>
       <r>    2.3301    1.0000 </r>
       <r>    2.4799    1.0000 </r>
       <r>    2.4953    1.0000 </r>
       <r>    2.4990    1.0000 </r>
       <r>    2.5711    1.0000 </r>
       <r>    2.6119    1.0000 </r>
       <r>    2.8682    0.0000 </r>
       <r>    2.9055    0.0000 </r>
       <r>    2.9938    0.0000 </r>
       <r>    3.1123    0.0000 </r>
       <r>    3.2003    0.0000 </r>
       <r>    3.5046    0.0000 </r>
       <r>    3.6921    0.0000 </r>
       <r>    3.8132    0.0000 </r>
       <r>    4.1967    0.0000 </r>
       <r>    4.3118    0.0000 </r>
       <r>    4.9661    0.0000 </r>
      </set>
      <set comment="kpoint 13">
       <r>  -60.6029    1.0000 </r>
       <r>  -60.6026    1.0000 </r>
       <r>  -59.1622    1.0000 </r>
       <r>  -59.1611    1.0000 </r>
       <r>  -33.9415    1.0000 </r>
       <r>  -33.9415    1.0000 </r>
       <r>  -33.9410    1.0000 </r>
       <r>  -33.9409    1.0000 </r>
       <r>  -33.9062    1.0000 </r>
       <r>  -33.8980    1.0000 </r>
       <r>  -33.0548    1.0000 </r>
       <r>  -33.0536    1.0000 </r>
       <r>  -32.7818    1.0000 </r>
       <r>  -32.7722    1.0000 </r>
       <r>  -32.5237    1.0000 </r>
       <r>  -32.5228    1.0000 </r>
       <r>   -6.6945    1.0000 </r>
       <r>   -6.5037    1.0000 </r>
       <r>   -6.0788    1.0000 </r>
       <r>   -5.7990    1.0000 </r>
       <r>   -1.6487    1.0000 </r>
       <r>   -1.5715    1.0000 </r>
       <r>   -0.9109    1.0000 </r>
       <r>   -0.6519    1.0000 </r>
       <r>   -0.6391    1.0000 </r>
       <r>   -0.3958    1.0000 </r>
       <r>   -0.1784    1.0000 </r>
       <r>   -0.0063    1.0000 </r>
       <r>    0.0894    1.0000 </r>
       <r>    0.9306    1.0000 </r>
       <r>    1.0516    1.0000 </r>
       <r>    1.1906    1.0000 </r>
       <r>    1.3554    1.0000 </r>
       <r>    1.5293    1.0000 </r>
       <r>    1.8716    1.0000 </r>
       <r>    1.8987    1.0000 </r>
       <r>    1.9255    1.0000 </r>
       <r>    2.1205    1.0000 </r>
       <r>    2.2664    1.0000 </r>
       <r>    2.5160    1.0000 </r>
       <r>    2.5672    1.0000 </r>
       <r>    2.5770    1.0000 </r>
       <r>    2.6620    0.9997 </r>
       <r>    2.8519    0.0000 </r>
       <r>    2.9191    0.0000 </r>
       <r>    2.9896    0.0000 </r>
       <r>    3.0206    0.0000 </r>
       <r>    3.2984    0.0000 </r>
       <r>    3.7108    0.0000 </r>
       <r>    3.8076    0.0000 </r>
       <r>    3.8448    0.0000 </r>
       <r>    4.4105    0.0000 </r>
       <r>    4.7559    0.0000 </r>
       <r>    5.1621    0.0000 </r>
      </set>
      <set comment="kpoint 14">
       <r>  -60.6029    1.0000 </r>
       <r>  -60.6026    1.0000 </r>
       <r>  -59.1622    1.0000 </r>
       <r>  -59.1611    1.0000 </r>
       <r>  -33.9415    1.0000 </r>
       <r>  -33.9413    1.0000 </r>
       <r>  -33.9411    1.0000 </r>
       <r>  -33.9410    1.0000 </r>
       <r>  -33.9041    1.0000 </r>
       <r>  -33.9000    1.0000 </r>
       <r>  -33.0548    1.0000 </r>
       <r>  -33.0536    1.0000 </r>
       <r>  -32.7794    1.0000 </r>
       <r>  -32.7746    1.0000 </r>
       <r>  -32.5237    1.0000 </r>
       <r>  -32.5228    1.0000 </r>
       <r>   -6.7458    1.0000 </r>
       <r>   -6.5115    1.0000 </r>
       <r>   -5.9428    1.0000 </r>
       <r>   -5.8681    1.0000 </r>
       <r>   -1.6794    1.0000 </r>
       <r>   -1.5577    1.0000 </r>
       <r>   -0.9571    1.0000 </r>
       <r>   -0.6539    1.0000 </r>
       <r>   -0.5579    1.0000 </r>
       <r>   -0.3594    1.0000 </r>
       <r>   -0.1055    1.0000 </r>
       <r>    0.1497    1.0000 </r>
       <r>    0.2623    1.0000 </r>
       <r>    0.5380    1.0000 </r>
       <r>    0.5747    1.0000 </r>
       <r>    1.1903    1.0000 </r>
       <r>    1.3289    1.0000 </r>
       <r>    1.8628    1.0000 </r>
       <r>    1.9070    1.0000 </r>
       <r>    2.0273    1.0000 </r>
       <r>    2.3042    1.0000 </r>
       <r>    2.3075    1.0000 </r>
       <r>    2.3486    1.0000 </r>
       <r>    2.3782    1.0000 </r>
       <r>    2.4980    1.0000 </r>
       <r>    2.5832    1.0000 </r>
       <r>    2.6765    0.9919 </r>
       <r>    2.9485    0.0000 </r>
       <r>    3.0061    0.0000 </r>
       <r>    3.0418    0.0000 </r>
       <r>    3.1311    0.0000 </r>
       <r>    3.2269    0.0000 </r>
       <r>    3.3716    0.0000 </r>
       <r>    3.3917    0.0000 </r>
       <r>    3.6679    0.0000 </r>
       <r>    3.8380    0.0000 </r>
       <r>    4.3567    0.0000 </r>
       <r>    4.9790    0.0000 </r>
      </set>
      <set comment="kpoint 15">
       <r>  -60.6028    1.0000 </r>
       <r>  -60.6027    1.0000 </r>
       <r>  -59.1621    1.0000 </r>
       <r>  -59.1611    1.0000 </r>
       <r>  -33.9414    1.0000 </r>
       <r>  -33.9412    1.0000 </r>
       <r>  -33.9412    1.0000 </r>
       <r>  -33.9411    1.0000 </r>
       <r>  -33.9022    1.0000 </r>
       <r>  -33.9020    1.0000 </r>
       <r>  -33.0548    1.0000 </r>
       <r>  -33.0536    1.0000 </r>
       <r>  -32.7775    1.0000 </r>
       <r>  -32.7765    1.0000 </r>
       <r>  -32.5237    1.0000 </r>
       <r>  -32.5228    1.0000 </r>
       <r>   -6.6123    1.0000 </r>
       <r>   -6.6116    1.0000 </r>
       <r>   -5.9307    1.0000 </r>
       <r>   -5.9302    1.0000 </r>
       <r>   -1.6198    1.0000 </r>
       <r>   -1.6194    1.0000 </r>
       <r>   -0.7727    1.0000 </r>
       <r>   -0.7721    1.0000 </r>
       <r>   -0.4622    1.0000 </r>
       <r>   -0.4614    1.0000 </r>
       <r>    0.0601    1.0000 </r>
       <r>    0.0605    1.0000 </r>
       <r>    0.2896    1.0000 </r>
       <r>    0.2903    1.0000 </r>
       <r>    0.8141    1.0000 </r>
       <r>    0.8144    1.0000 </r>
       <r>    1.6518    1.0000 </r>
       <r>    1.6519    1.0000 </r>
       <r>    1.9585    1.0000 </r>
       <r>    1.9589    1.0000 </r>
       <r>    2.2215    1.0000 </r>
       <r>    2.2216    1.0000 </r>
       <r>    2.4052    1.0000 </r>
       <r>    2.4056    1.0000 </r>
       <r>    2.5796    1.0000 </r>
       <r>    2.5797    1.0000 </r>
       <r>    2.7721    0.0000 </r>
       <r>    2.7726    0.0000 </r>
       <r>    3.0238    0.0000 </r>
       <r>    3.0239    0.0000 </r>
       <r>    3.1781    0.0000 </r>
       <r>    3.1781    0.0000 </r>
       <r>    3.3459    0.0000 </r>
       <r>    3.3460    0.0000 </r>
       <r>    3.7561    0.0000 </r>
       <r>    3.7566    0.0000 </r>
       <r>    4.7261    0.0000 </r>
       <r>    4.7388    0.0000 </r>
      </set>
      <set comment="kpoint 16">
       <r>  -60.6029    1.0000 </r>
       <r>  -60.6026    1.0000 </r>
       <r>  -59.1622    1.0000 </r>
       <r>  -59.1611    1.0000 </r>
       <r>  -33.9416    1.0000 </r>
       <r>  -33.9415    1.0000 </r>
       <r>  -33.9410    1.0000 </r>
       <r>  -33.9409    1.0000 </r>
       <r>  -33.9062    1.0000 </r>
       <r>  -33.8980    1.0000 </r>
       <r>  -33.0548    1.0000 </r>
       <r>  -33.0536    1.0000 </r>
       <r>  -32.7818    1.0000 </r>
       <r>  -32.7722    1.0000 </r>
       <r>  -32.5237    1.0000 </r>
       <r>  -32.5228    1.0000 </r>
       <r>   -6.9009    1.0000 </r>
       <r>   -6.4520    1.0000 </r>
       <r>   -5.8616    1.0000 </r>
       <r>   -5.8058    1.0000 </r>
       <r>   -1.7261    1.0000 </r>
       <r>   -1.5100    1.0000 </r>
       <r>   -1.0112    1.0000 </r>
       <r>   -0.7815    1.0000 </r>
       <r>   -0.6398    1.0000 </r>
       <r>   -0.6093    1.0000 </r>
       <r>   -0.0582    1.0000 </r>
       <r>    0.2611    1.0000 </r>
       <r>    0.7158    1.0000 </r>
       <r>    0.7197    1.0000 </r>
       <r>    0.7591    1.0000 </r>
       <r>    0.7863    1.0000 </r>
       <r>    1.6045    1.0000 </r>
       <r>    1.7624    1.0000 </r>
       <r>    2.0552    1.0000 </r>
       <r>    2.0902    1.0000 </r>
       <r>    2.1155    1.0000 </r>
       <r>    2.3138    1.0000 </r>
       <r>    2.4564    1.0000 </r>
       <r>    2.4943    1.0000 </r>
       <r>    2.5561    1.0000 </r>
       <r>    2.6084    1.0000 </r>
       <r>    2.8969    0.0000 </r>
       <r>    2.9288    0.0000 </r>
       <r>    2.9547    0.0000 </r>
       <r>    3.0238    0.0000 </r>
       <r>    3.0620    0.0000 </r>
       <r>    3.1352    0.0000 </r>
       <r>    3.2591    0.0000 </r>
       <r>    3.5627    0.0000 </r>
       <r>    3.6773    0.0000 </r>
       <r>    3.9652    0.0000 </r>
       <r>    4.2656    0.0000 </r>
       <r>    4.5405    0.0000 </r>
      </set>
      <set comment="kpoint 17">
       <r>  -60.6029    1.0000 </r>
       <r>  -60.6026    1.0000 </r>
       <r>  -59.1622    1.0000 </r>
       <r>  -59.1611    1.0000 </r>
       <r>  -33.9414    1.0000 </r>
       <r>  -33.9413    1.0000 </r>
       <r>  -33.9411    1.0000 </r>
       <r>  -33.9410    1.0000 </r>
       <r>  -33.9041    1.0000 </r>
       <r>  -33.9000    1.0000 </r>
       <r>  -33.0548    1.0000 </r>
       <r>  -33.0536    1.0000 </r>
       <r>  -32.7794    1.0000 </r>
       <r>  -32.7746    1.0000 </r>
       <r>  -32.5237    1.0000 </r>
       <r>  -32.5228    1.0000 </r>
       <r>   -6.6489    1.0000 </r>
       <r>   -6.5533    1.0000 </r>
       <r>   -6.0138    1.0000 </r>
       <r>   -5.8747    1.0000 </r>
       <r>   -1.6360    1.0000 </r>
       <r>   -1.5964    1.0000 </r>
       <r>   -0.7142    1.0000 </r>
       <r>   -0.6480    1.0000 </r>
       <r>   -0.6412    1.0000 </r>
       <r>   -0.3953    1.0000 </r>
       <r>   -0.0998    1.0000 </r>
       <r>    0.0197    1.0000 </r>
       <r>    0.0583    1.0000 </r>
       <r>    0.5748    1.0000 </r>
       <r>    1.0776    1.0000 </r>
       <r>    1.2827    1.0000 </r>
       <r>    1.3313    1.0000 </r>
       <r>    1.3436    1.0000 </r>
       <r>    1.8611    1.0000 </r>
       <r>    1.8932    1.0000 </r>
       <r>    2.0916    1.0000 </r>
       <r>    2.3041    1.0000 </r>
       <r>    2.4245    1.0000 </r>
       <r>    2.4300    1.0000 </r>
       <r>    2.4307    1.0000 </r>
       <r>    2.5271    1.0000 </r>
       <r>    2.6177    1.0000 </r>
       <r>    2.9008    0.0000 </r>
       <r>    3.0735    0.0000 </r>
       <r>    3.1101    0.0000 </r>
       <r>    3.1564    0.0000 </r>
       <r>    3.1774    0.0000 </r>
       <r>    3.3448    0.0000 </r>
       <r>    3.5221    0.0000 </r>
       <r>    3.8006    0.0000 </r>
       <r>    3.8280    0.0000 </r>
       <r>    4.6872    0.0000 </r>
       <r>    4.9479    0.0000 </r>
      </set>
      <set comment="kpoint 18">
       <r>  -60.6029    1.0000 </r>
       <r>  -60.6026    1.0000 </r>
       <r>  -59.1622    1.0000 </r>
       <r>  -59.1611    1.0000 </r>
       <r>  -33.9416    1.0000 </r>
       <r>  -33.9415    1.0000 </r>
       <r>  -33.9410    1.0000 </r>
       <r>  -33.9409    1.0000 </r>
       <r>  -33.9062    1.0000 </r>
       <r>  -33.8980    1.0000 </r>
       <r>  -33.0548    1.0000 </r>
       <r>  -33.0536    1.0000 </r>
       <r>  -32.7818    1.0000 </r>
       <r>  -32.7722    1.0000 </r>
       <r>  -32.5237    1.0000 </r>
       <r>  -32.5228    1.0000 </r>
       <r>   -6.7255    1.0000 </r>
       <r>   -6.5447    1.0000 </r>
       <r>   -5.9629    1.0000 </r>
       <r>   -5.8125    1.0000 </r>
       <r>   -1.6820    1.0000 </r>
       <r>   -1.5472    1.0000 </r>
       <r>   -0.9832    1.0000 </r>
       <r>   -0.8562    1.0000 </r>
       <r>   -0.7530    1.0000 </r>
       <r>   -0.4228    1.0000 </r>
       <r>    0.1500    1.0000 </r>
       <r>    0.3033    1.0000 </r>
       <r>    0.3376    1.0000 </r>
       <r>    0.4100    1.0000 </r>
       <r>    0.6281    1.0000 </r>
       <r>    0.7271    1.0000 </r>
       <r>    1.7061    1.0000 </r>
       <r>    1.9189    1.0000 </r>
       <r>    1.9748    1.0000 </r>
       <r>    2.0054    1.0000 </r>
       <r>    2.0633    1.0000 </r>
       <r>    2.1604    1.0000 </r>
       <r>    2.4294    1.0000 </r>
       <r>    2.4800    1.0000 </r>
       <r>    2.6394    1.0000 </r>
       <r>    2.6558    0.9999 </r>
       <r>    2.8967    0.0000 </r>
       <r>    2.9922    0.0000 </r>
       <r>    3.0667    0.0000 </r>
       <r>    3.1006    0.0000 </r>
       <r>    3.2122    0.0000 </r>
       <r>    3.2442    0.0000 </r>
       <r>    3.4724    0.0000 </r>
       <r>    3.5870    0.0000 </r>
       <r>    3.7063    0.0000 </r>
       <r>    4.1067    0.0000 </r>
       <r>    4.2211    0.0000 </r>
       <r>    4.7431    0.0000 </r>
      </set>
      <set comment="kpoint 19">
       <r>  -60.6029    1.0000 </r>
       <r>  -60.6026    1.0000 </r>
       <r>  -59.1622    1.0000 </r>
       <r>  -59.1611    1.0000 </r>
       <r>  -33.9415    1.0000 </r>
       <r>  -33.9414    1.0000 </r>
       <r>  -33.9410    1.0000 </r>
       <r>  -33.9409    1.0000 </r>
       <r>  -33.9057    1.0000 </r>
       <r>  -33.8985    1.0000 </r>
       <r>  -33.0548    1.0000 </r>
       <r>  -33.0536    1.0000 </r>
       <r>  -32.7811    1.0000 </r>
       <r>  -32.7729    1.0000 </r>
       <r>  -32.5237    1.0000 </r>
       <r>  -32.5228    1.0000 </r>
       <r>   -6.7226    1.0000 </r>
       <r>   -6.5653    1.0000 </r>
       <r>   -5.9145    1.0000 </r>
       <r>   -5.8370    1.0000 </r>
       <r>   -1.6947    1.0000 </r>
       <r>   -1.5564    1.0000 </r>
       <r>   -1.0029    1.0000 </r>
       <r>   -0.8195    1.0000 </r>
       <r>   -0.7332    1.0000 </r>
       <r>   -0.4419    1.0000 </r>
       <r>    0.1594    1.0000 </r>
       <r>    0.2338    1.0000 </r>
       <r>    0.4100    1.0000 </r>
       <r>    0.4860    1.0000 </r>
       <r>    0.5688    1.0000 </r>
       <r>    0.5987    1.0000 </r>
       <r>    1.6594    1.0000 </r>
       <r>    1.9495    1.0000 </r>
       <r>    1.9879    1.0000 </r>
       <r>    2.0457    1.0000 </r>
       <r>    2.0943    1.0000 </r>
       <r>    2.2167    1.0000 </r>
       <r>    2.3896    1.0000 </r>
       <r>    2.5653    1.0000 </r>
       <r>    2.6232    1.0000 </r>
       <r>    2.7433    0.0103 </r>
       <r>    2.9617    0.0000 </r>
       <r>    3.0254    0.0000 </r>
       <r>    3.1349    0.0000 </r>
       <r>    3.1986    0.0000 </r>
       <r>    3.3039    0.0000 </r>
       <r>    3.3996    0.0000 </r>
       <r>    3.4221    0.0000 </r>
       <r>    3.4629    0.0000 </r>
       <r>    3.6059    0.0000 </r>
       <r>    3.8044    0.0000 </r>
       <r>    4.0122    0.0000 </r>
       <r>    4.3609    0.0000 </r>
      </set>
      <set comment="kpoint 20">
       <r>  -60.6029    1.0000 </r>
       <r>  -60.6026    1.0000 </r>
[...]
       <r>   -5.9554    1.0000 </r>
       <r>   -5.9548    1.0000 </r>
       <r>   -2.0689    1.0000 </r>
       <r>   -1.6477    1.0000 </r>
       <r>   -1.2973    1.0000 </r>
       <r>   -0.5404    1.0000 </r>
       <r>   -0.3579    1.0000 </r>
       <r>   -0.3578    1.0000 </r>
       <r>   -0.1359    1.0000 </r>
       <r>   -0.1354    1.0000 </r>
       <r>    0.4401    1.0000 </r>
       <r>    0.4508    1.0000 </r>
       <r>    0.9894    1.0000 </r>
       <r>    1.5576    1.0000 </r>
       <r>    1.5865    1.0000 </r>
       <r>    1.9130    1.0000 </r>
       <r>    1.9133    1.0000 </r>
       <r>    1.9424    1.0000 </r>
       <r>    2.1297    1.0000 </r>
       <r>    2.2575    1.0000 </r>
       <r>    2.2576    1.0000 </r>
       <r>    2.2979    1.0000 </r>
       <r>    2.4660    1.0000 </r>
       <r>    2.6951    0.8624 </r>
       <r>    2.7268    0.1249 </r>
       <r>    3.0795    0.0000 </r>
       <r>    3.0798    0.0000 </r>
       <r>    3.2997    0.0000 </r>
       <r>    3.3508    0.0000 </r>
       <r>    3.3508    0.0000 </r>
       <r>    3.3522    0.0000 </r>
       <r>    3.4820    0.0000 </r>
       <r>    3.7911    0.0000 </r>
       <r>    3.8280    0.0000 </r>
       <r>    4.2525    0.0000 </r>
       <r>    4.5228    0.0000 </r>
      </set>
      <set comment="kpoint 30">
       <r>  -60.6029    1.0000 </r>
       <r>  -60.6026    1.0000 </r>
       <r>  -59.1622    1.0000 </r>
       <r>  -59.1611    1.0000 </r>
       <r>  -33.9416    1.0000 </r>
       <r>  -33.9415    1.0000 </r>
       <r>  -33.9410    1.0000 </r>
       <r>  -33.9409    1.0000 </r>
       <r>  -33.9062    1.0000 </r>
       <r>  -33.8980    1.0000 </r>
       <r>  -33.0548    1.0000 </r>
       <r>  -33.0536    1.0000 </r>
       <r>  -32.7818    1.0000 </r>
       <r>  -32.7722    1.0000 </r>
       <r>  -32.5237    1.0000 </r>
       <r>  -32.5228    1.0000 </r>
       <r>   -6.7483    1.0000 </r>
       <r>   -6.2334    1.0000 </r>
       <r>   -6.0049    1.0000 </r>
       <r>   -6.0044    1.0000 </r>
       <r>   -2.0881    1.0000 </r>
       <r>   -1.7713    1.0000 </r>
       <r>   -1.2622    1.0000 </r>
       <r>   -0.8896    1.0000 </r>
       <r>   -0.2923    1.0000 </r>
       <r>   -0.2917    1.0000 </r>
       <r>   -0.0352    1.0000 </r>
       <r>   -0.0342    1.0000 </r>
       <r>    0.2013    1.0000 </r>
       <r>    0.4702    1.0000 </r>
       <r>    0.9126    1.0000 </r>
       <r>    1.5403    1.0000 </r>
       <r>    1.5603    1.0000 </r>
       <r>    1.7751    1.0000 </r>
       <r>    1.9624    1.0000 </r>
       <r>    1.9627    1.0000 </r>
       <r>    2.1011    1.0000 </r>
       <r>    2.2380    1.0000 </r>
       <r>    2.2746    1.0000 </r>
       <r>    2.2748    1.0000 </r>
       <r>    2.6225    1.0000 </r>
       <r>    2.6952    0.8612 </r>
       <r>    2.7544    0.0010 </r>
       <r>    3.2929    0.0000 </r>
       <r>    3.2933    0.0000 </r>
       <r>    3.3687    0.0000 </r>
       <r>    3.4870    0.0000 </r>
       <r>    3.4877    0.0000 </r>
       <r>    3.4877    0.0000 </r>
       <r>    3.8204    0.0000 </r>
       <r>    3.8205    0.0000 </r>
       <r>    3.9409    0.0000 </r>
       <r>    3.9487    0.0000 </r>
       <r>    4.3415    0.0000 </r>
      </set>
     </set>
    </set>
   </array>
  </eigenvalues>
  <separator name="orbital magnetization" >
   <v name="MAGDIPOLOUT">      0.00000000      0.00000000      0.00000000</v>
  </separator>
  <dos>
   <i name="efermi">      2.71055147 </i>
   <total>
    <array>
     <dimension dim="1">gridpoints</dimension>
     <dimension dim="2">spin</dimension>
     <field>energy</field>
     <field>total</field>
     <field>integrated</field>
     <set>
      <set comment="spin 1">
       <r>   -63.8912     0.0000     0.0000 </r>
       <r>   -63.6500     0.0000     0.0000 </r>
       <r>   -63.4089     0.0000     0.0000 </r>
       <r>   -63.1677     0.0000     0.0000 </r>
       <r>   -62.9266     0.0000     0.0000 </r>
       <r>   -62.6855     0.0000     0.0000 </r>
       <r>   -62.4443     0.0000     0.0000 </r>
       <r>   -62.2032     0.0000     0.0000 </r>
       <r>   -61.9620     0.0000     0.0000 </r>
       <r>   -61.7209     0.0000     0.0000 </r>
       <r>   -61.4798     0.0000     0.0000 </r>
       <r>   -61.2386     0.0000     0.0000 </r>
       <r>   -60.9975     0.0000     0.0000 </r>
       <r>   -60.7564     0.0000     0.0000 </r>
       <r>   -60.5152    16.5880     4.0000 </r>
       <r>   -60.2741     0.0000     4.0000 </r>
       <r>   -60.0329     0.0000     4.0000 </r>
       <r>   -59.7918     0.0000     4.0000 </r>
       <r>   -59.5507     0.0000     4.0000 </r>
       <r>   -59.3095     0.0000     4.0000 </r>
       <r>   -59.0684    16.5880     8.0000 </r>
       <r>   -58.8272     0.0000     8.0000 </r>
       <r>   -58.5861     0.0000     8.0000 </r>
       <r>   -58.3450     0.0000     8.0000 </r>
       <r>   -58.1038     0.0000     8.0000 </r>
       <r>   -57.8627     0.0000     8.0000 </r>
       <r>   -57.6216     0.0000     8.0000 </r>
       <r>   -57.3804     0.0000     8.0000 </r>
       <r>   -57.1393     0.0000     8.0000 </r>
       <r>   -56.8981     0.0000     8.0000 </r>
       <r>   -56.6570     0.0000     8.0000 </r>
       <r>   -56.4159     0.0000     8.0000 </r>
       <r>   -56.1747     0.0000     8.0000 </r>
       <r>   -55.9336     0.0000     8.0000 </r>
       <r>   -55.6924     0.0000     8.0000 </r>
       <r>   -55.4513     0.0000     8.0000 </r>
       <r>   -55.2102     0.0000     8.0000 </r>
       <r>   -54.9690     0.0000     8.0000 </r>
       <r>   -54.7279     0.0000     8.0000 </r>
       <r>   -54.4868     0.0000     8.0000 </r>
       <r>   -54.2456     0.0000     8.0000 </r>
       <r>   -54.0045     0.0000     8.0000 </r>
       <r>   -53.7633     0.0000     8.0000 </r>
       <r>   -53.5222     0.0000     8.0000 </r>
       <r>   -53.2811     0.0000     8.0000 </r>
       <r>   -53.0399     0.0000     8.0000 </r>
       <r>   -52.7988     0.0000     8.0000 </r>
       <r>   -52.5577     0.0000     8.0000 </r>
       <r>   -52.3165     0.0000     8.0000 </r>
       <r>   -52.0754     0.0000     8.0000 </r>
       <r>   -51.8342     0.0000     8.0000 </r>
       <r>   -51.5931     0.0000     8.0000 </r>
       <r>   -51.3520     0.0000     8.0000 </r>
       <r>   -51.1108     0.0000     8.0000 </r>
       <r>   -50.8697     0.0000     8.0000 </r>
       <r>   -50.6285     0.0000     8.0000 </r>
       <r>   -50.3874     0.0000     8.0000 </r>
       <r>   -50.1463     0.0000     8.0000 </r>
       <r>   -49.9051     0.0000     8.0000 </r>
       <r>   -49.6640     0.0000     8.0000 </r>
       <r>   -49.4229     0.0000     8.0000 </r>
       <r>   -49.1817     0.0000     8.0000 </r>
       <r>   -48.9406     0.0000     8.0000 </r>
       <r>   -48.6994     0.0000     8.0000 </r>
       <r>   -48.4583     0.0000     8.0000 </r>
       <r>   -48.2172     0.0000     8.0000 </r>
       <r>   -47.9760     0.0000     8.0000 </r>
       <r>   -47.7349     0.0000     8.0000 </r>
       <r>   -47.4937     0.0000     8.0000 </r>
       <r>   -47.2526     0.0000     8.0000 </r>
       <r>   -47.0115     0.0000     8.0000 </r>
       <r>   -46.7703     0.0000     8.0000 </r>
       <r>   -46.5292     0.0000     8.0000 </r>
       <r>   -46.2881     0.0000     8.0000 </r>
       <r>   -46.0469     0.0000     8.0000 </r>
       <r>   -45.8058     0.0000     8.0000 </r>
       <r>   -45.5646     0.0000     8.0000 </r>
       <r>   -45.3235     0.0000     8.0000 </r>
       <r>   -45.0824     0.0000     8.0000 </r>
       <r>   -44.8412     0.0000     8.0000 </r>
       <r>   -44.6001     0.0000     8.0000 </r>
       <r>   -44.3589     0.0000     8.0000 </r>
       <r>   -44.1178     0.0000     8.0000 </r>
       <r>   -43.8767     0.0000     8.0000 </r>
       <r>   -43.6355     0.0000     8.0000 </r>
       <r>   -43.3944     0.0000     8.0000 </r>
       <r>   -43.1533     0.0000     8.0000 </r>
       <r>   -42.9121     0.0000     8.0000 </r>
       <r>   -42.6710     0.0000     8.0000 </r>
       <r>   -42.4298     0.0000     8.0000 </r>
       <r>   -42.1887     0.0000     8.0000 </r>
       <r>   -41.9476     0.0000     8.0000 </r>
       <r>   -41.7064     0.0000     8.0000 </r>
       <r>   -41.4653     0.0000     8.0000 </r>
       <r>   -41.2242     0.0000     8.0000 </r>
       <r>   -40.9830     0.0000     8.0000 </r>
       <r>   -40.7419     0.0000     8.0000 </r>
       <r>   -40.5007     0.0000     8.0000 </r>
       <r>   -40.2596     0.0000     8.0000 </r>
       <r>   -40.0185     0.0000     8.0000 </r>
       <r>   -39.7773     0.0000     8.0000 </r>
       <r>   -39.5362     0.0000     8.0000 </r>
       <r>   -39.2950     0.0000     8.0000 </r>
       <r>   -39.0539     0.0000     8.0000 </r>
       <r>   -38.8128     0.0000     8.0000 </r>
       <r>   -38.5716     0.0000     8.0000 </r>
       <r>   -38.3305     0.0000     8.0000 </r>
       <r>   -38.0894     0.0000     8.0000 </r>
       <r>   -37.8482     0.0000     8.0000 </r>
       <r>   -37.6071     0.0000     8.0000 </r>
       <r>   -37.3659     0.0000     8.0000 </r>
       <r>   -37.1248     0.0000     8.0000 </r>
       <r>   -36.8837     0.0000     8.0000 </r>
       <r>   -36.6425     0.0000     8.0000 </r>
       <r>   -36.4014     0.0000     8.0000 </r>
       <r>   -36.1602     0.0000     8.0000 </r>
       <r>   -35.9191     0.0000     8.0000 </r>
       <r>   -35.6780     0.0000     8.0000 </r>
       <r>   -35.4368     0.0000     8.0000 </r>
       <r>   -35.1957     0.0000     8.0000 </r>
       <r>   -34.9546     0.0000     8.0000 </r>
       <r>   -34.7134     0.0000     8.0000 </r>
       <r>   -34.4723     0.0000     8.0000 </r>
       <r>   -34.2311     0.0000     8.0000 </r>
       <r>   -33.9900     0.0094     8.0023 </r>
       <r>   -33.7489    16.5880    20.0000 </r>
       <r>   -33.5077     0.0000    20.0000 </r>
       <r>   -33.2666     0.0000    20.0000 </r>
       <r>   -33.0254    16.2366    23.9153 </r>
       <r>   -32.7843     5.1042    25.2308 </r>
       <r>   -32.5432     1.3249    28.3195 </r>
       <r>   -32.3020     0.0000    32.0000 </r>
       <r>   -32.0609     0.0000    32.0000 </r>
       <r>   -31.8198     0.0000    32.0000 </r>
       <r>   -31.5786     0.0000    32.0000 </r>
       <r>   -31.3375     0.0000    32.0000 </r>
       <r>   -31.0963     0.0000    32.0000 </r>
       <r>   -30.8552     0.0000    32.0000 </r>
       <r>   -30.6141     0.0000    32.0000 </r>
       <r>   -30.3729     0.0000    32.0000 </r>
       <r>   -30.1318     0.0000    32.0000 </r>
       <r>   -29.8907     0.0000    32.0000 </r>
       <r>   -29.6495     0.0000    32.0000 </r>
       <r>   -29.4084     0.0000    32.0000 </r>
       <r>   -29.1672     0.0000    32.0000 </r>
       <r>   -28.9261     0.0000    32.0000 </r>
       <r>   -28.6850     0.0000    32.0000 </r>
       <r>   -28.4438     0.0000    32.0000 </r>
       <r>   -28.2027     0.0000    32.0000 </r>
       <r>   -27.9615     0.0000    32.0000 </r>
       <r>   -27.7204     0.0000    32.0000 </r>
       <r>   -27.4793     0.0000    32.0000 </r>
       <r>   -27.2381     0.0000    32.0000 </r>
       <r>   -26.9970     0.0000    32.0000 </r>
       <r>   -26.7559     0.0000    32.0000 </r>
       <r>   -26.5147     0.0000    32.0000 </r>
       <r>   -26.2736     0.0000    32.0000 </r>
       <r>   -26.0324     0.0000    32.0000 </r>
       <r>   -25.7913     0.0000    32.0000 </r>
       <r>   -25.5502     0.0000    32.0000 </r>
       <r>   -25.3090     0.0000    32.0000 </r>
       <r>   -25.0679     0.0000    32.0000 </r>
       <r>   -24.8267     0.0000    32.0000 </r>
       <r>   -24.5856     0.0000    32.0000 </r>
       <r>   -24.3445     0.0000    32.0000 </r>
       <r>   -24.1033     0.0000    32.0000 </r>
       <r>   -23.8622     0.0000    32.0000 </r>
       <r>   -23.6211     0.0000    32.0000 </r>
       <r>   -23.3799     0.0000    32.0000 </r>
       <r>   -23.1388     0.0000    32.0000 </r>
       <r>   -22.8976     0.0000    32.0000 </r>
       <r>   -22.6565     0.0000    32.0000 </r>
       <r>   -22.4154     0.0000    32.0000 </r>
       <r>   -22.1742     0.0000    32.0000 </r>
       <r>   -21.9331     0.0000    32.0000 </r>
       <r>   -21.6919     0.0000    32.0000 </r>
       <r>   -21.4508     0.0000    32.0000 </r>
       <r>   -21.2097     0.0000    32.0000 </r>
       <r>   -20.9685     0.0000    32.0000 </r>
       <r>   -20.7274     0.0000    32.0000 </r>
       <r>   -20.4863     0.0000    32.0000 </r>
       <r>   -20.2451     0.0000    32.0000 </r>
       <r>   -20.0040     0.0000    32.0000 </r>
       <r>   -19.7628     0.0000    32.0000 </r>
       <r>   -19.5217     0.0000    32.0000 </r>
       <r>   -19.2806     0.0000    32.0000 </r>
       <r>   -19.0394     0.0000    32.0000 </r>
       <r>   -18.7983     0.0000    32.0000 </r>
       <r>   -18.5571     0.0000    32.0000 </r>
       <r>   -18.3160     0.0000    32.0000 </r>
       <r>   -18.0749     0.0000    32.0000 </r>
       <r>   -17.8337     0.0000    32.0000 </r>
       <r>   -17.5926     0.0000    32.0000 </r>
       <r>   -17.3515     0.0000    32.0000 </r>
       <r>   -17.1103     0.0000    32.0000 </r>
       <r>   -16.8692     0.0000    32.0000 </r>
       <r>   -16.6280     0.0000    32.0000 </r>
       <r>   -16.3869     0.0000    32.0000 </r>
       <r>   -16.1458     0.0000    32.0000 </r>
       <r>   -15.9046     0.0000    32.0000 </r>
       <r>   -15.6635     0.0000    32.0000 </r>
       <r>   -15.4224     0.0000    32.0000 </r>
       <r>   -15.1812     0.0000    32.0000 </r>
       <r>   -14.9401     0.0000    32.0000 </r>
       <r>   -14.6989     0.0000    32.0000 </r>
       <r>   -14.4578     0.0000    32.0000 </r>
       <r>   -14.2167     0.0000    32.0000 </r>
       <r>   -13.9755     0.0000    32.0000 </r>
       <r>   -13.7344     0.0000    32.0000 </r>
       <r>   -13.4932     0.0000    32.0000 </r>
       <r>   -13.2521     0.0000    32.0000 </r>
       <r>   -13.0110     0.0000    32.0000 </r>
       <r>   -12.7698     0.0000    32.0000 </r>
       <r>   -12.5287     0.0000    32.0000 </r>
       <r>   -12.2876     0.0000    32.0000 </r>
       <r>   -12.0464     0.0000    32.0000 </r>
       <r>   -11.8053     0.0000    32.0000 </r>
       <r>   -11.5641     0.0000    32.0000 </r>
       <r>   -11.3230     0.0000    32.0000 </r>
       <r>   -11.0819     0.0000    32.0000 </r>
       <r>   -10.8407     0.0000    32.0000 </r>
       <r>   -10.5996     0.0000    32.0000 </r>
       <r>   -10.3584     0.0000    32.0000 </r>
       <r>   -10.1173     0.0000    32.0000 </r>
       <r>    -9.8762     0.0000    32.0000 </r>
       <r>    -9.6350     0.0000    32.0000 </r>
       <r>    -9.3939     0.0000    32.0000 </r>
       <r>    -9.1528     0.0000    32.0000 </r>
       <r>    -8.9116     0.0000    32.0000 </r>
       <r>    -8.6705     0.0000    32.0000 </r>
       <r>    -8.4293     0.0000    32.0000 </r>
       <r>    -8.1882     0.0000    32.0000 </r>
       <r>    -7.9471     0.0000    32.0000 </r>
       <r>    -7.7059     0.0000    32.0000 </r>
       <r>    -7.4648     0.0000    32.0000 </r>
       <r>    -7.2236     0.0000    32.0000 </r>
       <r>    -6.9825     0.3265    32.0787 </r>
       <r>    -6.7414     2.9138    32.9156 </r>
       <r>    -6.5002     6.2578    35.0645 </r>
       <r>    -6.2591     2.0037    35.9832 </r>
       <r>    -6.0180     0.9561    36.2306 </r>
       <r>    -5.7768    12.3918    39.9881 </r>
       <r>    -5.5357     0.0000    40.0000 </r>
       <r>    -5.2945     0.0000    40.0000 </r>
       <r>    -5.0534     0.0000    40.0000 </r>
       <r>    -4.8123     0.0000    40.0000 </r>
       <r>    -4.5711     0.0000    40.0000 </r>
       <r>    -4.3300     0.0000    40.0000 </r>
       <r>    -4.0889     0.0000    40.0000 </r>
       <r>    -3.8477     0.0000    40.0000 </r>
       <r>    -3.6066     0.0000    40.0000 </r>
       <r>    -3.3654     0.0000    40.0000 </r>
       <r>    -3.1243     0.0000    40.0000 </r>
       <r>    -2.8832     0.0000    40.0000 </r>
       <r>    -2.6420     0.0000    40.0000 </r>
       <r>    -2.4009     0.0000    40.0000 </r>
       <r>    -2.1597     0.0000    40.0000 </r>
       <r>    -1.9186     1.3011    40.3230 </r>
       <r>    -1.6775     3.7060    41.4677 </r>
       <r>    -1.4363     5.3794    43.5842 </r>
       <r>    -1.1952     2.7200    44.7577 </r>
       <r>    -0.9541     1.8946    45.4754 </r>
       <r>    -0.7129     6.1589    47.3092 </r>
       <r>    -0.4718     6.9526    49.6302 </r>
       <r>    -0.2306     5.2229    51.8798 </r>
       <r>     0.0105     5.5362    53.7517 </r>
       <r>     0.2516     5.6200    55.9385 </r>
       <r>     0.4928     9.2011    58.8299 </r>
       <r>     0.7339     5.1808    61.2678 </r>
       <r>     0.9751     2.8633    62.8571 </r>
       <r>     1.2162     1.8761    63.5265 </r>
       <r>     1.4573     1.9907    64.2393 </r>
       <r>     1.6985     5.3882    65.7160 </r>
       <r>     1.9396    10.7949    68.6679 </r>
       <r>     2.1807    10.0620    73.6856 </r>
       <r>     2.4219    12.2096    77.9257 </r>
       <r>     2.6630    14.4715    83.3230 </r>
       <r>     2.9042     8.6482    86.6595 </r>
       <r>     3.1453    15.7892    92.3444 </r>
       <r>     3.3864    12.6249    96.8036 </r>
       <r>     3.6276     8.2665    99.8915 </r>
       <r>     3.8687     8.8486   103.1893 </r>
       <r>     4.1099     3.9484   104.5262 </r>
       <r>     4.3510     3.2391   105.4755 </r>
       <r>     4.5921     2.8707   106.7200 </r>
       <r>     4.8333     3.1291   107.6805 </r>
       <r>     5.0744     1.2287   107.9815 </r>
       <r>     5.3155     0.0768   108.0000 </r>
       <r>     5.5567     0.0000   108.0000 </r>
       <r>     5.7978     0.0000   108.0000 </r>
       <r>     6.0390     0.0000   108.0000 </r>
       <r>     6.2801     0.0000   108.0000 </r>
       <r>     6.5212     0.0000   108.0000 </r>
       <r>     6.7624     0.0000   108.0000 </r>
       <r>     7.0035     0.0000   108.0000 </r>
       <r>     7.2446     0.0000   108.0000 </r>
       <r>     7.4858     0.0000   108.0000 </r>
       <r>     7.7269     0.0000   108.0000 </r>
       <r>     7.9681     0.0000   108.0000 </r>
       <r>     8.2092     0.0000   108.0000 </r>
       <r>     8.4503     0.0000   108.0000 </r>
      </set>
     </set>
    </array>
   </total>
  </dos>
 </calculation>
 <structure name="finalpos" >
  <crystal>
   <varray name="basis" >
    <v>       6.71846264       0.00000000      -2.43536567 </v>
    <v>      -3.30325912       5.85031788      -2.43536567 </v>
    <v>       0.00000000       0.00000000       7.14624000 </v>
   </varray>
   <i name="volume">    280.88397878 </i>
   <varray name="rec_basis" >
    <v>       0.14884358       0.08404140       0.00000000 </v>
    <v>       0.00000000       0.17093088       0.00000000 </v>
    <v>       0.05072437       0.08689195       0.13993373 </v>
   </varray>
  </crystal>
  <varray name="positions" >
   <v>       0.26905000       0.23095000       0.50000000 </v>
   <v>       0.73095000       0.76905000       0.50000000 </v>
   <v>       0.23095000       0.73095000       0.96191000 </v>
   <v>       0.76905000       0.26905000       0.03809000 </v>
   <v>       0.25000000       0.25000000       0.00000000 </v>
   <v>       0.00000000       0.50000000       0.50000000 </v>
   <v>       0.75000000       0.75000000       0.00000000 </v>
   <v>       0.50000000       0.00000000       0.50000000 </v>
   <v>       0.67050000       0.17050000       0.84100000 </v>
   <v>       0.32950000       0.82950000       0.15900000 </v>
   <v>       0.17050000       0.32950000       0.50000000 </v>
   <v>       0.82950000       0.67050000       0.50000000 </v>
  </varray>
 </structure>
</modeling>
