<?xml version="1.0" encoding="ISO-8859-1"?>
<modeling>
 <generator>
  <i name="program" type="string">vasp </i>
  <i name="version" type="string">6.2.0  </i>
  <i name="subversion" type="string">18Jan21 (build Jan 05 2022 15:41:44) complex                          parallel </i>
  <i name="platform" type="string">LinuxIFC </i>
  <i name="date" type="string">2025 05 07 </i>
  <i name="time" type="string">21:30:10 </i>
 </generator>
 <incar>
  <i type="string" name="SYSTEM">routine with relax: pwdword</i>
  <i type="string" name="PREC">Acc</i>
  <i type="int" name="IALGO">    38</i>
  <i type="string" name="ALGO">A</i>
  <i type="logical" name="ADDGRID"> T  </i>
  <i type="int" name="ICHARG">     2</i>
  <i type="int" name="NELM">   100</i>
  <i type="int" name="NELMIN">     6</i>
  <i name="EDIFF">      0.00000000</i>
  <i type="int" name="NSW">     0</i>
  <i type="int" name="ISIF">    -1</i>
  <i name="ENCUT">    600.00000000</i>
  <i type="logical" name="LREAL"> F  </i>
  <i type="int" name="ISMEAR">     0</i>
  <i name="SIGMA">      0.02000000</i>
  <i type="logical" name="LASPH"> T  </i>
  <i type="string" name="METAGGA">R2SCAN</i>
  <i type="logical" name="LMIXTAU"> F  </i>
 </incar>
 <primitive_cell>
  <structure name="primitive_cell" >
   <crystal>
    <varray name="basis" >
     <v>       4.52688000      -3.10946000       0.00000000 </v>
     <v>       4.52688000       3.10946000       0.00000000 </v>
     <v>       2.39102800       0.00000000       4.94412400 </v>
    </varray>
    <i name="volume">    139.18848468 </i>
    <varray name="rec_basis" >
     <v>       0.11045135      -0.16079962      -0.05341538 </v>
     <v>       0.11045135       0.16079962      -0.05341538 </v>
     <v>       0.00000000       0.00000000       0.20226030 </v>
    </varray>
   </crystal>
   <varray name="positions" >
    <v>       0.27474300       0.82271900       0.82271900 </v>
    <v>       0.82271900       0.82271900       0.27474300 </v>
    <v>       0.82271900       0.27474300       0.82271900 </v>
    <v>       0.17728100       0.72525700       0.17728100 </v>
    <v>       0.17728100       0.17728100       0.72525700 </v>
    <v>       0.72525700       0.17728100       0.17728100 </v>
    <v>       0.67700400       0.98584400       0.98584300 </v>
    <v>       0.98584400       0.98584400       0.67700400 </v>
    <v>       0.98584400       0.67700400       0.98584300 </v>
    <v>       0.01415600       0.32299600       0.01415600 </v>
    <v>       0.01415700       0.01415600       0.32299600 </v>
    <v>       0.32299600       0.01415600       0.01415600 </v>
    <v>       0.32567800       0.32567800       0.32567800 </v>
    <v>       0.67432200       0.67432200       0.67432200 </v>
    <v>       0.50000000       0.50000000       0.50000000 </v>
   </varray>
  </structure>
  <varray name="primitive_index" >
   <v type="int" >        1 </v>
   <v type="int" >        2 </v>
   <v type="int" >        3 </v>
   <v type="int" >        4 </v>
   <v type="int" >        5 </v>
   <v type="int" >        6 </v>
   <v type="int" >        7 </v>
   <v type="int" >        8 </v>
   <v type="int" >        9 </v>
   <v type="int" >       10 </v>
   <v type="int" >       11 </v>
   <v type="int" >       12 </v>
   <v type="int" >       13 </v>
   <v type="int" >       14 </v>
   <v type="int" >       15 </v>
  </varray>
 </primitive_cell>
 <kpoints>
  <generation param="Gamma">
   <v type="int" name="divisions">       7        7        7 </v>
   <v name="usershift">      0.00000000       0.00000000       0.00000000 </v>
   <v name="genvec1">      0.14285714       0.00000000       0.00000000 </v>
   <v name="genvec2">      0.00000000       0.14285714       0.00000000 </v>
   <v name="genvec3">      0.00000000       0.00000000       0.14285714 </v>
   <v name="shift">      0.00000000       0.00000000       0.00000000 </v>
  </generation>
  <varray name="kpointlist" >
   <v>       0.00000000       0.00000000       0.00000000 </v>
   <v>       0.14285714      -0.00000000       0.00000000 </v>
   <v>       0.28571429       0.00000000       0.00000000 </v>
   <v>       0.42857143      -0.00000000      -0.00000000 </v>
   <v>       0.14285714       0.14285714       0.00000000 </v>
   <v>       0.28571429       0.14285714       0.00000000 </v>
   <v>       0.42857143       0.14285714       0.00000000 </v>
   <v>      -0.42857143       0.14285714       0.00000000 </v>
   <v>      -0.28571429       0.14285714       0.00000000 </v>
   <v>      -0.14285714       0.14285714       0.00000000 </v>
   <v>       0.28571429       0.28571429       0.00000000 </v>
   <v>       0.42857143       0.28571429      -0.00000000 </v>
   <v>      -0.42857143       0.28571429       0.00000000 </v>
   <v>      -0.28571429       0.28571429       0.00000000 </v>
   <v>       0.42857143       0.42857143       0.00000000 </v>
   <v>      -0.42857143       0.42857143       0.00000000 </v>
   <v>       0.14285714       0.14285714       0.14285714 </v>
   <v>       0.28571429       0.14285714       0.14285714 </v>
   <v>       0.42857143       0.14285714       0.14285714 </v>
   <v>      -0.42857143       0.14285714       0.14285714 </v>
   <v>      -0.28571429       0.14285714       0.14285714 </v>
   <v>      -0.14285714       0.14285714       0.14285714 </v>
   <v>       0.28571429       0.28571429       0.14285714 </v>
   <v>       0.42857143       0.28571429       0.14285714 </v>
   <v>      -0.42857143       0.28571429       0.14285714 </v>
   <v>      -0.28571429       0.28571429       0.14285714 </v>
   <v>      -0.14285714       0.28571429       0.14285714 </v>
   <v>       0.42857143       0.42857143       0.14285714 </v>
   <v>      -0.42857143       0.42857143       0.14285714 </v>
   <v>      -0.28571429       0.42857143       0.14285714 </v>
   <v>      -0.14285714       0.42857143       0.14285714 </v>
   <v>      -0.42857143      -0.42857143       0.14285714 </v>
   <v>      -0.28571429      -0.42857143       0.14285714 </v>
   <v>      -0.28571429      -0.28571429       0.14285714 </v>
   <v>       0.28571429       0.28571429       0.28571429 </v>
   <v>       0.42857143       0.28571429       0.28571429 </v>
   <v>      -0.42857143       0.28571429       0.28571429 </v>
   <v>      -0.28571429       0.28571429       0.28571429 </v>
   <v>       0.42857143       0.42857143       0.28571429 </v>
   <v>      -0.42857143       0.42857143       0.28571429 </v>
   <v>      -0.28571429       0.42857143       0.28571429 </v>
   <v>      -0.42857143      -0.42857143       0.28571429 </v>
   <v>       0.42857143       0.42857143       0.42857143 </v>
   <v>      -0.42857143       0.42857143       0.42857143 </v>
  </varray>
  <varray name="weights" >
   <v>       0.00291545 </v>
   <v>       0.01749271 </v>
   <v>       0.01749271 </v>
   <v>       0.01749271 </v>
   <v>       0.01749271 </v>
   <v>       0.03498542 </v>
   <v>       0.03498542 </v>
   <v>       0.03498542 </v>
   <v>       0.03498542 </v>
   <v>       0.01749271 </v>
   <v>       0.01749271 </v>
   <v>       0.03498542 </v>
   <v>       0.03498542 </v>
   <v>       0.01749271 </v>
   <v>       0.01749271 </v>
   <v>       0.01749271 </v>
   <v>       0.00583090 </v>
   <v>       0.01749271 </v>
   <v>       0.01749271 </v>
   <v>       0.01749271 </v>
   <v>       0.01749271 </v>
   <v>       0.01749271 </v>
   <v>       0.01749271 </v>
   <v>       0.03498542 </v>
   <v>       0.03498542 </v>
   <v>       0.03498542 </v>
   <v>       0.03498542 </v>
   <v>       0.01749271 </v>
   <v>       0.03498542 </v>
   <v>       0.03498542 </v>
   <v>       0.03498542 </v>
   <v>       0.01749271 </v>
   <v>       0.03498542 </v>
   <v>       0.01749271 </v>
   <v>       0.00583090 </v>
   <v>       0.01749271 </v>
   <v>       0.01749271 </v>
   <v>       0.01749271 </v>
   <v>       0.01749271 </v>
   <v>       0.03498542 </v>
   <v>       0.03498542 </v>
   <v>       0.01749271 </v>
   <v>       0.00583090 </v>
   <v>       0.01749271 </v>
  </varray>
 </kpoints>
 <parameters>
  <separator name="general" >
   <i type="string" name="SYSTEM">routine with relax: pwdword</i>
   <i type="logical" name="LCOMPAT"> F  </i>
  </separator>
  <separator name="electronic" >
   <i type="string" name="PREC">acc</i>
   <i name="ENMAX">    600.00000000</i>
   <i name="ENAUG">    535.51400000</i>
   <i name="EDIFF">      0.00000000</i>
   <i type="int" name="IALGO">    58</i>
   <i type="int" name="IWAVPR">    10</i>
   <i type="int" name="NBANDS">    36</i>
   <i type="int" name="NBANDSLOW">    -1</i>
   <i type="int" name="NBANDSHIGH">    -1</i>
   <i name="NELECT">     48.00000000</i>
   <i type="int" name="TURBO">     0</i>
   <i type="int" name="IRESTART">     0</i>
   <i type="int" name="NREBOOT">     0</i>
   <i type="int" name="NMIN">     0</i>
   <i name="EREF">      0.00000000</i>
   <separator name="electronic smearing" >
    <i type="int" name="ISMEAR">     0</i>
    <i name="SIGMA">      0.02000000</i>
    <i name="KSPACING">      0.50000000</i>
    <i type="logical" name="KGAMMA"> T  </i>
    <i type="logical" name="KBLOWUP"> T  </i>
   </separator>
   <separator name="electronic projectors" >
    <i type="logical" name="LREAL"> F  </i>
    <v name="ROPT">      0.00000000      0.00000000</v>
    <i type="int" name="LMAXPAW">  -100</i>
    <i type="int" name="LMAXMIX">     2</i>
    <i type="logical" name="NLSPLINE"> F  </i>
   </separator>
   <separator name="electronic startup" >
    <i type="int" name="ISTART">     0</i>
    <i type="int" name="ICHARG">     2</i>
    <i type="int" name="INIWAV">     1</i>
   </separator>
   <separator name="electronic spin" >
    <i type="int" name="ISPIN">     1</i>
    <i type="logical" name="LNONCOLLINEAR"> F  </i>
    <v name="MAGMOM">      1.00000000      1.00000000      1.00000000      1.00000000      1.00000000      1.00000000      1.00000000      1.00000000      1.00000000      1.00000000      1.00000000      1.00000000      1.00000000      1.00000000      1.00000000</v>
    <i name="NUPDOWN">     -1.00000000</i>
    <i type="logical" name="LSORBIT"> F  </i>
    <v name="SAXIS">      0.00000000      0.00000000      1.00000000</v>
    <i type="logical" name="LSPIRAL"> F  </i>
    <v name="QSPIRAL">      0.00000000      0.00000000      0.00000000</v>
    <i type="logical" name="LZEROZ"> F  </i>
   </separator>
   <separator name="electronic exchange-correlation" >
    <i type="logical" name="LASPH"> T  </i>
    <i type="logical" name="LMETAGGA"> F  </i>
   </separator>
   <separator name="electronic convergence" >
    <i type="int" name="NELM">   100</i>
    <i type="int" name="NELMDL">    -5</i>
    <i type="int" name="NELMIN">     6</i>
    <i name="ENINI">    600.00000000</i>
    <separator name="electronic convergence detail" >
     <i type="logical" name="LDIAG"> T  </i>
     <i type="logical" name="LSUBROT"> F  </i>
     <i name="WEIMIN">      0.00000000</i>
     <i name="EBREAK">      0.00000000</i>
     <i name="DEPER">      0.30000000</i>
     <i type="int" name="NRMM">     4</i>
     <i name="TIME">      0.40000000</i>
    </separator>
   </separator>
   <separator name="electronic mixer" >
    <i name="AMIX">      0.40000000</i>
    <i name="BMIX">      1.00000000</i>
    <i name="AMIN">      0.10000000</i>
    <i name="AMIX_MAG">      1.60000000</i>
    <i name="BMIX_MAG">      1.00000000</i>
    <separator name="electronic mixer details" >
     <i type="int" name="IMIX">     4</i>
     <i type="logical" name="MIXFIRST"> F  </i>
     <i type="int" name="MAXMIX">   -45</i>
     <i name="WC">    100.00000000</i>
     <i type="int" name="INIMIX">     1</i>
     <i type="int" name="MIXPRE">     1</i>
     <i type="int" name="MREMOVE">     5</i>
    </separator>
   </separator>
   <separator name="electronic dipolcorrection" >
    <i type="logical" name="LDIPOL"> F  </i>
    <i type="logical" name="LMONO"> F  </i>
    <i type="int" name="IDIPOL">     0</i>
    <i name="EPSILON">      1.00000000</i>
    <v name="DIPOL">   -100.00000000   -100.00000000   -100.00000000</v>
    <i name="EFIELD">      0.00000000</i>
   </separator>
  </separator>
  <separator name="grids" >
   <i type="int" name="NGX">    48</i>
   <i type="int" name="NGY">    48</i>
   <i type="int" name="NGZ">    48</i>
   <i type="int" name="NGXF">    96</i>
   <i type="int" name="NGYF">    96</i>
   <i type="int" name="NGZF">    96</i>
   <i type="logical" name="ADDGRID"> T  </i>
  </separator>
  <separator name="ionic" >
   <i type="int" name="NSW">     0</i>
   <i type="int" name="IBRION">    -1</i>
   <i type="int" name="MDALGO">     0</i>
   <i type="int" name="ISIF">    -1</i>
   <i name="PSTRESS">      0.00000000</i>
   <i name="EDIFFG">      0.00000001</i>
   <i type="int" name="NFREE">     0</i>
   <i name="POTIM">      0.50000000</i>
   <i name="SMASS">     -3.00000000</i>
   <i name="SCALEE">      1.00000000</i>
  </separator>
  <separator name="ionic md" >
   <i name="TEBEG">      0.00010000</i>
   <i name="TEEND">      0.00010000</i>
   <i type="int" name="NBLOCK">     1</i>
   <i type="int" name="KBLOCK">     1</i>
   <i type="int" name="NPACO">   256</i>
   <i name="APACO">     16.00000000</i>
  </separator>
  <separator name="symmetry" >
   <i type="int" name="ISYM">     2</i>
   <i name="SYMPREC">      0.00001000</i>
  </separator>
  <separator name="dos" >
   <i type="int" name="LORBIT">     0</i>
   <v name="RWIGS">     -1.00000000     -1.00000000</v>
   <i type="int" name="NEDOS">   301</i>
   <i name="EMIN">     10.00000000</i>
   <i name="EMAX">    -10.00000000</i>
   <i name="EFERMI">      0.00000000</i>
  </separator>
  <separator name="writing" >
   <i type="int" name="NWRITE">     2</i>
   <i type="logical" name="LWAVE"> T  </i>
   <i type="logical" name="LDOWNSAMPLE"> F  </i>
   <i type="logical" name="LCHARG"> T  </i>
   <i type="logical" name="LPARD"> F  </i>
   <i type="logical" name="LVTOT"> F  </i>
   <i type="logical" name="LVHAR"> F  </i>
   <i type="logical" name="LELF"> F  </i>
   <i type="logical" name="LOPTICS"> F  </i>
   <v name="STM">      0.00000000      0.00000000      0.00000000      0.00000000      0.00000000      0.00000000      0.00000000</v>
  </separator>
  <separator name="performance" >
   <i type="int" name="NPAR">     6</i>
   <i type="int" name="NSIM">     4</i>
   <i type="int" name="NBLK">    -1</i>
   <i type="logical" name="LPLANE"> T  </i>
   <i type="logical" name="LSCALAPACK"> T  </i>
   <i type="logical" name="LSCAAWARE"> F  </i>
   <i type="logical" name="LSCALU"> F  </i>
   <i type="logical" name="LASYNC"> F  </i>
   <i type="logical" name="LORBITALREAL"> F  </i>
  </separator>
  <separator name="miscellaneous" >
   <i type="int" name="IDIOT">     3</i>
   <i type="int" name="PHON_NSTRUCT">    -1</i>
   <i type="logical" name="LMUSIC"> F  </i>
   <v name="POMASS">     10.81100000     28.08500000</v>
   <v name="DARWINR">      0.00000000      0.00000000</v>
   <v name="DARWINV">      1.00000000      1.00000000</v>
   <i type="logical" name="LCORR"> T  </i>
  </separator>
  <i type="logical" name="GGA_COMPAT"> T  </i>
  <i type="logical" name="LBERRY"> F  </i>
  <i type="int" name="ICORELEVEL">     0</i>
  <i type="logical" name="LDAU"> F  </i>
  <i type="int" name="I_CONSTRAINED_M">     0</i>
  <separator name="electronic exchange-correlation" >
   <i type="string" name="GGA">--</i>
   <i type="int" name="VOSKOWN">     0</i>
   <i type="logical" name="LHFCALC"> F  </i>
   <i type="string" name="PRECFOCK"></i>
   <i type="logical" name="LSYMGRAD"> F  </i>
   <i type="logical" name="LHFONE"> F  </i>
   <i type="logical" name="LRHFCALC"> F  </i>
   <i type="logical" name="LTHOMAS"> F  </i>
   <i type="logical" name="LMODELHF"> F  </i>
   <i type="logical" name="LFOCKACE"> F  </i>
   <i name="ENCUT4O">     -1.00000000</i>
   <i type="int" name="EXXOEP">     0</i>
   <i type="int" name="FOURORBIT">     0</i>
   <i name="AEXX">      0.00000000</i>
   <i name="HFALPHA">      0.00000000</i>
   <i name="MCALPHA">      0.00000000</i>
   <i name="ALDAX">      1.00000000</i>
   <i name="AGGAX">      1.00000000</i>
   <i name="ALDAC">      1.00000000</i>
   <i name="AGGAC">      1.00000000</i>
   <i type="int" name="NKREDX">     1</i>
   <i type="int" name="NKREDY">     1</i>
   <i type="int" name="NKREDZ">     1</i>
   <i type="logical" name="SHIFTRED"> F  </i>
   <i type="logical" name="ODDONLY"> F  </i>
   <i type="logical" name="EVENONLY"> F  </i>
   <i type="int" name="LMAXFOCK">     0</i>
   <i type="int" name="NMAXFOCKAE">     0</i>
   <i type="logical" name="LFOCKAEDFT"> F  </i>
   <i name="HFSCREEN">      0.00000000</i>
   <i name="HFSCREENC">      0.00000000</i>
   <i type="int" name="NBANDSGWLOW">     0</i>
  </separator>
  <separator name="vdW DFT" >
   <i type="logical" name="LUSE_VDW"> F  </i>
   <i name="Zab_VDW">     -0.84910000</i>
   <i name="PARAM1">      0.12340000</i>
   <i name="PARAM2">      1.00000000</i>
   <i name="PARAM3">      0.00000000</i>
  </separator>
  <separator name="model GW" >
   <i type="int" name="MODEL_GW">     0</i>
   <i name="MODEL_EPS0">      5.56753939</i>
   <i name="MODEL_ALPHA">      1.00000000</i>
  </separator>
  <separator name="linear response parameters" >
   <i type="logical" name="LEPSILON"> F  </i>
   <i type="logical" name="LRPA"> F  </i>
   <i type="logical" name="LNABLA"> F  </i>
   <i type="logical" name="LVEL"> F  </i>
   <i type="int" name="KINTER">     0</i>
   <i name="CSHIFT">      0.10000000</i>
   <i name="OMEGAMAX">     -1.00000000</i>
   <i name="DEG_THRESHOLD">      0.00200000</i>
   <i name="RTIME">     -0.10000000</i>
   <i name="WPLASMAI">      0.00000000</i>
   <v name="DFIELD">      0.00000000      0.00000000      0.00000000</v>
   <v name="WPLASMA">      0.00000000      0.00000000      0.00000000      0.00000000      0.00000000      0.00000000      0.00000000      0.00000000      0.00000000</v>
  </separator>
  <separator name="orbital magnetization" >
   <i type="logical" name="NUCIND"> F  </i>
   <v name="MAGPOS">      0.00000000      0.00000000      0.00000000</v>
   <i type="logical" name="LNICSALL"> T  </i>
   <i type="logical" name="ORBITALMAG"> F  </i>
   <i type="logical" name="LMAGBLOCH"> F  </i>
   <i type="logical" name="LCHIMAG"> F  </i>
   <i type="logical" name="LGAUGE"> T  </i>
   <i type="int" name="MAGATOM">     0</i>
   <v name="MAGDIPOL">      0.00000000      0.00000000      0.00000000</v>
   <v name="AVECCONST">      0.00000000      0.00000000      0.00000000</v>
  </separator>
  <separator name="response functions" >
   <i type="logical" name="LFINITE_TEMPERATURE"> F  </i>
   <i type="logical" name="LADDER"> F  </i>
   <i type="logical" name="LRPAFORCE"> F  </i>
   <i type="logical" name="LFXC"> F  </i>
   <i type="logical" name="LHARTREE"> T  </i>
   <i type="int" name="IBSE">     0</i>
   <v type="int" name="KPOINT">    -1     0     0     0</v>
   <i type="logical" name="LTCTC"> F  </i>
   <i type="logical" name="LTCTE"> F  </i>
   <i type="logical" name="LTETE"> F  </i>
   <i type="logical" name="LTRIPLET"> F  </i>
   <i type="logical" name="LFXCEPS"> F  </i>
   <i type="logical" name="LFXHEG"> F  </i>
   <i type="int" name="NATURALO">     2</i>
   <i type="logical" name="LHOLEGF"> F  </i>
   <i type="logical" name="L2ORDER"> F  </i>
   <i type="logical" name="LDMP1"> F  </i>
   <i type="logical" name="LMP2LT"> F  </i>
   <i type="logical" name="LSMP2LT"> F  </i>
   <i type="logical" name="LGWLF"> F  </i>
   <i name="ENCUTGW">     -2.00000000</i>
   <i name="ENCUTGWSOFT">     -2.00000000</i>
   <i name="ENCUTLF">     -1.00000000</i>
   <i type="logical" name="LESF_SPLINES"> F  </i>
   <i type="int" name="LMAXMP2">    -1</i>
   <i name="SCISSOR">      0.00000000</i>
   <i type="int" name="NOMEGA">     0</i>
   <i type="int" name="NOMEGAR">     0</i>
   <i type="int" name="NBANDSGW">    -1</i>
   <i type="int" name="NBANDSO">    -1</i>
   <i type="int" name="NBANDSV">    -1</i>
   <i type="int" name="NELM">   100</i>
   <i type="int" name="NELMHF">     1</i>
   <i type="int" name="DIM">     3</i>
   <i type="int" name="IESPILON">     4</i>
   <i type="int" name="ANTIRES">     0</i>
   <i name="OMEGAMAX">    -30.00000000</i>
   <i name="OMEGAMIN">    -30.00000000</i>
   <i name="OMEGATL">   -200.00000000</i>
   <i type="int" name="OMEGAGRID">     0</i>
   <i name="CSHIFT">     -0.10000000</i>
   <i type="logical" name="LSELFENERGY"> F  </i>
   <i type="logical" name="LSPECTRAL"> F  </i>
   <i type="logical" name="LSPECTRALGW"> F  </i>
   <i type="logical" name="LSINGLES"> F  </i>
   <i type="logical" name="LFERMIGW"> F  </i>
   <i type="logical" name="ODDONLYGW"> F  </i>
   <i type="logical" name="EVENONLYGW"> F  </i>
   <i type="int" name="NKREDLFX">     1</i>
   <i type="int" name="NKREDLFY">     1</i>
   <i type="int" name="NKREDLFZ">     1</i>
   <i type="int" name="MAXMEM">  2800</i>
   <i type="int" name="TELESCOPE">     0</i>
   <i type="int" name="NTAUPAR">    -1</i>
   <i type="int" name="NOMEGAPAR">    -1</i>
   <i name="DAMP_NEWTON">      0.80000001</i>
   <i name="LAMBDA">      1.00000000</i>
  </separator>
  <separator name="External order field" >
   <i name="OFIELD_KAPPA">      0.00000000</i>
   <v name="OFIELD_K">      0.00000000      0.00000000      0.00000000</v>
   <i name="OFIELD_Q6_NEAR">      0.00000000</i>
   <i name="OFIELD_Q6_FAR">      0.00000000</i>
   <i name="OFIELD_A">      0.00000000</i>
  </separator>
 </parameters>
 <atominfo>
  <atoms>      15 </atoms>
  <types>       2 </types>
  <array name="atoms" >
   <dimension dim="1">ion</dimension>
   <field type="string">element</field>
   <field type="int">atomtype</field>
   <set>
    <rc><c>B </c><c>   1</c></rc>
    <rc><c>B </c><c>   1</c></rc>
    <rc><c>B </c><c>   1</c></rc>
    <rc><c>B </c><c>   1</c></rc>
    <rc><c>B </c><c>   1</c></rc>
    <rc><c>B </c><c>   1</c></rc>
    <rc><c>B </c><c>   1</c></rc>
    <rc><c>B </c><c>   1</c></rc>
    <rc><c>B </c><c>   1</c></rc>
    <rc><c>B </c><c>   1</c></rc>
    <rc><c>B </c><c>   1</c></rc>
    <rc><c>B </c><c>   1</c></rc>
    <rc><c>Si</c><c>   2</c></rc>
    <rc><c>Si</c><c>   2</c></rc>
    <rc><c>Si</c><c>   2</c></rc>
   </set>
  </array>
  <array name="atomtypes" >
   <dimension dim="1">type</dimension>
   <field type="int">atomspertype</field>
   <field type="string">element</field>
   <field>mass</field>
   <field>valence</field>
   <field type="string">pseudopotential</field>
   <set>
    <rc><c>  12</c><c>B </c><c>     10.81100000</c><c>      3.00000000</c><c>  PAW_PBE B 06Sep2000                   </c></rc>
    <rc><c>   3</c><c>Si</c><c>     28.08500000</c><c>      4.00000000</c><c>  PAW_PBE Si 05Jan2001                  </c></rc>
   </set>
  </array>
 </atominfo>
 <structure name="initialpos" >
  <crystal>
   <varray name="basis" >
    <v>       4.52688000      -3.10946000       0.00000000 </v>
    <v>       4.52688000       3.10946000       0.00000000 </v>
    <v>       2.39102800       0.00000000       4.94412400 </v>
   </varray>
   <i name="volume">    139.18848468 </i>
   <varray name="rec_basis" >
    <v>       0.11045135      -0.16079962      -0.05341538 </v>
    <v>       0.11045135       0.16079962      -0.05341538 </v>
    <v>       0.00000000       0.00000000       0.20226030 </v>
   </varray>
  </crystal>
  <varray name="positions" >
   <v>       0.27474300       0.82271900       0.82271900 </v>
   <v>       0.82271900       0.82271900       0.27474300 </v>
   <v>       0.82271900       0.27474300       0.82271900 </v>
   <v>       0.17728100       0.72525700       0.17728100 </v>
   <v>       0.17728100       0.17728100       0.72525700 </v>
   <v>       0.72525700       0.17728100       0.17728100 </v>
   <v>       0.67700400       0.98584400       0.98584300 </v>
   <v>       0.98584400       0.98584400       0.67700400 </v>
   <v>       0.98584400       0.67700400       0.98584300 </v>
   <v>       0.01415600       0.32299600       0.01415600 </v>
   <v>       0.01415700       0.01415600       0.32299600 </v>
   <v>       0.32299600       0.01415600       0.01415600 </v>
   <v>       0.32567800       0.32567800       0.32567800 </v>
   <v>       0.67432200       0.67432200       0.67432200 </v>
   <v>       0.50000000       0.50000000       0.50000000 </v>
  </varray>
 </structure>
 <calculation>
  <scstep>
   <time name="total">    3.86    3.89</time>
   <energy>
    <i name="alphaZ">    103.60434174 </i>
    <i name="ewald">  -1346.74974801 </i>
    <i name="hartreedc">   -117.69021389 </i>
    <i name="XCdc">     91.46085653 </i>
    <i name="pawpsdc">    750.75524268 </i>
    <i name="pawaedc">   -723.24308815 </i>
    <i name="eentropy">     -0.00027454 </i>
    <i name="bandstr">    178.65760195 </i>
    <i name="atom">   1163.23488769 </i>
    <i name="e_fr_energy">    100.02960599 </i>
    <i name="e_wo_entrp">    100.02988054 </i>
    <i name="e_0_energy">    100.02974326 </i>
   </energy>
  </scstep>
  <scstep>
   <time name="total">    4.12    4.15</time>
   <energy>
    <i name="e_fr_energy">   -113.87416073 </i>
    <i name="e_wo_entrp">   -113.87392411 </i>
    <i name="e_0_energy">   -113.87404242 </i>
   </energy>
  </scstep>
  <scstep>
   <time name="total">    4.15    4.19</time>
   <energy>
    <i name="e_fr_energy">   -122.79079929 </i>
    <i name="e_wo_entrp">   -122.79048482 </i>
    <i name="e_0_energy">   -122.79064205 </i>
   </energy>
  </scstep>
  <scstep>
   <time name="total">    3.95    3.98</time>
   <energy>
    <i name="e_fr_energy">   -122.90491469 </i>
    <i name="e_wo_entrp">   -122.90461470 </i>
    <i name="e_0_energy">   -122.90476469 </i>
   </energy>
  </scstep>
  <scstep>
   <time name="total">    4.66    4.70</time>
   <energy>
    <i name="e_fr_energy">   -122.90715862 </i>
    <i name="e_wo_entrp">   -122.90685864 </i>
    <i name="e_0_energy">   -122.90700863 </i>
   </energy>
  </scstep>
  <scstep>
   <time name="total">    4.94    4.98</time>
   <energy>
    <i name="e_fr_energy">   -102.83693431 </i>
    <i name="e_wo_entrp">   -102.83680485 </i>
    <i name="e_0_energy">   -102.83686958 </i>
   </energy>
  </scstep>
  <scstep>
   <time name="total">    4.96    4.99</time>
   <energy>
    <i name="e_fr_energy">   -109.53921040 </i>
    <i name="e_wo_entrp">   -109.53905683 </i>
    <i name="e_0_energy">   -109.53913362 </i>
   </energy>
  </scstep>
  <scstep>
   <time name="total">    4.97    5.00</time>
   <energy>
    <i name="e_fr_energy">   -110.17335246 </i>
    <i name="e_wo_entrp">   -110.17319774 </i>
    <i name="e_0_energy">   -110.17327510 </i>
   </energy>
  </scstep>
  <scstep>
   <time name="total">    5.05    5.08</time>
   <energy>
    <i name="e_fr_energy">   -110.27660998 </i>
    <i name="e_wo_entrp">   -110.27645403 </i>
    <i name="e_0_energy">   -110.27653200 </i>
   </energy>
  </scstep>
  <scstep>
   <time name="total">    4.89    4.93</time>
   <energy>
    <i name="e_fr_energy">   -110.29383112 </i>
    <i name="e_wo_entrp">   -110.29367444 </i>
    <i name="e_0_energy">   -110.29375278 </i>
   </energy>
  </scstep>
  <scstep>
   <time name="total">    4.95    4.98</time>
   <energy>
    <i name="e_fr_energy">   -110.29649222 </i>
    <i name="e_wo_entrp">   -110.29633511 </i>
    <i name="e_0_energy">   -110.29641367 </i>
   </energy>
  </scstep>
  <scstep>
   <time name="total">    4.92    4.96</time>
   <energy>
    <i name="e_fr_energy">   -110.29696378 </i>
    <i name="e_wo_entrp">   -110.29680575 </i>
    <i name="e_0_energy">   -110.29688477 </i>
   </energy>
  </scstep>
  <scstep>
   <time name="total">    5.00    5.03</time>
   <energy>
    <i name="e_fr_energy">   -110.29704123 </i>
    <i name="e_wo_entrp">   -110.29688255 </i>
    <i name="e_0_energy">   -110.29696189 </i>
   </energy>
  </scstep>
  <scstep>
   <time name="total">    4.98    5.01</time>
   <energy>
    <i name="e_fr_energy">   -110.29705396 </i>
    <i name="e_wo_entrp">   -110.29689488 </i>
    <i name="e_0_energy">   -110.29697442 </i>
   </energy>
  </scstep>
  <scstep>
   <time name="total">    4.99    5.03</time>
   <energy>
    <i name="e_fr_energy">   -110.29705596 </i>
    <i name="e_wo_entrp">   -110.29689670 </i>
    <i name="e_0_energy">   -110.29697633 </i>
   </energy>
  </scstep>
  <scstep>
   <time name="total">    4.91    4.95</time>
   <energy>
    <i name="e_fr_energy">   -110.29705626 </i>
    <i name="e_wo_entrp">   -110.29689690 </i>
    <i name="e_0_energy">   -110.29697658 </i>
   </energy>
  </scstep>
  <scstep>
   <time name="total">    4.91    4.95</time>
   <energy>
    <i name="e_fr_energy">   -110.29705633 </i>
    <i name="e_wo_entrp">   -110.29689696 </i>
    <i name="e_0_energy">   -110.29697664 </i>
   </energy>
  </scstep>
  <scstep>
   <time name="total">    4.95    4.99</time>
   <energy>
    <i name="e_fr_energy">   -110.29705632 </i>
    <i name="e_wo_entrp">   -110.29689695 </i>
    <i name="e_0_energy">   -110.29697664 </i>
   </energy>
  </scstep>
  <scstep>
   <time name="total">    5.61    5.65</time>
   <energy>
    <i name="alphaZ">    103.60434174 </i>
    <i name="ewald">  -1346.74974801 </i>
    <i name="hartreedc">   -161.25159125 </i>
    <i name="XCdc">     97.24642638 </i>
    <i name="pawpsdc">   5566.24282497 </i>
    <i name="pawaedc">  -5539.94439214 </i>
    <i name="eentropy">     -0.00015938 </i>
    <i name="bandstr">      7.32035368 </i>
    <i name="atom">   1163.23488769 </i>
    <i name="e_fr_energy">   -110.29705632 </i>
    <i name="e_wo_entrp">   -110.29689695 </i>
    <i name="e_0_energy">   -110.29697663 </i>
   </energy>
  </scstep>
  <structure>
   <crystal>
    <varray name="basis" >
     <v>       4.52688000      -3.10946000       0.00000000 </v>
     <v>       4.52688000       3.10946000       0.00000000 </v>
     <v>       2.39102800       0.00000000       4.94412400 </v>
    </varray>
    <i name="volume">    139.18848468 </i>
    <varray name="rec_basis" >
     <v>       0.11045135      -0.16079962      -0.05341538 </v>
     <v>       0.11045135       0.16079962      -0.05341538 </v>
     <v>       0.00000000       0.00000000       0.20226030 </v>
    </varray>
   </crystal>
   <varray name="positions" >
    <v>       0.27474300       0.82271900       0.82271900 </v>
    <v>       0.82271900       0.82271900       0.27474300 </v>
    <v>       0.82271900       0.27474300       0.82271900 </v>
    <v>       0.17728100       0.72525700       0.17728100 </v>
    <v>       0.17728100       0.17728100       0.72525700 </v>
    <v>       0.72525700       0.17728100       0.17728100 </v>
    <v>       0.67700400       0.98584400       0.98584300 </v>
    <v>       0.98584400       0.98584400       0.67700400 </v>
    <v>       0.98584400       0.67700400       0.98584300 </v>
    <v>       0.01415600       0.32299600       0.01415600 </v>
    <v>       0.01415700       0.01415600       0.32299600 </v>
    <v>       0.32299600       0.01415600       0.01415600 </v>
    <v>       0.32567800       0.32567800       0.32567800 </v>
    <v>       0.67432200       0.67432200       0.67432200 </v>
    <v>       0.50000000       0.50000000       0.50000000 </v>
   </varray>
  </structure>
  <varray name="forces" >
   <v>       0.00000000       0.00000000       0.00000000 </v>
   <v>       0.00000000       0.00000000       0.00000000 </v>
   <v>       0.00000000       0.00000000       0.00000000 </v>
   <v>       0.00000000       0.00000000       0.00000000 </v>
   <v>       0.00000000       0.00000000       0.00000000 </v>
   <v>       0.00000000       0.00000000       0.00000000 </v>
   <v>       0.00000000       0.00000000       0.00000000 </v>
   <v>       0.00000000       0.00000000       0.00000000 </v>
   <v>       0.00000000       0.00000000       0.00000000 </v>
   <v>       0.00000000       0.00000000       0.00000000 </v>
   <v>       0.00000000       0.00000000       0.00000000 </v>
   <v>       0.00000000       0.00000000       0.00000000 </v>
   <v>       0.00000000       0.00000000       0.00000000 </v>
   <v>       0.00000000       0.00000000       0.00000000 </v>
   <v>       0.00000000       0.00000000       0.00000000 </v>
  </varray>
  <varray name="stress" >
   <v>       0.00000000       0.00000000       0.00000000 </v>
   <v>       0.00000000       0.00000000       0.00000000 </v>
   <v>       0.00000000       0.00000000       0.00000000 </v>
  </varray>
  <energy>
   <i name="e_fr_energy">   -110.29705632 </i>
   <i name="e_wo_entrp">   -110.29689695 </i>
   <i name="e_0_energy">   -110.29697663 </i>
  </energy>
  <time name="totalsc">   92.16   92.85</time>
  <eigenvalues>
   <array>
    <dimension dim="1">band</dimension>
    <dimension dim="2">kpoint</dimension>
    <dimension dim="3">spin</dimension>
    <field>eigene</field>
    <field>occ</field>
    <set>
     <set comment="spin 1">
      <set comment="kpoint 1">
       <r>   -9.7283    1.0000 </r>
       <r>   -5.1981    1.0000 </r>
       <r>   -5.1981    1.0000 </r>
       <r>   -4.8554    1.0000 </r>
       <r>   -4.7251    1.0000 </r>
       <r>   -2.7249    1.0000 </r>
       <r>   -2.7249    1.0000 </r>
       <r>   -2.7169    1.0000 </r>
       <r>   -1.2235    1.0000 </r>
       <r>   -0.8850    1.0000 </r>
       <r>   -0.8850    1.0000 </r>
       <r>    0.3681    1.0000 </r>
       <r>    0.4301    1.0000 </r>
       <r>    1.1460    1.0000 </r>
       <r>    1.1460    1.0000 </r>
       <r>    3.0561    1.0000 </r>
       <r>    3.0561    1.0000 </r>
       <r>    3.1563    1.0000 </r>
       <r>    4.0509    1.0000 </r>
       <r>    4.7922    1.0000 </r>
       <r>    4.7922    1.0000 </r>
       <r>    5.7025    1.0000 </r>
       <r>    5.7025    1.0000 </r>
       <r>    8.2927    0.0000 </r>
       <r>    9.2137    0.0000 </r>
       <r>    9.3498    0.0000 </r>
       <r>    9.3498    0.0000 </r>
       <r>   10.2637    0.0000 </r>
       <r>   10.2637    0.0000 </r>
       <r>   11.4912    0.0000 </r>
       <r>   12.3002    0.0000 </r>
       <r>   12.3750    0.0000 </r>
       <r>   12.7541    0.0000 </r>
       <r>   12.8269    0.0000 </r>
       <r>   12.9494    0.0000 </r>
       <r>   12.9632    0.0000 </r>
      </set>
      <set comment="kpoint 2">
       <r>   -9.6617    1.0000 </r>
       <r>   -5.8406    1.0000 </r>
       <r>   -5.2087    1.0000 </r>
       <r>   -4.8140    1.0000 </r>
       <r>   -4.2778    1.0000 </r>
       <r>   -3.1843    1.0000 </r>
       <r>   -2.6519    1.0000 </r>
       <r>   -2.1447    1.0000 </r>
       <r>   -1.2344    1.0000 </r>
       <r>   -1.0580    1.0000 </r>
       <r>   -0.5785    1.0000 </r>
       <r>   -0.1381    1.0000 </r>
       <r>    0.8767    1.0000 </r>
       <r>    1.5267    1.0000 </r>
       <r>    1.6357    1.0000 </r>
       <r>    2.4714    1.0000 </r>
       <r>    2.7244    1.0000 </r>
       <r>    3.1766    1.0000 </r>
       <r>    4.3758    1.0000 </r>
       <r>    4.6036    1.0000 </r>
       <r>    4.8078    1.0000 </r>
       <r>    5.3872    1.0000 </r>
       <r>    5.5997    1.0000 </r>
       <r>    7.8576    0.9989 </r>
       <r>    9.2240    0.0000 </r>
       <r>    9.3886    0.0000 </r>
       <r>    9.6352    0.0000 </r>
       <r>   10.0532    0.0000 </r>
       <r>   10.1442    0.0000 </r>
       <r>   11.4412    0.0000 </r>
       <r>   11.7990    0.0000 </r>
       <r>   12.2213    0.0000 </r>
       <r>   12.3136    0.0000 </r>
       <r>   12.7037    0.0000 </r>
       <r>   13.0053    0.0000 </r>
       <r>   13.3665    0.0000 </r>
      </set>
      <set comment="kpoint 3">
       <r>   -9.4876    1.0000 </r>
       <r>   -6.5767    1.0000 </r>
       <r>   -5.2296    1.0000 </r>
       <r>   -4.9070    1.0000 </r>
       <r>   -3.8793    1.0000 </r>
       <r>   -3.3578    1.0000 </r>
       <r>   -2.5282    1.0000 </r>
       <r>   -1.9240    1.0000 </r>
       <r>   -1.2268    1.0000 </r>
       <r>   -0.7392    1.0000 </r>
       <r>   -0.5419    1.0000 </r>
       <r>    0.1116    1.0000 </r>
       <r>    1.1128    1.0000 </r>
       <r>    1.7833    1.0000 </r>
       <r>    1.7974    1.0000 </r>
       <r>    2.4913    1.0000 </r>
       <r>    2.9596    1.0000 </r>
       <r>    3.3986    1.0000 </r>
       <r>    3.5793    1.0000 </r>
       <r>    4.5000    1.0000 </r>
       <r>    4.8051    1.0000 </r>
       <r>    4.9962    1.0000 </r>
       <r>    5.2031    1.0000 </r>
       <r>    6.8388    1.0000 </r>
       <r>    8.7025    0.0000 </r>
       <r>    9.1811    0.0000 </r>
       <r>    9.4698    0.0000 </r>
       <r>   10.0553    0.0000 </r>
       <r>   10.8003    0.0000 </r>
       <r>   11.3252    0.0000 </r>
       <r>   11.6271    0.0000 </r>
       <r>   11.9014    0.0000 </r>
       <r>   11.9086    0.0000 </r>
       <r>   12.9387    0.0000 </r>
       <r>   13.0148    0.0000 </r>
       <r>   13.0782    0.0000 </r>
      </set>
      <set comment="kpoint 4">
       <r>   -9.3094    1.0000 </r>
       <r>   -7.0605    1.0000 </r>
       <r>   -5.2435    1.0000 </r>
       <r>   -4.9427    1.0000 </r>
       <r>   -4.0190    1.0000 </r>
       <r>   -2.9901    1.0000 </r>
       <r>   -2.4970    1.0000 </r>
       <r>   -2.0187    1.0000 </r>
       <r>   -1.1513    1.0000 </r>
       <r>   -0.7235    1.0000 </r>
       <r>   -0.2382    1.0000 </r>
       <r>    0.5040    1.0000 </r>
       <r>    1.2196    1.0000 </r>
       <r>    1.5095    1.0000 </r>
       <r>    2.1714    1.0000 </r>
       <r>    2.4995    1.0000 </r>
       <r>    3.1799    1.0000 </r>
       <r>    3.5963    1.0000 </r>
       <r>    3.7168    1.0000 </r>
       <r>    4.3266    1.0000 </r>
       <r>    4.6695    1.0000 </r>
       <r>    4.7875    1.0000 </r>
       <r>    4.9880    1.0000 </r>
       <r>    5.6392    1.0000 </r>
       <r>    7.9594    0.0000 </r>
       <r>    8.3905    0.0000 </r>
       <r>    9.5202    0.0000 </r>
       <r>   10.2814    0.0000 </r>
       <r>   11.0725    0.0000 </r>
       <r>   11.4660    0.0000 </r>
       <r>   11.5401    0.0000 </r>
       <r>   12.2498    0.0000 </r>
       <r>   12.4393    0.0000 </r>
       <r>   12.9811    0.0000 </r>
       <r>   13.0029    0.0000 </r>
       <r>   13.1520    0.0000 </r>
      </set>
      <set comment="kpoint 5">
       <r>   -9.6307    1.0000 </r>
       <r>   -5.7761    1.0000 </r>
       <r>   -5.3628    1.0000 </r>
       <r>   -4.9497    1.0000 </r>
       <r>   -4.2146    1.0000 </r>
       <r>   -3.2533    1.0000 </r>
       <r>   -2.3912    1.0000 </r>
       <r>   -2.3134    1.0000 </r>
       <r>   -1.3235    1.0000 </r>
       <r>   -0.9066    1.0000 </r>
       <r>   -0.8276    1.0000 </r>
       <r>   -0.0146    1.0000 </r>
       <r>    1.2286    1.0000 </r>
       <r>    1.3501    1.0000 </r>
       <r>    1.9520    1.0000 </r>
       <r>    2.7458    1.0000 </r>
       <r>    2.7488    1.0000 </r>
       <r>    3.1790    1.0000 </r>
       <r>    4.3533    1.0000 </r>
       <r>    4.3558    1.0000 </r>
       <r>    4.7584    1.0000 </r>
       <r>    5.2165    1.0000 </r>
       <r>    5.7189    1.0000 </r>
       <r>    7.4038    1.0000 </r>
       <r>    9.3139    0.0000 </r>
       <r>    9.4984    0.0000 </r>
       <r>    9.5332    0.0000 </r>
       <r>    9.8518    0.0000 </r>
       <r>   10.1508    0.0000 </r>
       <r>   11.4747    0.0000 </r>
       <r>   11.7815    0.0000 </r>
       <r>   11.9916    0.0000 </r>
       <r>   12.0799    0.0000 </r>
       <r>   12.4548    0.0000 </r>
       <r>   12.7682    0.0000 </r>
       <r>   13.4243    0.0000 </r>
      </set>
      <set comment="kpoint 6">
       <r>   -9.4851    1.0000 </r>
       <r>   -6.3531    1.0000 </r>
       <r>   -5.4250    1.0000 </r>
       <r>   -5.0039    1.0000 </r>
       <r>   -3.9860    1.0000 </r>
       <r>   -3.4228    1.0000 </r>
       <r>   -2.4950    1.0000 </r>
       <r>   -1.9235    1.0000 </r>
       <r>   -1.1522    1.0000 </r>
       <r>   -0.9264    1.0000 </r>
       <r>   -0.2389    1.0000 </r>
       <r>   -0.0698    1.0000 </r>
       <r>    1.2205    1.0000 </r>
       <r>    1.8821    1.0000 </r>
       <r>    2.0540    1.0000 </r>
       <r>    2.7167    1.0000 </r>
       <r>    2.8422    1.0000 </r>
       <r>    3.2974    1.0000 </r>
       <r>    3.6822    1.0000 </r>
       <r>    4.4793    1.0000 </r>
       <r>    4.6298    1.0000 </r>
       <r>    5.0369    1.0000 </r>
       <r>    5.4036    1.0000 </r>
       <r>    6.6108    1.0000 </r>
       <r>    8.9900    0.0000 </r>
       <r>    9.1684    0.0000 </r>
       <r>    9.5974    0.0000 </r>
       <r>    9.8899    0.0000 </r>
       <r>   10.1894    0.0000 </r>
       <r>   11.1412    0.0000 </r>
       <r>   11.3453    0.0000 </r>
       <r>   11.9620    0.0000 </r>
       <r>   12.1964    0.0000 </r>
       <r>   12.5792    0.0000 </r>
       <r>   12.7429    0.0000 </r>
       <r>   13.4669    0.0000 </r>
      </set>
      <set comment="kpoint 7">
       <r>   -9.3023    1.0000 </r>
       <r>   -6.8868    1.0000 </r>
       <r>   -5.5282    1.0000 </r>
       <r>   -5.0613    1.0000 </r>
       <r>   -3.7466    1.0000 </r>
       <r>   -3.3810    1.0000 </r>
       <r>   -2.5556    1.0000 </r>
       <r>   -1.8636    1.0000 </r>
       <r>   -1.0480    1.0000 </r>
       <r>   -0.6673    1.0000 </r>
       <r>    0.2242    1.0000 </r>
       <r>    0.3199    1.0000 </r>
       <r>    1.0307    1.0000 </r>
       <r>    1.8856    1.0000 </r>
       <r>    2.1650    1.0000 </r>
       <r>    2.6067    1.0000 </r>
       <r>    3.0008    1.0000 </r>
       <r>    3.1280    1.0000 </r>
       <r>    3.9433    1.0000 </r>
       <r>    4.3908    1.0000 </r>
       <r>    4.5043    1.0000 </r>
       <r>    4.7499    1.0000 </r>
       <r>    5.2397    1.0000 </r>
       <r>    5.6189    1.0000 </r>
       <r>    8.2633    0.0000 </r>
       <r>    8.5247    0.0000 </r>
       <r>    9.3911    0.0000 </r>
       <r>   10.1915    0.0000 </r>
       <r>   10.7803    0.0000 </r>
       <r>   11.0960    0.0000 </r>
       <r>   11.4158    0.0000 </r>
       <r>   11.9062    0.0000 </r>
       <r>   12.3112    0.0000 </r>
       <r>   12.8743    0.0000 </r>
       <r>   13.0847    0.0000 </r>
       <r>   13.5881    0.0000 </r>
      </set>
      <set comment="kpoint 8">
       <r>   -9.2463    1.0000 </r>
       <r>   -7.0281    1.0000 </r>
       <r>   -5.6485    1.0000 </r>
       <r>   -5.0512    1.0000 </r>
       <r>   -3.7046    1.0000 </r>
       <r>   -3.1274    1.0000 </r>
       <r>   -2.5263    1.0000 </r>
       <r>   -1.8691    1.0000 </r>
       <r>   -0.8950    1.0000 </r>
       <r>   -0.7572    1.0000 </r>
       <r>    0.0786    1.0000 </r>
       <r>    0.5330    1.0000 </r>
       <r>    1.1858    1.0000 </r>
       <r>    1.6571    1.0000 </r>
       <r>    2.1624    1.0000 </r>
       <r>    2.4988    1.0000 </r>
       <r>    3.0604    1.0000 </r>
       <r>    3.3180    1.0000 </r>
       <r>    3.7180    1.0000 </r>
       <r>    4.1294    1.0000 </r>
       <r>    4.4311    1.0000 </r>
       <r>    4.7858    1.0000 </r>
       <r>    4.9425    1.0000 </r>
       <r>    5.9449    1.0000 </r>
       <r>    7.9209    0.0800 </r>
       <r>    8.4552    0.0000 </r>
       <r>    9.4637    0.0000 </r>
       <r>   10.0904    0.0000 </r>
       <r>   10.8210    0.0000 </r>
       <r>   11.3490    0.0000 </r>
       <r>   11.6237    0.0000 </r>
       <r>   11.8746    0.0000 </r>
       <r>   12.6044    0.0000 </r>
       <r>   12.9502    0.0000 </r>
       <r>   13.1462    0.0000 </r>
       <r>   13.7223    0.0000 </r>
      </set>
      <set comment="kpoint 9">
       <r>   -9.3856    1.0000 </r>
       <r>   -6.7086    1.0000 </r>
       <r>   -5.6714    1.0000 </r>
       <r>   -4.9759    1.0000 </r>
       <r>   -3.6325    1.0000 </r>
       <r>   -3.2045    1.0000 </r>
       <r>   -2.5195    1.0000 </r>
       <r>   -1.8276    1.0000 </r>
       <r>   -0.8354    1.0000 </r>
       <r>   -0.7777    1.0000 </r>
       <r>   -0.2608    1.0000 </r>
       <r>    0.3761    1.0000 </r>
       <r>    0.7819    1.0000 </r>
       <r>    1.5007    1.0000 </r>
       <r>    1.9093    1.0000 </r>
       <r>    2.5880    1.0000 </r>
       <r>    3.0244    1.0000 </r>
       <r>    3.4564    1.0000 </r>
       <r>    3.8349    1.0000 </r>
       <r>    3.8909    1.0000 </r>
       <r>    4.5420    1.0000 </r>
       <r>    4.6884    1.0000 </r>
       <r>    5.1259    1.0000 </r>
       <r>    6.9453    1.0000 </r>
       <r>    8.3653    0.0000 </r>
       <r>    9.1812    0.0000 </r>
       <r>    9.6255    0.0000 </r>
       <r>    9.8047    0.0000 </r>
       <r>   10.6828    0.0000 </r>
       <r>   11.2197    0.0000 </r>
       <r>   11.5990    0.0000 </r>
       <r>   11.8318    0.0000 </r>
       <r>   12.6807    0.0000 </r>
       <r>   12.8737    0.0000 </r>
       <r>   13.1104    0.0000 </r>
       <r>   13.2960    0.0000 </r>
      </set>
      <set comment="kpoint 10">
       <r>   -9.5661    1.0000 </r>
       <r>   -6.2068    1.0000 </r>
       <r>   -5.4763    1.0000 </r>
       <r>   -4.9002    1.0000 </r>
       <r>   -3.8146    1.0000 </r>
       <r>   -3.3177    1.0000 </r>
       <r>   -2.4848    1.0000 </r>
       <r>   -1.9486    1.0000 </r>
       <r>   -1.2657    1.0000 </r>
       <r>   -0.8359    1.0000 </r>
       <r>   -0.2493    1.0000 </r>
       <r>    0.0280    1.0000 </r>
       <r>    0.7839    1.0000 </r>
       <r>    1.2468    1.0000 </r>
       <r>    1.7741    1.0000 </r>
       <r>    2.5467    1.0000 </r>
       <r>    2.7784    1.0000 </r>
       <r>    2.9080    1.0000 </r>
       <r>    4.3322    1.0000 </r>
       <r>    4.6062    1.0000 </r>
       <r>    4.7485    1.0000 </r>
       <r>    4.9178    1.0000 </r>
       <r>    5.3468    1.0000 </r>
       <r>    7.7832    1.0000 </r>
       <r>    8.9350    0.0000 </r>
       <r>    9.5765    0.0000 </r>
       <r>    9.7243    0.0000 </r>
       <r>    9.9097    0.0000 </r>
       <r>   10.0443    0.0000 </r>
       <r>   11.5405    0.0000 </r>
       <r>   11.5604    0.0000 </r>
       <r>   12.0449    0.0000 </r>
       <r>   12.4995    0.0000 </r>
       <r>   12.5098    0.0000 </r>
       <r>   13.1025    0.0000 </r>
       <r>   13.2951    0.0000 </r>
      </set>
      <set comment="kpoint 11">
       <r>   -9.3785    1.0000 </r>
       <r>   -6.3330    1.0000 </r>
       <r>   -5.6499    1.0000 </r>
       <r>   -5.1885    1.0000 </r>
       <r>   -4.5563    1.0000 </r>
       <r>   -3.0654    1.0000 </r>
       <r>   -2.4473    1.0000 </r>
       <r>   -1.6612    1.0000 </r>
       <r>   -0.8526    1.0000 </r>
       <r>   -0.6141    1.0000 </r>
       <r>   -0.4324    1.0000 </r>
       <r>    0.3657    1.0000 </r>
       <r>    1.2403    1.0000 </r>
       <r>    1.6404    1.0000 </r>
       <r>    2.2697    1.0000 </r>
       <r>    2.6097    1.0000 </r>
       <r>    3.1204    1.0000 </r>
       <r>    3.4088    1.0000 </r>
       <r>    3.6282    1.0000 </r>
       <r>    3.9240    1.0000 </r>
       <r>    4.4209    1.0000 </r>
       <r>    5.1077    1.0000 </r>
       <r>    5.6005    1.0000 </r>
       <r>    6.2579    1.0000 </r>
       <r>    8.7254    0.0000 </r>
       <r>    9.0623    0.0000 </r>
       <r>    9.5966    0.0000 </r>
       <r>    9.9552    0.0000 </r>
       <r>    9.9793    0.0000 </r>
       <r>   10.7468    0.0000 </r>
       <r>   10.7510    0.0000 </r>
       <r>   11.9928    0.0000 </r>
       <r>   12.1523    0.0000 </r>
       <r>   12.7338    0.0000 </r>
       <r>   12.7853    0.0000 </r>
       <r>   13.1553    0.0000 </r>
      </set>
      <set comment="kpoint 12">
       <r>   -9.2253    1.0000 </r>
       <r>   -6.6350    1.0000 </r>
       <r>   -5.8926    1.0000 </r>
       <r>   -5.2398    1.0000 </r>
       <r>   -4.5022    1.0000 </r>
       <r>   -3.0816    1.0000 </r>
       <r>   -2.4754    1.0000 </r>
       <r>   -1.2891    1.0000 </r>
       <r>   -0.6839    1.0000 </r>
       <r>   -0.5363    1.0000 </r>
       <r>    0.1018    1.0000 </r>
       <r>    0.6678    1.0000 </r>
       <r>    1.0905    1.0000 </r>
       <r>    1.7781    1.0000 </r>
       <r>    2.2787    1.0000 </r>
       <r>    2.5324    1.0000 </r>
       <r>    2.9919    1.0000 </r>
       <r>    3.1720    1.0000 </r>
       <r>    3.4024    1.0000 </r>
       <r>    3.7090    1.0000 </r>
       <r>    4.5184    1.0000 </r>
       <r>    5.1394    1.0000 </r>
       <r>    5.2433    1.0000 </r>
       <r>    6.1350    1.0000 </r>
       <r>    8.5578    0.0000 </r>
       <r>    8.6384    0.0000 </r>
       <r>    9.2059    0.0000 </r>
       <r>    9.6381    0.0000 </r>
       <r>   10.0951    0.0000 </r>
       <r>   10.7830    0.0000 </r>
       <r>   11.1040    0.0000 </r>
       <r>   11.9371    0.0000 </r>
       <r>   12.4013    0.0000 </r>
       <r>   12.8276    0.0000 </r>
       <r>   12.9545    0.0000 </r>
       <r>   13.3037    0.0000 </r>
      </set>
      <set comment="kpoint 13">
       <r>   -9.1499    1.0000 </r>
       <r>   -6.7779    1.0000 </r>
       <r>   -6.2128    1.0000 </r>
       <r>   -5.2026    1.0000 </r>
       <r>   -3.9721    1.0000 </r>
       <r>   -3.0321    1.0000 </r>
       <r>   -2.6922    1.0000 </r>
       <r>   -1.2386    1.0000 </r>
       <r>   -0.9375    1.0000 </r>
       <r>   -0.2337    1.0000 </r>
       <r>    0.3831    1.0000 </r>
       <r>    0.6800    1.0000 </r>
       <r>    1.1292    1.0000 </r>
       <r>    2.0023    1.0000 </r>
       <r>    2.1987    1.0000 </r>
       <r>    2.3797    1.0000 </r>
       <r>    2.7920    1.0000 </r>
       <r>    3.0143    1.0000 </r>
       <r>    3.4879    1.0000 </r>
       <r>    3.6526    1.0000 </r>
       <r>    4.4070    1.0000 </r>
       <r>    4.6486    1.0000 </r>
       <r>    5.1591    1.0000 </r>
       <r>    6.4142    1.0000 </r>
       <r>    8.1632    0.0000 </r>
       <r>    8.6330    0.0000 </r>
       <r>    9.1076    0.0000 </r>
       <r>    9.2459    0.0000 </r>
       <r>   10.6694    0.0000 </r>
       <r>   11.2959    0.0000 </r>
       <r>   11.4724    0.0000 </r>
       <r>   11.9117    0.0000 </r>
       <r>   12.1549    0.0000 </r>
       <r>   12.9900    0.0000 </r>
       <r>   13.3031    0.0000 </r>
       <r>   13.3548    0.0000 </r>
      </set>
      <set comment="kpoint 14">
       <r>   -9.2335    1.0000 </r>
       <r>   -6.7332    1.0000 </r>
       <r>   -6.1911    1.0000 </r>
       <r>   -5.0857    1.0000 </r>
       <r>   -3.5089    1.0000 </r>
       <r>   -3.1048    1.0000 </r>
       <r>   -2.7758    1.0000 </r>
       <r>   -1.2993    1.0000 </r>
       <r>   -1.1380    1.0000 </r>
       <r>   -0.3864    1.0000 </r>
       <r>    0.0902    1.0000 </r>
       <r>    0.6976    1.0000 </r>
       <r>    0.9900    1.0000 </r>
       <r>    1.4631    1.0000 </r>
       <r>    2.2900    1.0000 </r>
       <r>    2.3953    1.0000 </r>
       <r>    3.1273    1.0000 </r>
       <r>    3.2791    1.0000 </r>
       <r>    3.7234    1.0000 </r>
       <r>    3.7326    1.0000 </r>
       <r>    3.8735    1.0000 </r>
       <r>    4.6332    1.0000 </r>
       <r>    5.1169    1.0000 </r>
       <r>    6.7859    1.0000 </r>
       <r>    8.0229    0.0000 </r>
       <r>    9.1115    0.0000 </r>
       <r>    9.1867    0.0000 </r>
       <r>    9.6304    0.0000 </r>
       <r>   10.6634    0.0000 </r>
       <r>   10.8606    0.0000 </r>
       <r>   11.9287    0.0000 </r>
       <r>   12.1329    0.0000 </r>
       <r>   12.5030    0.0000 </r>
       <r>   12.9509    0.0000 </r>
       <r>   13.1050    0.0000 </r>
       <r>   13.1435    0.0000 </r>
      </set>
      <set comment="kpoint 15">
       <r>   -9.1261    1.0000 </r>
       <r>   -6.6533    1.0000 </r>
       <r>   -5.8326    1.0000 </r>
       <r>   -5.3331    1.0000 </r>
       <r>   -5.1320    1.0000 </r>
       <r>   -3.2091    1.0000 </r>
       <r>   -1.9013    1.0000 </r>
       <r>   -1.0639    1.0000 </r>
       <r>   -0.6822    1.0000 </r>
       <r>   -0.1891    1.0000 </r>
       <r>    0.2995    1.0000 </r>
       <r>    0.9528    1.0000 </r>
       <r>    1.2228    1.0000 </r>
       <r>    1.6889    1.0000 </r>
       <r>    2.1909    1.0000 </r>
       <r>    2.2579    1.0000 </r>
       <r>    2.6934    1.0000 </r>
       <r>    2.7212    1.0000 </r>
       <r>    3.6787    1.0000 </r>
       <r>    3.8287    1.0000 </r>
       <r>    4.0019    1.0000 </r>
       <r>    5.1753    1.0000 </r>
       <r>    5.3314    1.0000 </r>
       <r>    6.8098    1.0000 </r>
       <r>    8.1199    0.0000 </r>
       <r>    8.5075    0.0000 </r>
       <r>    9.1703    0.0000 </r>
       <r>    9.8218    0.0000 </r>
       <r>    9.9597    0.0000 </r>
       <r>   10.2444    0.0000 </r>
       <r>   10.9113    0.0000 </r>
       <r>   11.4955    0.0000 </r>
       <r>   12.4499    0.0000 </r>
       <r>   12.8589    0.0000 </r>
       <r>   12.9193    0.0000 </r>
       <r>   13.7199    0.0000 </r>
      </set>
      <set comment="kpoint 16">
       <r>   -9.0898    1.0000 </r>
       <r>   -6.6393    1.0000 </r>
       <r>   -6.2308    1.0000 </r>
       <r>   -5.3159    1.0000 </r>
       <r>   -4.7201    1.0000 </r>
       <r>   -3.1834    1.0000 </r>
       <r>   -2.1449    1.0000 </r>
       <r>   -0.9256    1.0000 </r>
       <r>   -0.6317    1.0000 </r>
       <r>   -0.1860    1.0000 </r>
       <r>    0.3464    1.0000 </r>
       <r>    0.8176    1.0000 </r>
       <r>    1.7200    1.0000 </r>
       <r>    1.8084    1.0000 </r>
       <r>    2.0651    1.0000 </r>
       <r>    2.1638    1.0000 </r>
       <r>    2.5576    1.0000 </r>
       <r>    2.5710    1.0000 </r>
       <r>    3.6235    1.0000 </r>
       <r>    3.7771    1.0000 </r>
       <r>    4.0423    1.0000 </r>
       <r>    5.0098    1.0000 </r>
       <r>    5.2209    1.0000 </r>
       <r>    6.9290    1.0000 </r>
       <r>    8.1471    0.0000 </r>
       <r>    8.1975    0.0000 </r>
       <r>    9.3052    0.0000 </r>
       <r>    9.3586    0.0000 </r>
       <r>   10.4206    0.0000 </r>
       <r>   10.4903    0.0000 </r>
       <r>   11.0502    0.0000 </r>
       <r>   11.4645    0.0000 </r>
       <r>   12.5276    0.0000 </r>
       <r>   12.6202    0.0000 </r>
       <r>   13.2517    0.0000 </r>
       <r>   13.6596    0.0000 </r>
      </set>
      <set comment="kpoint 17">
       <r>   -9.6346    1.0000 </r>
       <r>   -5.3587    1.0000 </r>
       <r>   -5.2841    1.0000 </r>
       <r>   -5.2841    1.0000 </r>
       <r>   -4.4362    1.0000 </r>
       <r>   -2.9470    1.0000 </r>
       <r>   -2.5000    1.0000 </r>
       <r>   -2.5000    1.0000 </r>
       <r>   -1.5440    1.0000 </r>
       <r>   -1.2066    1.0000 </r>
       <r>   -1.2066    1.0000 </r>
       <r>    0.2607    1.0000 </r>
       <r>    1.7458    1.0000 </r>
       <r>    1.7458    1.0000 </r>
       <r>    1.9584    1.0000 </r>
       <r>    3.1140    1.0000 </r>
       <r>    3.1140    1.0000 </r>
       <r>    3.2309    1.0000 </r>
       <r>    4.1116    1.0000 </r>
       <r>    4.3295    1.0000 </r>
       <r>    4.3295    1.0000 </r>
       <r>    5.6489    1.0000 </r>
       <r>    5.6489    1.0000 </r>
       <r>    6.9105    1.0000 </r>
       <r>    9.3034    0.0000 </r>
       <r>    9.3034    0.0000 </r>
       <r>    9.4800    0.0000 </r>
       <r>   10.0795    0.0000 </r>
       <r>   10.0795    0.0000 </r>
       <r>   11.2272    0.0000 </r>
       <r>   11.4740    0.0000 </r>
       <r>   12.0809    0.0000 </r>
       <r>   12.0810    0.0000 </r>
       <r>   12.3047    0.0000 </r>
       <r>   13.0684    0.0000 </r>
       <r>   13.2104    0.0000 </r>
      </set>
      <set comment="kpoint 18">
       <r>   -9.5172    1.0000 </r>
       <r>   -6.0940    1.0000 </r>
       <r>   -5.2466    1.0000 </r>
       <r>   -5.1340    1.0000 </r>
       <r>   -4.1964    1.0000 </r>
       <r>   -3.4044    1.0000 </r>
       <r>   -2.4320    1.0000 </r>
       <r>   -2.1083    1.0000 </r>
       <r>   -1.5765    1.0000 </r>
       <r>   -1.4012    1.0000 </r>
       <r>   -0.6612    1.0000 </r>
       <r>    0.4097    1.0000 </r>
       <r>    1.9402    1.0000 </r>
       <r>    2.1691    1.0000 </r>
       <r>    2.4213    1.0000 </r>
       <r>    2.9139    1.0000 </r>
       <r>    2.9858    1.0000 </r>
       <r>    3.2916    1.0000 </r>
       <r>    3.5614    1.0000 </r>
       <r>    4.3319    1.0000 </r>
       <r>    4.5789    1.0000 </r>
       <r>    5.4202    1.0000 </r>
       <r>    5.4428    1.0000 </r>
       <r>    6.3565    1.0000 </r>
       <r>    8.9661    0.0000 </r>
       <r>    9.2544    0.0000 </r>
       <r>    9.4783    0.0000 </r>
       <r>    9.7853    0.0000 </r>
       <r>    9.9543    0.0000 </r>
       <r>   10.9146    0.0000 </r>
       <r>   11.0537    0.0000 </r>
       <r>   11.6036    0.0000 </r>
       <r>   12.2581    0.0000 </r>
       <r>   12.2891    0.0000 </r>
       <r>   13.0182    0.0000 </r>
       <r>   13.5263    0.0000 </r>
      </set>
      <set comment="kpoint 19">
       <r>   -9.3340    1.0000 </r>
       <r>   -6.7340    1.0000 </r>
       <r>   -5.2825    1.0000 </r>
       <r>   -5.2216    1.0000 </r>
       <r>   -3.9141    1.0000 </r>
       <r>   -3.5180    1.0000 </r>
       <r>   -2.2742    1.0000 </r>
       <r>   -2.2204    1.0000 </r>
       <r>   -1.6240    1.0000 </r>
       <r>   -0.3998    1.0000 </r>
       <r>   -0.1597    1.0000 </r>
       <r>    0.6117    1.0000 </r>
       <r>    1.3348    1.0000 </r>
       <r>    2.0047    1.0000 </r>
       <r>    2.1236    1.0000 </r>
       <r>    2.7667    1.0000 </r>
       <r>    3.2945    1.0000 </r>
       <r>    3.5265    1.0000 </r>
       <r>    3.8206    1.0000 </r>
       <r>    4.3372    1.0000 </r>
       <r>    4.8315    1.0000 </r>
       <r>    4.9641    1.0000 </r>
       <r>    4.9885    1.0000 </r>
       <r>    5.5956    1.0000 </r>
       <r>    8.5119    0.0000 </r>
       <r>    8.6699    0.0000 </r>
       <r>    8.8540    0.0000 </r>
       <r>   10.1603    0.0000 </r>
       <r>   10.5040    0.0000 </r>
       <r>   10.5720    0.0000 </r>
       <r>   11.2341    0.0000 </r>
       <r>   11.4832    0.0000 </r>
       <r>   12.2566    0.0000 </r>
       <r>   12.3826    0.0000 </r>
       <r>   13.4055    0.0000 </r>
       <r>   13.7112    0.0000 </r>
      </set>
      <set comment="kpoint 20">
       <r>   -9.2284    1.0000 </r>
       <r>   -7.0176    1.0000 </r>
       <r>   -5.3595    1.0000 </r>
       <r>   -5.3272    1.0000 </r>
       <r>   -4.1064    1.0000 </r>
       <r>   -2.9239    1.0000 </r>
       <r>   -2.1936    1.0000 </r>
       <r>   -2.1016    1.0000 </r>
       <r>   -1.2744    1.0000 </r>
       <r>   -0.5955    1.0000 </r>
       <r>    0.3063    1.0000 </r>
       <r>    0.6363    1.0000 </r>
       <r>    1.1263    1.0000 </r>
       <r>    1.4044    1.0000 </r>
       <r>    2.2229    1.0000 </r>
       <r>    2.6926    1.0000 </r>
       <r>    3.2575    1.0000 </r>
       <r>    3.4850    1.0000 </r>
       <r>    3.7828    1.0000 </r>
       <r>    4.3631    1.0000 </r>
       <r>    4.5683    1.0000 </r>
       <r>    4.6586    1.0000 </r>
       <r>    4.6659    1.0000 </r>
       <r>    6.1672    1.0000 </r>
       <r>    7.9353    0.0077 </r>
       <r>    8.4182    0.0000 </r>
       <r>    8.9169    0.0000 </r>
       <r>   10.0120    0.0000 </r>
       <r>   10.6377    0.0000 </r>
       <r>   10.7071    0.0000 </r>
       <r>   11.4608    0.0000 </r>
       <r>   11.6596    0.0000 </r>
       <r>   12.7257    0.0000 </r>
       <r>   12.8481    0.0000 </r>
       <r>   13.6138    0.0000 </r>
       <r>   13.8092    0.0000 </r>
      </set>
      <set comment="kpoint 21">
       <r>   -9.3231    1.0000 </r>
       <r>   -6.8204    1.0000 </r>
       <r>   -5.4187    1.0000 </r>
       <r>   -5.3358    1.0000 </r>
       <r>   -4.1222    1.0000 </r>
       <r>   -2.6542    1.0000 </r>
       <r>   -2.1430    1.0000 </r>
       <r>   -1.9450    1.0000 </r>
       <r>   -0.9324    1.0000 </r>
       <r>   -0.8981    1.0000 </r>
       <r>   -0.3239    1.0000 </r>
       <r>    0.6525    1.0000 </r>
       <r>    1.2008    1.0000 </r>
       <r>    1.3338    1.0000 </r>
       <r>    1.7093    1.0000 </r>
       <r>    2.5260    1.0000 </r>
       <r>    3.2398    1.0000 </r>
       <r>    3.4826    1.0000 </r>
       <r>    3.5991    1.0000 </r>
       <r>    4.1074    1.0000 </r>
       <r>    4.3796    1.0000 </r>
       <r>    4.8135    1.0000 </r>
       <r>    4.9823    1.0000 </r>
       <r>    7.0227    1.0000 </r>
       <r>    8.1001    0.0000 </r>
       <r>    9.1203    0.0000 </r>
       <r>    9.2198    0.0000 </r>
       <r>    9.5626    0.0000 </r>
       <r>   10.7372    0.0000 </r>
       <r>   11.0660    0.0000 </r>
       <r>   11.2136    0.0000 </r>
       <r>   11.9801    0.0000 </r>
       <r>   12.7456    0.0000 </r>
       <r>   13.0198    0.0000 </r>
       <r>   13.4948    0.0000 </r>
       <r>   13.6865    0.0000 </r>
      </set>
      <set comment="kpoint 22">
       <r>   -9.5068    1.0000 </r>
       <r>   -6.3177    1.0000 </r>
       <r>   -5.4206    1.0000 </r>
       <r>   -5.1781    1.0000 </r>
       <r>   -4.0400    1.0000 </r>
       <r>   -2.9807    1.0000 </r>
       <r>   -2.2133    1.0000 </r>
       <r>   -2.0820    1.0000 </r>
       <r>   -1.1896    1.0000 </r>
       <r>   -0.7763    1.0000 </r>
       <r>   -0.3158    1.0000 </r>
       <r>    0.2833    1.0000 </r>
       <r>    1.0105    1.0000 </r>
       <r>    1.2316    1.0000 </r>
       <r>    1.6830    1.0000 </r>
       <r>    1.9404    1.0000 </r>
       <r>    3.2954    1.0000 </r>
       <r>    3.3355    1.0000 </r>
       <r>    4.2215    1.0000 </r>
       <r>    4.3265    1.0000 </r>
       <r>    4.3829    1.0000 </r>
       <r>    4.8408    1.0000 </r>
       <r>    5.4572    1.0000 </r>
       <r>    7.4766    1.0000 </r>
       <r>    8.9521    0.0000 </r>
       <r>    9.3131    0.0000 </r>
       <r>    9.6907    0.0000 </r>
       <r>    9.8576    0.0000 </r>
       <r>   10.2024    0.0000 </r>
       <r>   11.4044    0.0000 </r>
       <r>   11.5874    0.0000 </r>
       <r>   11.7513    0.0000 </r>
       <r>   12.3325    0.0000 </r>
       <r>   12.3932    0.0000 </r>
       <r>   13.3948    0.0000 </r>
       <r>   13.5427    0.0000 </r>
      </set>
      <set comment="kpoint 23">
       <r>   -9.4366    1.0000 </r>
       <r>   -6.0210    1.0000 </r>
       <r>   -5.5474    1.0000 </r>
       <r>   -5.2252    1.0000 </r>
       <r>   -4.4109    1.0000 </r>
       <r>   -3.3042    1.0000 </r>
       <r>   -2.4781    1.0000 </r>
       <r>   -2.0061    1.0000 </r>
       <r>   -1.5452    1.0000 </r>
       <r>   -1.1033    1.0000 </r>
       <r>   -0.9624    1.0000 </r>
       <r>    0.9989    1.0000 </r>
       <r>    2.1484    1.0000 </r>
       <r>    2.1590    1.0000 </r>
       <r>    2.8552    1.0000 </r>
       <r>    2.8705    1.0000 </r>
       <r>    3.1431    1.0000 </r>
       <r>    3.1933    1.0000 </r>
       <r>    3.5278    1.0000 </r>
       <r>    4.0654    1.0000 </r>
       <r>    4.6552    1.0000 </r>
       <r>    5.0178    1.0000 </r>
       <r>    5.7001    1.0000 </r>
       <r>    6.1327    1.0000 </r>
       <r>    8.8017    0.0000 </r>
       <r>    9.1310    0.0000 </r>
       <r>    9.4037    0.0000 </r>
       <r>    9.7733    0.0000 </r>
       <r>    9.7805    0.0000 </r>
       <r>   10.4170    0.0000 </r>
       <r>   10.6016    0.0000 </r>
       <r>   11.5128    0.0000 </r>
       <r>   11.9007    0.0000 </r>
       <r>   12.3811    0.0000 </r>
       <r>   12.8653    0.0000 </r>
       <r>   13.3978    0.0000 </r>
      </set>
      <set comment="kpoint 24">
       <r>   -9.2823    1.0000 </r>
       <r>   -6.4753    1.0000 </r>
       <r>   -5.6555    1.0000 </r>
       <r>   -5.3243    1.0000 </r>
       <r>   -4.3473    1.0000 </r>
       <r>   -3.3095    1.0000 </r>
       <r>   -2.6107    1.0000 </r>
       <r>   -1.7696    1.0000 </r>
       <r>   -1.2778    1.0000 </r>
       <r>   -0.7488    1.0000 </r>
       <r>   -0.2360    1.0000 </r>
       <r>    1.1145    1.0000 </r>
       <r>    1.6341    1.0000 </r>
       <r>    2.0346    1.0000 </r>
       <r>    2.5751    1.0000 </r>
       <r>    2.8726    1.0000 </r>
       <r>    3.0352    1.0000 </r>
       <r>    3.4212    1.0000 </r>
       <r>    3.5039    1.0000 </r>
       <r>    4.3114    1.0000 </r>
       <r>    4.5341    1.0000 </r>
       <r>    4.8818    1.0000 </r>
       <r>    5.3766    1.0000 </r>
       <r>    5.9719    1.0000 </r>
       <r>    8.5021    0.0000 </r>
       <r>    8.8342    0.0000 </r>
       <r>    9.0343    0.0000 </r>
       <r>    9.6930    0.0000 </r>
       <r>    9.7450    0.0000 </r>
       <r>   10.3658    0.0000 </r>
       <r>   10.7180    0.0000 </r>
       <r>   11.7625    0.0000 </r>
       <r>   11.8276    0.0000 </r>
       <r>   12.4313    0.0000 </r>
       <r>   12.7222    0.0000 </r>
       <r>   13.3997    0.0000 </r>
      </set>
      <set comment="kpoint 25">
       <r>   -9.1632    1.0000 </r>
       <r>   -6.7954    1.0000 </r>
       <r>   -5.8840    1.0000 </r>
       <r>   -5.3723    1.0000 </r>
       <r>   -4.1565    1.0000 </r>
       <r>   -3.1065    1.0000 </r>
       <r>   -2.5440    1.0000 </r>
       <r>   -1.4078    1.0000 </r>
       <r>   -1.1710    1.0000 </r>
       <r>   -0.4154    1.0000 </r>
       <r>    0.1865    1.0000 </r>
       <r>    0.6696    1.0000 </r>
       <r>    1.3678    1.0000 </r>
       <r>    2.0135    1.0000 </r>
       <r>    2.2020    1.0000 </r>
       <r>    2.8779    1.0000 </r>
       <r>    2.9941    1.0000 </r>
       <r>    3.3219    1.0000 </r>
       <r>    3.5295    1.0000 </r>
       <r>    4.1040    1.0000 </r>
       <r>    4.5191    1.0000 </r>
       <r>    4.6741    1.0000 </r>
       <r>    4.7511    1.0000 </r>
       <r>    6.5203    1.0000 </r>
       <r>    8.2783    0.0000 </r>
       <r>    8.5339    0.0000 </r>
       <r>    8.7929    0.0000 </r>
       <r>    9.4549    0.0000 </r>
       <r>   10.0414    0.0000 </r>
       <r>   10.8073    0.0000 </r>
       <r>   10.9052    0.0000 </r>
       <r>   11.6720    0.0000 </r>
       <r>   12.4633    0.0000 </r>
       <r>   12.7039    0.0000 </r>
       <r>   13.3202    0.0000 </r>
       <r>   13.5646    0.0000 </r>
      </set>
      <set comment="kpoint 26">
       <r>   -9.2023    1.0000 </r>
       <r>   -6.7695    1.0000 </r>
       <r>   -5.9947    1.0000 </r>
       <r>   -5.3266    1.0000 </r>
       <r>   -4.1232    1.0000 </r>
       <r>   -2.7094    1.0000 </r>
       <r>   -2.3477    1.0000 </r>
       <r>   -1.4001    1.0000 </r>
       <r>   -1.0284    1.0000 </r>
       <r>   -0.6647    1.0000 </r>
       <r>   -0.1591    1.0000 </r>
       <r>    0.9246    1.0000 </r>
       <r>    1.2447    1.0000 </r>
       <r>    1.6799    1.0000 </r>
       <r>    2.0324    1.0000 </r>
       <r>    2.4781    1.0000 </r>
       <r>    3.0515    1.0000 </r>
       <r>    3.2672    1.0000 </r>
       <r>    3.5601    1.0000 </r>
       <r>    3.7701    1.0000 </r>
       <r>    4.4464    1.0000 </r>
       <r>    4.6371    1.0000 </r>
       <r>    4.9156    1.0000 </r>
       <r>    6.8176    1.0000 </r>
       <r>    8.1199    0.0000 </r>
       <r>    9.0157    0.0000 </r>
       <r>    9.2028    0.0000 </r>
       <r>    9.4939    0.0000 </r>
       <r>   10.1902    0.0000 </r>
       <r>   10.6041    0.0000 </r>
       <r>   11.1760    0.0000 </r>
       <r>   12.2915    0.0000 </r>
       <r>   12.7061    0.0000 </r>
       <r>   12.8544    0.0000 </r>
       <r>   13.2720    0.0000 </r>
       <r>   13.5973    0.0000 </r>
      </set>
      <set comment="kpoint 27">
       <r>   -9.3550    1.0000 </r>
       <r>   -6.5656    1.0000 </r>
       <r>   -5.8021    1.0000 </r>
       <r>   -5.1813    1.0000 </r>
       <r>   -4.0667    1.0000 </r>
       <r>   -2.8675    1.0000 </r>
       <r>   -2.3256    1.0000 </r>
       <r>   -1.7466    1.0000 </r>
       <r>   -0.8872    1.0000 </r>
       <r>   -0.7216    1.0000 </r>
       <r>   -0.0448    1.0000 </r>
       <r>    0.4066    1.0000 </r>
       <r>    0.7380    1.0000 </r>
       <r>    1.6675    1.0000 </r>
       <r>    2.0629    1.0000 </r>
       <r>    2.1987    1.0000 </r>
       <r>    3.0359    1.0000 </r>
       <r>    3.4128    1.0000 </r>
       <r>    3.5768    1.0000 </r>
       <r>    4.2240    1.0000 </r>
       <r>    4.3531    1.0000 </r>
       <r>    4.8999    1.0000 </r>
       <r>    5.1104    1.0000 </r>
       <r>    6.6938    1.0000 </r>
       <r>    8.6104    0.0000 </r>
       <r>    9.3277    0.0000 </r>
       <r>    9.6622    0.0000 </r>
       <r>    9.8203    0.0000 </r>
       <r>   10.2029    0.0000 </r>
       <r>   10.8080    0.0000 </r>
       <r>   11.3654    0.0000 </r>
       <r>   12.1234    0.0000 </r>
       <r>   12.3632    0.0000 </r>
       <r>   13.0461    0.0000 </r>
       <r>   13.1313    0.0000 </r>
       <r>   13.5669    0.0000 </r>
      </set>
      <set comment="kpoint 28">
       <r>   -9.1752    1.0000 </r>
       <r>   -6.4646    1.0000 </r>
       <r>   -5.7591    1.0000 </r>
       <r>   -5.4864    1.0000 </r>
       <r>   -4.9097    1.0000 </r>
       <r>   -2.8860    1.0000 </r>
       <r>   -2.7372    1.0000 </r>
       <r>   -1.5588    1.0000 </r>
       <r>   -0.8016    1.0000 </r>
       <r>   -0.3539    1.0000 </r>
       <r>   -0.2627    1.0000 </r>
       <r>    1.3753    1.0000 </r>
       <r>    1.8820    1.0000 </r>
       <r>    1.9443    1.0000 </r>
       <r>    2.2385    1.0000 </r>
       <r>    2.2731    1.0000 </r>
       <r>    2.9257    1.0000 </r>
       <r>    3.6381    1.0000 </r>
       <r>    3.6967    1.0000 </r>
       <r>    3.8823    1.0000 </r>
       <r>    4.3600    1.0000 </r>
       <r>    4.7064    1.0000 </r>
       <r>    5.5065    1.0000 </r>
       <r>    6.5540    1.0000 </r>
       <r>    8.3582    0.0000 </r>
       <r>    8.5201    0.0000 </r>
       <r>    8.8826    0.0000 </r>
       <r>    9.5018    0.0000 </r>
       <r>    9.8391    0.0000 </r>
       <r>   10.3281    0.0000 </r>
       <r>   10.7269    0.0000 </r>
       <r>   11.4155    0.0000 </r>
       <r>   12.0740    0.0000 </r>
       <r>   12.2455    0.0000 </r>
       <r>   12.6486    0.0000 </r>
       <r>   13.0515    0.0000 </r>
      </set>
      <set comment="kpoint 29">
       <r>   -9.0911    1.0000 </r>
       <r>   -6.5645    1.0000 </r>
       <r>   -6.1135    1.0000 </r>
       <r>   -5.5652    1.0000 </r>
       <r>   -4.6551    1.0000 </r>
       <r>   -2.8517    1.0000 </r>
       <r>   -2.6372    1.0000 </r>
       <r>   -1.1153    1.0000 </r>
       <r>   -0.5289    1.0000 </r>
       <r>   -0.3582    1.0000 </r>
       <r>   -0.0882    1.0000 </r>
       <r>    0.9379    1.0000 </r>
       <r>    1.7778    1.0000 </r>
       <r>    2.1001    1.0000 </r>
       <r>    2.2319    1.0000 </r>
       <r>    2.3421    1.0000 </r>
       <r>    2.7908    1.0000 </r>
       <r>    3.0803    1.0000 </r>
       <r>    3.5697    1.0000 </r>
       <r>    3.9178    1.0000 </r>
       <r>    4.2119    1.0000 </r>
       <r>    4.7369    1.0000 </r>
       <r>    5.0479    1.0000 </r>
       <r>    6.8797    1.0000 </r>
       <r>    8.2849    0.0000 </r>
       <r>    8.3605    0.0000 </r>
       <r>    9.1163    0.0000 </r>
       <r>    9.3930    0.0000 </r>
       <r>   10.0351    0.0000 </r>
       <r>   10.4130    0.0000 </r>
       <r>   10.9237    0.0000 </r>
       <r>   11.3016    0.0000 </r>
       <r>   12.2533    0.0000 </r>
       <r>   12.6511    0.0000 </r>
       <r>   12.7919    0.0000 </r>
       <r>   13.2487    0.0000 </r>
      </set>
      <set comment="kpoint 30">
       <r>   -9.1082    1.0000 </r>
       <r>   -6.5708    1.0000 </r>
       <r>   -6.3952    1.0000 </r>
       <r>   -5.4980    1.0000 </r>
       <r>   -4.0732    1.0000 </r>
       <r>   -2.8635    1.0000 </r>
       <r>   -2.5183    1.0000 </r>
       <r>   -1.2387    1.0000 </r>
       <r>   -0.9510    1.0000 </r>
       <r>   -0.1615    1.0000 </r>
       <r>    0.3415    1.0000 </r>
       <r>    0.5587    1.0000 </r>
       <r>    1.4842    1.0000 </r>
       <r>    2.1215    1.0000 </r>
       <r>    2.2180    1.0000 </r>
       <r>    2.3929    1.0000 </r>
       <r>    2.5269    1.0000 </r>
       <r>    3.2144    1.0000 </r>
       <r>    3.5220    1.0000 </r>
       <r>    3.7269    1.0000 </r>
       <r>    4.2000    1.0000 </r>
       <r>    4.6514    1.0000 </r>
       <r>    4.8065    1.0000 </r>
       <r>    6.5270    1.0000 </r>
       <r>    8.3818    0.0000 </r>
       <r>    8.8737    0.0000 </r>
       <r>    9.1454    0.0000 </r>
       <r>    9.3049    0.0000 </r>
       <r>   10.4148    0.0000 </r>
       <r>   10.8596    0.0000 </r>
       <r>   11.1256    0.0000 </r>
       <r>   11.5973    0.0000 </r>
       <r>   12.4429    0.0000 </r>
       <r>   13.0091    0.0000 </r>
       <r>   13.1654    0.0000 </r>
       <r>   13.5157    0.0000 </r>
      </set>
      <set comment="kpoint 31">
       <r>   -9.2064    1.0000 </r>
       <r>   -6.8385    1.0000 </r>
       <r>   -5.9869    1.0000 </r>
       <r>   -5.2809    1.0000 </r>
       <r>   -3.7316    1.0000 </r>
       <r>   -3.0169    1.0000 </r>
       <r>   -2.4180    1.0000 </r>
       <r>   -1.8056    1.0000 </r>
       <r>   -1.0227    1.0000 </r>
       <r>   -0.2271    1.0000 </r>
       <r>    0.3177    1.0000 </r>
       <r>    0.6539    1.0000 </r>
       <r>    0.8488    1.0000 </r>
       <r>    2.0061    1.0000 </r>
       <r>    2.1780    1.0000 </r>
       <r>    2.4826    1.0000 </r>
       <r>    2.7275    1.0000 </r>
       <r>    3.1708    1.0000 </r>
       <r>    3.3870    1.0000 </r>
       <r>    4.0406    1.0000 </r>
       <r>    4.3061    1.0000 </r>
       <r>    4.7680    1.0000 </r>
       <r>    5.0578    1.0000 </r>
       <r>    5.9875    1.0000 </r>
       <r>    8.1617    0.0000 </r>
       <r>    8.7947    0.0000 </r>
       <r>    9.7207    0.0000 </r>
       <r>    9.8126    0.0000 </r>
       <r>   10.7224    0.0000 </r>
       <r>   10.8831    0.0000 </r>
       <r>   11.4427    0.0000 </r>
       <r>   12.1032    0.0000 </r>
       <r>   12.2740    0.0000 </r>
       <r>   12.8424    0.0000 </r>
       <r>   13.2924    0.0000 </r>
       <r>   13.6569    0.0000 </r>
      </set>
      <set comment="kpoint 32">
       <r>   -9.0732    1.0000 </r>
       <r>   -6.6399    1.0000 </r>
       <r>   -5.8102    1.0000 </r>
       <r>   -5.6632    1.0000 </r>
       <r>   -5.1202    1.0000 </r>
       <r>   -2.8074    1.0000 </r>
       <r>   -2.0969    1.0000 </r>
       <r>   -1.1635    1.0000 </r>
       <r>   -0.5587    1.0000 </r>
       <r>   -0.3889    1.0000 </r>
       <r>    0.3096    1.0000 </r>
       <r>    0.7523    1.0000 </r>
       <r>    1.4909    1.0000 </r>
       <r>    2.1874    1.0000 </r>
       <r>    2.1947    1.0000 </r>
       <r>    2.3236    1.0000 </r>
       <r>    2.6554    1.0000 </r>
       <r>    2.8509    1.0000 </r>
       <r>    3.6535    1.0000 </r>
       <r>    3.9060    1.0000 </r>
       <r>    3.9547    1.0000 </r>
       <r>    4.7410    1.0000 </r>
       <r>    5.2045    1.0000 </r>
       <r>    6.9744    1.0000 </r>
       <r>    8.2173    0.0000 </r>
       <r>    8.5645    0.0000 </r>
       <r>    9.4880    0.0000 </r>
       <r>    9.5844    0.0000 </r>
       <r>    9.8925    0.0000 </r>
       <r>   10.2487    0.0000 </r>
       <r>   10.3855    0.0000 </r>
       <r>   11.3753    0.0000 </r>
       <r>   12.6312    0.0000 </r>
       <r>   12.8471    0.0000 </r>
       <r>   12.9597    0.0000 </r>
       <r>   13.0813    0.0000 </r>
      </set>
      <set comment="kpoint 33">
       <r>   -9.1295    1.0000 </r>
       <r>   -6.6381    1.0000 </r>
       <r>   -6.0676    1.0000 </r>
       <r>   -5.5687    1.0000 </r>
       <r>   -4.5562    1.0000 </r>
       <r>   -2.7168    1.0000 </r>
       <r>   -2.1898    1.0000 </r>
       <r>   -1.2083    1.0000 </r>
       <r>   -0.8568    1.0000 </r>
       <r>   -0.4687    1.0000 </r>
       <r>    0.4852    1.0000 </r>
       <r>    0.5112    1.0000 </r>
       <r>    1.4140    1.0000 </r>
       <r>    1.8387    1.0000 </r>
       <r>    2.1995    1.0000 </r>
       <r>    2.3934    1.0000 </r>
       <r>    2.7260    1.0000 </r>
       <r>    3.1683    1.0000 </r>
       <r>    3.2945    1.0000 </r>
       <r>    3.7046    1.0000 </r>
       <r>    4.4395    1.0000 </r>
       <r>    4.8006    1.0000 </r>
       <r>    4.9113    1.0000 </r>
       <r>    6.5221    1.0000 </r>
       <r>    8.5797    0.0000 </r>
       <r>    8.7464    0.0000 </r>
       <r>    9.3628    0.0000 </r>
       <r>    9.5233    0.0000 </r>
       <r>   10.3282    0.0000 </r>
       <r>   10.4357    0.0000 </r>
       <r>   10.6552    0.0000 </r>
       <r>   11.9391    0.0000 </r>
       <r>   12.4827    0.0000 </r>
       <r>   13.0361    0.0000 </r>
       <r>   13.0676    0.0000 </r>
       <r>   13.2651    0.0000 </r>
      </set>
      <set comment="kpoint 34">
       <r>   -9.2460    1.0000 </r>
       <r>   -6.5902    1.0000 </r>
       <r>   -5.6801    1.0000 </r>
       <r>   -5.5352    1.0000 </r>
       <r>   -4.7182    1.0000 </r>
       <r>   -2.6269    1.0000 </r>
       <r>   -1.8765    1.0000 </r>
       <r>   -1.4409    1.0000 </r>
       <r>   -0.9424    1.0000 </r>
       <r>   -0.6591    1.0000 </r>
       <r>   -0.1909    1.0000 </r>
       <r>    0.7189    1.0000 </r>
       <r>    1.2626    1.0000 </r>
       <r>    1.4333    1.0000 </r>
       <r>    2.2106    1.0000 </r>
       <r>    2.3173    1.0000 </r>
       <r>    2.8745    1.0000 </r>
       <r>    3.1717    1.0000 </r>
       <r>    3.4783    1.0000 </r>
       <r>    3.8048    1.0000 </r>
       <r>    4.5979    1.0000 </r>
       <r>    4.9144    1.0000 </r>
       <r>    5.2505    1.0000 </r>
       <r>    6.4886    1.0000 </r>
       <r>    8.6893    0.0000 </r>
       <r>    9.0607    0.0000 </r>
       <r>    9.3650    0.0000 </r>
       <r>    9.8714    0.0000 </r>
       <r>    9.9855    0.0000 </r>
       <r>   10.5117    0.0000 </r>
       <r>   10.6009    0.0000 </r>
       <r>   12.3218    0.0000 </r>
       <r>   12.6792    0.0000 </r>
       <r>   12.8944    0.0000 </r>
       <r>   13.0556    0.0000 </r>
       <r>   13.3931    0.0000 </r>
      </set>
      <set comment="kpoint 35">
       <r>   -9.3912    1.0000 </r>
       <r>   -5.9197    1.0000 </r>
       <r>   -5.4401    1.0000 </r>
       <r>   -5.4401    1.0000 </r>
       <r>   -4.5746    1.0000 </r>
       <r>   -3.3921    1.0000 </r>
       <r>   -2.2654    1.0000 </r>
       <r>   -2.2654    1.0000 </r>
       <r>   -1.5158    1.0000 </r>
       <r>   -1.2836    1.0000 </r>
       <r>   -1.2836    1.0000 </r>
       <r>    1.6351    1.0000 </r>
       <r>    2.6625    1.0000 </r>
       <r>    2.8653    1.0000 </r>
       <r>    2.8653    1.0000 </r>
       <r>    2.9802    1.0000 </r>
       <r>    2.9802    1.0000 </r>
       <r>    3.4139    1.0000 </r>
       <r>    3.5664    1.0000 </r>
       <r>    3.5664    1.0000 </r>
       <r>    4.5549    1.0000 </r>
       <r>    5.5104    1.0000 </r>
       <r>    5.5104    1.0000 </r>
       <r>    6.0219    1.0000 </r>
       <r>    8.7840    0.0000 </r>
       <r>    9.2764    0.0000 </r>
       <r>    9.2764    0.0000 </r>
       <r>    9.5212    0.0000 </r>
       <r>    9.5212    0.0000 </r>
       <r>    9.9012    0.0000 </r>
       <r>   10.1547    0.0000 </r>
       <r>   11.3133    0.0000 </r>
       <r>   11.3133    0.0000 </r>
       <r>   12.1843    0.0000 </r>
       <r>   12.7782    0.0000 </r>
       <r>   12.7798    0.0000 </r>
      </set>
      <set comment="kpoint 36">
       <r>   -9.2649    1.0000 </r>
       <r>   -6.2573    1.0000 </r>
       <r>   -5.6873    1.0000 </r>
       <r>   -5.4209    1.0000 </r>
       <r>   -4.3286    1.0000 </r>
       <r>   -3.7790    1.0000 </r>
[...]
       <r>    8.7901    0.0000 </r>
       <r>    9.2348    0.0000 </r>
       <r>    9.2733    0.0000 </r>
       <r>    9.5526    0.0000 </r>
       <r>    9.7495    0.0000 </r>
       <r>   10.2258    0.0000 </r>
       <r>   10.9945    0.0000 </r>
       <r>   11.9724    0.0000 </r>
       <r>   12.1138    0.0000 </r>
       <r>   12.2048    0.0000 </r>
       <r>   12.5681    0.0000 </r>
      </set>
      <set comment="kpoint 43">
       <r>   -9.1444    1.0000 </r>
       <r>   -6.3614    1.0000 </r>
       <r>   -5.5406    1.0000 </r>
       <r>   -5.5405    1.0000 </r>
       <r>   -4.5866    1.0000 </r>
       <r>   -4.0628    1.0000 </r>
       <r>   -2.4189    1.0000 </r>
       <r>   -2.4189    1.0000 </r>
       <r>   -0.6712    1.0000 </r>
       <r>   -0.6712    1.0000 </r>
       <r>   -0.4018    1.0000 </r>
       <r>    1.2592    1.0000 </r>
       <r>    2.0463    1.0000 </r>
       <r>    2.0463    1.0000 </r>
       <r>    3.3900    1.0000 </r>
       <r>    3.5803    1.0000 </r>
       <r>    3.6278    1.0000 </r>
       <r>    3.6279    1.0000 </r>
       <r>    3.8057    1.0000 </r>
       <r>    3.8057    1.0000 </r>
       <r>    5.0505    1.0000 </r>
       <r>    5.3503    1.0000 </r>
       <r>    5.3503    1.0000 </r>
       <r>    6.2270    1.0000 </r>
       <r>    8.0858    0.0000 </r>
       <r>    9.0585    0.0000 </r>
       <r>    9.0585    0.0000 </r>
       <r>    9.1628    0.0000 </r>
       <r>    9.1629    0.0000 </r>
       <r>    9.4026    0.0000 </r>
       <r>    9.5121    0.0000 </r>
       <r>   11.0093    0.0000 </r>
       <r>   11.0093    0.0000 </r>
       <r>   11.3858    0.0000 </r>
       <r>   12.1317    0.0000 </r>
       <r>   12.4077    0.0000 </r>
      </set>
      <set comment="kpoint 44">
       <r>   -9.0889    1.0000 </r>
       <r>   -6.3566    1.0000 </r>
       <r>   -5.9086    1.0000 </r>
       <r>   -5.5779    1.0000 </r>
       <r>   -4.4409    1.0000 </r>
       <r>   -4.1013    1.0000 </r>
       <r>   -2.2843    1.0000 </r>
       <r>   -1.9417    1.0000 </r>
       <r>   -0.8238    1.0000 </r>
       <r>   -0.6712    1.0000 </r>
       <r>   -0.1539    1.0000 </r>
       <r>    1.2446    1.0000 </r>
       <r>    1.8567    1.0000 </r>
       <r>    2.0493    1.0000 </r>
       <r>    3.2501    1.0000 </r>
       <r>    3.3814    1.0000 </r>
       <r>    3.4929    1.0000 </r>
       <r>    3.6778    1.0000 </r>
       <r>    3.8009    1.0000 </r>
       <r>    3.8636    1.0000 </r>
       <r>    4.7261    1.0000 </r>
       <r>    5.0757    1.0000 </r>
       <r>    5.2893    1.0000 </r>
       <r>    6.3489    1.0000 </r>
       <r>    8.3622    0.0000 </r>
       <r>    8.9768    0.0000 </r>
       <r>    9.0190    0.0000 </r>
       <r>    9.1897    0.0000 </r>
       <r>    9.2760    0.0000 </r>
       <r>    9.2844    0.0000 </r>
       <r>   10.0141    0.0000 </r>
       <r>   10.7755    0.0000 </r>
       <r>   11.2471    0.0000 </r>
       <r>   11.2764    0.0000 </r>
       <r>   12.1472    0.0000 </r>
       <r>   12.4896    0.0000 </r>
      </set>
     </set>
    </set>
   </array>
  </eigenvalues>
  <separator name="orbital magnetization" >
   <v name="MAGDIPOLOUT">      0.00000000      0.00000000      0.00000000</v>
  </separator>
  <dos>
   <i name="efermi">      7.90099225 </i>
   <total>
    <array>
     <dimension dim="1">gridpoints</dimension>
     <dimension dim="2">spin</dimension>
     <field>energy</field>
     <field>total</field>
     <field>integrated</field>
     <set>
      <set comment="spin 1">
       <r>   -10.9051     0.0000     0.0000 </r>
       <r>   -10.8188     0.0000     0.0000 </r>
       <r>   -10.7325     0.0000     0.0000 </r>
       <r>   -10.6462     0.0000     0.0000 </r>
       <r>   -10.5599     0.0000     0.0000 </r>
       <r>   -10.4736     0.0000     0.0000 </r>
       <r>   -10.3873     0.0000     0.0000 </r>
       <r>   -10.3010     0.0000     0.0000 </r>
       <r>   -10.2147     0.0000     0.0000 </r>
       <r>   -10.1284     0.0000     0.0000 </r>
       <r>   -10.0421     0.0000     0.0000 </r>
       <r>    -9.9558     0.0000     0.0000 </r>
       <r>    -9.8695     0.0000     0.0000 </r>
       <r>    -9.7832     0.0000     0.0000 </r>
       <r>    -9.6969     0.0693     0.0060 </r>
       <r>    -9.6106     0.9071     0.0843 </r>
       <r>    -9.5243     0.6145     0.1373 </r>
       <r>    -9.4380     2.0419     0.3135 </r>
       <r>    -9.3517     2.0836     0.4934 </r>
       <r>    -9.2654     3.3497     0.7824 </r>
       <r>    -9.1791     5.1152     1.2239 </r>
       <r>    -9.0928     5.9493     1.7374 </r>
       <r>    -9.0064     3.0432     2.0000 </r>
       <r>    -8.9201     0.0001     2.0000 </r>
       <r>    -8.8338     0.0000     2.0000 </r>
       <r>    -8.7475     0.0000     2.0000 </r>
       <r>    -8.6612     0.0000     2.0000 </r>
       <r>    -8.5749     0.0000     2.0000 </r>
       <r>    -8.4886     0.0000     2.0000 </r>
       <r>    -8.4023     0.0000     2.0000 </r>
       <r>    -8.3160     0.0000     2.0000 </r>
       <r>    -8.2297     0.0000     2.0000 </r>
       <r>    -8.1434     0.0000     2.0000 </r>
       <r>    -8.0571     0.0000     2.0000 </r>
       <r>    -7.9708     0.0000     2.0000 </r>
       <r>    -7.8845     0.0000     2.0000 </r>
       <r>    -7.7982     0.0000     2.0000 </r>
       <r>    -7.7119     0.0000     2.0000 </r>
       <r>    -7.6256     0.0000     2.0000 </r>
       <r>    -7.5393     0.0000     2.0000 </r>
       <r>    -7.4530     0.0000     2.0000 </r>
       <r>    -7.3667     0.0000     2.0000 </r>
       <r>    -7.2804     0.0000     2.0000 </r>
       <r>    -7.1941     0.0000     2.0000 </r>
       <r>    -7.1078     0.0002     2.0000 </r>
       <r>    -7.0215     1.1140     2.0962 </r>
       <r>    -6.9352     0.5076     2.1400 </r>
       <r>    -6.8488     1.0050     2.2267 </r>
       <r>    -6.7625     3.0980     2.4941 </r>
       <r>    -6.6762     2.4028     2.7014 </r>
       <r>    -6.5899     3.5809     3.0105 </r>
       <r>    -6.5036     3.0721     3.2756 </r>
       <r>    -6.4173     1.8977     3.4394 </r>
       <r>    -6.3310     3.5443     3.7453 </r>
       <r>    -6.2447     1.3950     3.8657 </r>
       <r>    -6.1584     2.0326     4.0411 </r>
       <r>    -6.0721     2.6390     4.2689 </r>
       <r>    -5.9858     2.8322     4.5133 </r>
       <r>    -5.8995     1.4107     4.6350 </r>
       <r>    -5.8132     4.0255     4.9825 </r>
       <r>    -5.7269     2.3913     5.1888 </r>
       <r>    -5.6406     4.7051     5.5949 </r>
       <r>    -5.5543     3.1187     5.8641 </r>
       <r>    -5.4680     3.8488     6.1962 </r>
       <r>    -5.3817     2.7248     6.4314 </r>
       <r>    -5.2954     4.9208     6.8561 </r>
       <r>    -5.2091     4.5063     7.2450 </r>
       <r>    -5.1228     3.3959     7.5381 </r>
       <r>    -5.0365     2.3032     7.7368 </r>
       <r>    -4.9502     2.0567     7.9143 </r>
       <r>    -4.8639     2.0228     8.0889 </r>
       <r>    -4.7776     0.5892     8.1398 </r>
       <r>    -4.6913     1.0953     8.2343 </r>
       <r>    -4.6049     1.0272     8.3229 </r>
       <r>    -4.5186     2.8608     8.5698 </r>
       <r>    -4.4323     2.2070     8.7603 </r>
       <r>    -4.3460     1.0599     8.8518 </r>
       <r>    -4.2597     1.1026     8.9469 </r>
       <r>    -4.1734     0.9233     9.0266 </r>
       <r>    -4.0871     2.8568     9.2732 </r>
       <r>    -4.0008     2.5713     9.4951 </r>
       <r>    -3.9145     1.7269     9.6441 </r>
       <r>    -3.8282     0.6784     9.7027 </r>
       <r>    -3.7419     1.8171     9.8595 </r>
       <r>    -3.6556     1.8044    10.0152 </r>
       <r>    -3.5693     1.5449    10.1485 </r>
       <r>    -3.4830     0.8300    10.2202 </r>
       <r>    -3.3967     1.2785    10.3305 </r>
       <r>    -3.3104     2.5116    10.5473 </r>
       <r>    -3.2241     1.5723    10.6830 </r>
       <r>    -3.1378     2.2877    10.8804 </r>
       <r>    -3.0515     3.2661    11.1623 </r>
       <r>    -2.9652     2.9611    11.4178 </r>
       <r>    -2.8789     1.1827    11.5199 </r>
       <r>    -2.7926     2.6458    11.7483 </r>
       <r>    -2.7063     2.2223    11.9400 </r>
       <r>    -2.6200     3.2469    12.2203 </r>
       <r>    -2.5337     3.2505    12.5008 </r>
       <r>    -2.4474     5.8002    13.0014 </r>
       <r>    -2.3610     2.1832    13.1898 </r>
       <r>    -2.2747     2.4593    13.4020 </r>
       <r>    -2.1884     2.4028    13.6094 </r>
       <r>    -2.1021     2.7829    13.8496 </r>
       <r>    -2.0158     1.6657    13.9933 </r>
       <r>    -1.9295     2.1480    14.1787 </r>
       <r>    -1.8432     5.5168    14.6548 </r>
       <r>    -1.7569     4.8308    15.0718 </r>
       <r>    -1.6706     1.1294    15.1692 </r>
       <r>    -1.5843     0.8976    15.2467 </r>
       <r>    -1.4980     1.6885    15.3924 </r>
       <r>    -1.4117     2.1881    15.5813 </r>
       <r>    -1.3254     2.0660    15.7596 </r>
       <r>    -1.2391     4.5633    16.1534 </r>
       <r>    -1.1528     6.4444    16.7096 </r>
       <r>    -1.0665     3.5541    17.0163 </r>
       <r>    -0.9802     2.9462    17.2706 </r>
       <r>    -0.8939     5.7170    17.7640 </r>
       <r>    -0.8076     4.9404    18.1903 </r>
       <r>    -0.7213     4.1838    18.5514 </r>
       <r>    -0.6350     5.1947    18.9997 </r>
       <r>    -0.5487     3.5215    19.3037 </r>
       <r>    -0.4624     3.2486    19.5840 </r>
       <r>    -0.3761     3.2706    19.8663 </r>
       <r>    -0.2898     3.1604    20.1390 </r>
       <r>    -0.2034     5.8803    20.6465 </r>
       <r>    -0.1171     4.7218    21.0540 </r>
       <r>    -0.0308     2.4828    21.2683 </r>
       <r>     0.0555     1.6211    21.4082 </r>
       <r>     0.1418     2.7946    21.6494 </r>
       <r>     0.2281     1.3127    21.7627 </r>
       <r>     0.3144     2.3840    21.9684 </r>
       <r>     0.4007     4.8800    22.3896 </r>
       <r>     0.4870     1.5540    22.5237 </r>
       <r>     0.5733     2.9973    22.7824 </r>
       <r>     0.6596     2.2103    22.9732 </r>
       <r>     0.7459     4.6416    23.3738 </r>
       <r>     0.8322     2.6309    23.6008 </r>
       <r>     0.9185     1.5204    23.7320 </r>
       <r>     1.0048     2.4663    23.9449 </r>
       <r>     1.0911     1.7369    24.0948 </r>
       <r>     1.1774     3.4920    24.3962 </r>
       <r>     1.2637     5.9974    24.9137 </r>
       <r>     1.3500     1.4293    25.0371 </r>
       <r>     1.4363     2.8416    25.2823 </r>
       <r>     1.5226     3.8203    25.6121 </r>
       <r>     1.6089     1.1440    25.7108 </r>
       <r>     1.6952     5.8016    26.2115 </r>
       <r>     1.7815     3.1080    26.4797 </r>
       <r>     1.8678     3.6792    26.7972 </r>
       <r>     1.9541     4.5930    27.1936 </r>
       <r>     2.0405     5.9947    27.7110 </r>
       <r>     2.1268     5.6792    28.2011 </r>
       <r>     2.2131     9.4211    29.0142 </r>
       <r>     2.2994     5.9427    29.5271 </r>
       <r>     2.3857     4.3121    29.8993 </r>
       <r>     2.4720     4.6130    30.2974 </r>
       <r>     2.5583     6.0110    30.8162 </r>
       <r>     2.6446     3.4782    31.1163 </r>
       <r>     2.7309     3.6967    31.4354 </r>
       <r>     2.8172     5.3203    31.8945 </r>
       <r>     2.9035     6.4285    32.4493 </r>
       <r>     2.9898     4.4315    32.8318 </r>
       <r>     3.0761     7.3412    33.4654 </r>
       <r>     3.1624     4.8784    33.8864 </r>
       <r>     3.2487     6.6664    34.4617 </r>
       <r>     3.3350     8.8083    35.2219 </r>
       <r>     3.4213     5.9894    35.7388 </r>
       <r>     3.5076     5.2503    36.1920 </r>
       <r>     3.5939     8.0859    36.8898 </r>
       <r>     3.6802     5.5859    37.3719 </r>
       <r>     3.7665     7.1367    37.9878 </r>
       <r>     3.8528     4.8673    38.4079 </r>
       <r>     3.9391     5.0916    38.8473 </r>
       <r>     4.0254     2.7802    39.0872 </r>
       <r>     4.1117     2.7361    39.3234 </r>
       <r>     4.1980     2.9031    39.5739 </r>
       <r>     4.2844     2.3764    39.7790 </r>
       <r>     4.3707     6.9843    40.3818 </r>
       <r>     4.4570     6.1457    40.9122 </r>
       <r>     4.5433     5.1476    41.3564 </r>
       <r>     4.6296     4.6440    41.7572 </r>
       <r>     4.7159     8.1236    42.4583 </r>
       <r>     4.8022     8.4066    43.1838 </r>
       <r>     4.8885     3.5789    43.4927 </r>
       <r>     4.9748     5.1760    43.9394 </r>
       <r>     5.0611     5.0203    44.3727 </r>
       <r>     5.1474     4.7063    44.7789 </r>
       <r>     5.2337     3.6726    45.0958 </r>
       <r>     5.3200     3.1399    45.3668 </r>
       <r>     5.4063     2.6872    45.5987 </r>
       <r>     5.4926     1.6669    45.7426 </r>
       <r>     5.5789     1.0599    45.8341 </r>
       <r>     5.6652     2.5543    46.0545 </r>
       <r>     5.7515     0.9855    46.1396 </r>
       <r>     5.8378     0.0043    46.1399 </r>
       <r>     5.9241     0.0579    46.1449 </r>
       <r>     6.0104     2.3576    46.3484 </r>
       <r>     6.0967     0.2456    46.3696 </r>
       <r>     6.1830     1.8799    46.5318 </r>
       <r>     6.2693     0.5087    46.5757 </r>
       <r>     6.3556     0.6656    46.6332 </r>
       <r>     6.4419     1.4264    46.7563 </r>
       <r>     6.5283     1.9918    46.9282 </r>
       <r>     6.6146     2.1543    47.1141 </r>
       <r>     6.7009     1.8375    47.2727 </r>
       <r>     6.7872     1.5853    47.4095 </r>
       <r>     6.8735     2.3378    47.6113 </r>
       <r>     6.9598     1.9353    47.7783 </r>
       <r>     7.0461     0.8599    47.8525 </r>
       <r>     7.1324     0.0199    47.8542 </r>
       <r>     7.2187     0.0000    47.8542 </r>
       <r>     7.3050     0.0000    47.8542 </r>
       <r>     7.3913     0.0765    47.8608 </r>
       <r>     7.4776     0.5430    47.9077 </r>
       <r>     7.5639     0.1912    47.9242 </r>
       <r>     7.6502     0.0000    47.9242 </r>
       <r>     7.7365     0.0002    47.9242 </r>
       <r>     7.8228     0.4070    47.9593 </r>
       <r>     7.9091     0.5814    48.0095 </r>
       <r>     7.9954     1.4521    48.1348 </r>
       <r>     8.0817     0.4925    48.1773 </r>
       <r>     8.1680     3.1034    48.4452 </r>
       <r>     8.2543     1.6553    48.5880 </r>
       <r>     8.3406     2.4117    48.7962 </r>
       <r>     8.4269     4.5469    49.1886 </r>
       <r>     8.5132     3.1922    49.4641 </r>
       <r>     8.5995     5.2135    49.9140 </r>
       <r>     8.6859     3.6550    50.2295 </r>
       <r>     8.7722     2.4951    50.4448 </r>
       <r>     8.8585     5.2091    50.8944 </r>
       <r>     8.9448     4.8000    51.3086 </r>
       <r>     9.0311     4.4825    51.6955 </r>
       <r>     9.1174     4.2318    52.0607 </r>
       <r>     9.2037     6.3428    52.6081 </r>
       <r>     9.2900     6.0697    53.1320 </r>
       <r>     9.3763     5.2667    53.5865 </r>
       <r>     9.4626     4.6121    53.9846 </r>
       <r>     9.5489     5.9477    54.4979 </r>
       <r>     9.6352     5.5842    54.9798 </r>
       <r>     9.7215     5.0324    55.4141 </r>
       <r>     9.8078     5.7343    55.9090 </r>
       <r>     9.8941     5.0588    56.3456 </r>
       <r>     9.9804     3.3089    56.6312 </r>
       <r>    10.0667     4.9222    57.0560 </r>
       <r>    10.1530     4.0278    57.4036 </r>
       <r>    10.2393     5.4683    57.8755 </r>
       <r>    10.3256     2.6308    58.1026 </r>
       <r>    10.4119     3.1908    58.3780 </r>
       <r>    10.4982     2.7388    58.6143 </r>
       <r>    10.5845     1.2122    58.7189 </r>
       <r>    10.6708     3.5229    59.0230 </r>
       <r>    10.7571     4.7348    59.4316 </r>
       <r>    10.8434     5.1267    59.8741 </r>
       <r>    10.9298     3.9630    60.2161 </r>
       <r>    11.0161     0.9705    60.2999 </r>
       <r>    11.1024     3.3628    60.5901 </r>
       <r>    11.1887     3.5126    60.8932 </r>
       <r>    11.2750     2.7747    61.1327 </r>
       <r>    11.3613     4.9742    61.5620 </r>
       <r>    11.4476     4.0280    61.9096 </r>
       <r>    11.5339     5.1402    62.3532 </r>
       <r>    11.6202     3.7103    62.6735 </r>
       <r>    11.7065     2.5273    62.8916 </r>
       <r>    11.7928     2.3155    63.0914 </r>
       <r>    11.8791     2.7434    63.3282 </r>
       <r>    11.9654     6.4768    63.8872 </r>
       <r>    12.0517     3.7227    64.2084 </r>
       <r>    12.1380     4.1576    64.5673 </r>
       <r>    12.2243     4.0802    64.9194 </r>
       <r>    12.3106     5.3282    65.3792 </r>
       <r>    12.3969     3.7454    65.7025 </r>
       <r>    12.4832     6.5715    66.2696 </r>
       <r>    12.5695     4.1199    66.6252 </r>
       <r>    12.6558     3.5428    66.9309 </r>
       <r>    12.7421     6.7794    67.5160 </r>
       <r>    12.8284     4.3026    67.8874 </r>
       <r>    12.9147     5.6599    68.3758 </r>
       <r>    13.0010     6.1804    68.9092 </r>
       <r>    13.0873     7.5826    69.5636 </r>
       <r>    13.1737     5.4797    70.0366 </r>
       <r>    13.2600     2.2338    70.2293 </r>
       <r>    13.3463     6.1467    70.7598 </r>
       <r>    13.4326     3.7266    71.0814 </r>
       <r>    13.5189     2.3249    71.2821 </r>
       <r>    13.6052     4.0433    71.6310 </r>
       <r>    13.6915     2.1445    71.8161 </r>
       <r>    13.7778     1.7305    71.9655 </r>
       <r>    13.8641     0.4000    72.0000 </r>
       <r>    13.9504     0.0000    72.0000 </r>
       <r>    14.0367     0.0000    72.0000 </r>
       <r>    14.1230     0.0000    72.0000 </r>
       <r>    14.2093     0.0000    72.0000 </r>
       <r>    14.2956     0.0000    72.0000 </r>
       <r>    14.3819     0.0000    72.0000 </r>
       <r>    14.4682     0.0000    72.0000 </r>
       <r>    14.5545     0.0000    72.0000 </r>
       <r>    14.6408     0.0000    72.0000 </r>
       <r>    14.7271     0.0000    72.0000 </r>
       <r>    14.8134     0.0000    72.0000 </r>
       <r>    14.8997     0.0000    72.0000 </r>
       <r>    14.9860     0.0000    72.0000 </r>
      </set>
     </set>
    </array>
   </total>
  </dos>
 </calculation>
 <structure name="finalpos" >
  <crystal>
   <varray name="basis" >
    <v>       4.52688000      -3.10946000       0.00000000 </v>
    <v>       4.52688000       3.10946000       0.00000000 </v>
    <v>       2.39102800       0.00000000       4.94412400 </v>
   </varray>
   <i name="volume">    139.18848468 </i>
   <varray name="rec_basis" >
    <v>       0.11045135      -0.16079962      -0.05341538 </v>
    <v>       0.11045135       0.16079962      -0.05341538 </v>
    <v>       0.00000000       0.00000000       0.20226030 </v>
   </varray>
  </crystal>
  <varray name="positions" >
   <v>       0.27474300       0.82271900       0.82271900 </v>
   <v>       0.82271900       0.82271900       0.27474300 </v>
   <v>       0.82271900       0.27474300       0.82271900 </v>
   <v>       0.17728100       0.72525700       0.17728100 </v>
   <v>       0.17728100       0.17728100       0.72525700 </v>
   <v>       0.72525700       0.17728100       0.17728100 </v>
   <v>       0.67700400       0.98584400       0.98584300 </v>
   <v>       0.98584400       0.98584400       0.67700400 </v>
   <v>       0.98584400       0.67700400       0.98584300 </v>
   <v>       0.01415600       0.32299600       0.01415600 </v>
   <v>       0.01415700       0.01415600       0.32299600 </v>
   <v>       0.32299600       0.01415600       0.01415600 </v>
   <v>       0.32567800       0.32567800       0.32567800 </v>
   <v>       0.67432200       0.67432200       0.67432200 </v>
   <v>       0.50000000       0.50000000       0.50000000 </v>
  </varray>
 </structure>
</modeling>
