<?xml version="1.0" encoding="ISO-8859-1"?>
<modeling>
 <generator>
  <i name="program" type="string">vasp </i>
  <i name="version" type="string">6.2.0  </i>
  <i name="subversion" type="string">18Jan21 (build Jan 05 2022 15:41:44) complex                          parallel </i>
  <i name="platform" type="string">LinuxIFC </i>
  <i name="date" type="string">2025 05 07 </i>
  <i name="time" type="string">21:12:05 </i>
 </generator>
 <incar>
  <i type="string" name="SYSTEM">routine with relax: pwdword</i>
  <i type="string" name="PREC">Acc</i>
  <i type="int" name="IALGO">    38</i>
  <i type="string" name="ALGO">A</i>
  <i type="logical" name="ADDGRID"> T  </i>
  <i type="int" name="ICHARG">     2</i>
  <i type="int" name="NELM">   100</i>
  <i type="int" name="NELMIN">     6</i>
  <i name="EDIFF">      0.00000000</i>
  <i type="int" name="NSW">     0</i>
  <i type="int" name="ISIF">    -1</i>
  <i name="ENCUT">    600.00000000</i>
  <i type="logical" name="LREAL"> F  </i>
  <i type="int" name="ISMEAR">     0</i>
  <i name="SIGMA">      0.02000000</i>
  <i type="logical" name="LASPH"> T  </i>
  <i type="string" name="METAGGA">R2SCAN</i>
  <i type="logical" name="LMIXTAU"> F  </i>
 </incar>
 <primitive_cell>
  <structure name="primitive_cell" >
   <crystal>
    <varray name="basis" >
     <v>       3.71916279      -2.64583716       0.00000000 </v>
     <v>       1.88226617       2.64583716       3.20764404 </v>
     <v>      -1.88226617      -2.64583716       3.28699596 </v>
    </varray>
    <i name="volume">     96.25361002 </i>
    <varray name="rec_basis" >
     <v>       0.17852587      -0.12700450       0.00000000 </v>
     <v>       0.09035356       0.12700690       0.15397312 </v>
     <v>      -0.08817232      -0.12394081       0.15397312 </v>
    </varray>
   </crystal>
   <varray name="positions" >
    <v>       0.50000000       0.50000000       0.00000000 </v>
    <v>       1.00000000       0.00000000       0.50000000 </v>
    <v>       0.50000000       0.50000000       0.50000000 </v>
    <v>       0.00000000       0.00000000       0.00000000 </v>
   </varray>
  </structure>
  <varray name="primitive_index" >
   <v type="int" >        1 </v>
   <v type="int" >        3 </v>
   <v type="int" >        4 </v>
   <v type="int" >        7 </v>
  </varray>
 </primitive_cell>
 <kpoints>
  <generation param="Gamma">
   <v type="int" name="divisions">       7        7        8 </v>
   <v name="usershift">      0.00000000       0.00000000       0.00000000 </v>
   <v name="genvec1">      0.14285714       0.00000000       0.00000000 </v>
   <v name="genvec2">      0.00000000       0.14285714       0.00000000 </v>
   <v name="genvec3">      0.00000000       0.00000000       0.12500000 </v>
   <v name="shift">      0.00000000       0.00000000       0.00000000 </v>
  </generation>
  <varray name="kpointlist" >
   <v>       0.00000000       0.00000000       0.00000000 </v>
   <v>       0.14285714       0.00000000       0.00000000 </v>
   <v>       0.28571429      -0.00000000       0.00000000 </v>
   <v>       0.42857143      -0.00000000       0.00000000 </v>
   <v>       0.14285714       0.14285714       0.00000000 </v>
   <v>       0.28571429       0.14285714       0.00000000 </v>
   <v>       0.42857143       0.14285714       0.00000000 </v>
   <v>      -0.42857143       0.14285714       0.00000000 </v>
   <v>      -0.28571429       0.14285714       0.00000000 </v>
   <v>      -0.14285714       0.14285714       0.00000000 </v>
   <v>       0.28571429       0.28571429       0.00000000 </v>
   <v>       0.42857143       0.28571429       0.00000000 </v>
   <v>      -0.42857143       0.28571429       0.00000000 </v>
   <v>      -0.28571429       0.28571429       0.00000000 </v>
   <v>       0.42857143       0.42857143       0.00000000 </v>
   <v>      -0.42857143       0.42857143       0.00000000 </v>
   <v>       0.00000000      -0.00000000       0.12500000 </v>
   <v>       0.14285714      -0.00000000       0.12500000 </v>
   <v>       0.28571429      -0.00000000       0.12500000 </v>
   <v>       0.42857143      -0.00000000       0.12500000 </v>
   <v>      -0.42857143      -0.00000000       0.12500000 </v>
   <v>      -0.28571429       0.00000000       0.12500000 </v>
   <v>      -0.14285714      -0.00000000       0.12500000 </v>
   <v>       0.14285714       0.14285714       0.12500000 </v>
   <v>       0.28571429       0.14285714       0.12500000 </v>
   <v>       0.42857143       0.14285714       0.12500000 </v>
   <v>      -0.42857143       0.14285714       0.12500000 </v>
   <v>      -0.28571429       0.14285714       0.12500000 </v>
   <v>      -0.14285714       0.14285714       0.12500000 </v>
   <v>       0.28571429       0.28571429       0.12500000 </v>
   <v>       0.42857143       0.28571429       0.12500000 </v>
   <v>      -0.42857143       0.28571429       0.12500000 </v>
   <v>      -0.28571429       0.28571429       0.12500000 </v>
   <v>      -0.14285714       0.28571429       0.12500000 </v>
   <v>       0.42857143       0.42857143       0.12500000 </v>
   <v>      -0.42857143       0.42857143       0.12500000 </v>
   <v>      -0.28571429       0.42857143       0.12500000 </v>
   <v>      -0.14285714       0.42857143       0.12500000 </v>
   <v>      -0.42857143      -0.42857143       0.12500000 </v>
   <v>      -0.28571429      -0.42857143       0.12500000 </v>
   <v>      -0.14285714      -0.42857143       0.12500000 </v>
   <v>      -0.28571429      -0.28571429       0.12500000 </v>
   <v>      -0.14285714      -0.28571429       0.12500000 </v>
   <v>      -0.14285714      -0.14285714       0.12500000 </v>
   <v>       0.00000000      -0.00000000       0.25000000 </v>
   <v>       0.14285714      -0.00000000       0.25000000 </v>
   <v>       0.28571429      -0.00000000       0.25000000 </v>
   <v>       0.42857143      -0.00000000       0.25000000 </v>
   <v>      -0.42857143       0.00000000       0.25000000 </v>
   <v>      -0.28571429      -0.00000000       0.25000000 </v>
   <v>      -0.14285714      -0.00000000       0.25000000 </v>
   <v>       0.14285714       0.14285714       0.25000000 </v>
   <v>       0.28571429       0.14285714       0.25000000 </v>
   <v>       0.42857143       0.14285714       0.25000000 </v>
   <v>      -0.42857143       0.14285714       0.25000000 </v>
   <v>      -0.28571429       0.14285714       0.25000000 </v>
   <v>      -0.14285714       0.14285714       0.25000000 </v>
   <v>       0.28571429       0.28571429       0.25000000 </v>
   <v>       0.42857143       0.28571429       0.25000000 </v>
   <v>      -0.42857143       0.28571429       0.25000000 </v>
   <v>      -0.28571429       0.28571429       0.25000000 </v>
   <v>      -0.14285714       0.28571429       0.25000000 </v>
   <v>       0.42857143       0.42857143       0.25000000 </v>
   <v>      -0.42857143       0.42857143       0.25000000 </v>
   <v>      -0.28571429       0.42857143       0.25000000 </v>
   <v>      -0.14285714       0.42857143       0.25000000 </v>
   <v>      -0.42857143      -0.42857143       0.25000000 </v>
   <v>      -0.28571429      -0.42857143       0.25000000 </v>
   <v>      -0.14285714      -0.42857143       0.25000000 </v>
   <v>      -0.28571429      -0.28571429       0.25000000 </v>
   <v>      -0.14285714      -0.28571429       0.25000000 </v>
   <v>      -0.14285714      -0.14285714       0.25000000 </v>
   <v>      -0.00000000      -0.00000000       0.37500000 </v>
   <v>       0.14285714      -0.00000000       0.37500000 </v>
   <v>       0.28571429      -0.00000000       0.37500000 </v>
   <v>       0.42857143      -0.00000000       0.37500000 </v>
   <v>      -0.42857143      -0.00000000       0.37500000 </v>
   <v>      -0.28571429      -0.00000000       0.37500000 </v>
   <v>      -0.14285714      -0.00000000       0.37500000 </v>
   <v>       0.14285714       0.14285714       0.37500000 </v>
   <v>       0.28571429       0.14285714       0.37500000 </v>
   <v>       0.42857143       0.14285714       0.37500000 </v>
   <v>      -0.42857143       0.14285714       0.37500000 </v>
   <v>      -0.28571429       0.14285714       0.37500000 </v>
   <v>      -0.14285714       0.14285714       0.37500000 </v>
   <v>       0.28571429       0.28571429       0.37500000 </v>
   <v>       0.42857143       0.28571429       0.37500000 </v>
   <v>      -0.42857143       0.28571429       0.37500000 </v>
   <v>      -0.28571429       0.28571429       0.37500000 </v>
   <v>      -0.14285714       0.28571429       0.37500000 </v>
   <v>       0.42857143       0.42857143       0.37500000 </v>
   <v>      -0.42857143       0.42857143       0.37500000 </v>
   <v>      -0.28571429       0.42857143       0.37500000 </v>
   <v>      -0.14285714       0.42857143       0.37500000 </v>
   <v>      -0.42857143      -0.42857143       0.37500000 </v>
   <v>      -0.28571429      -0.42857143       0.37500000 </v>
   <v>      -0.14285714      -0.42857143       0.37500000 </v>
   <v>      -0.28571429      -0.28571429       0.37500000 </v>
   <v>      -0.14285714      -0.28571429       0.37500000 </v>
   <v>      -0.14285714      -0.14285714       0.37500000 </v>
   <v>       0.00000000      -0.00000000       0.50000000 </v>
   <v>       0.14285714      -0.00000000       0.50000000 </v>
   <v>       0.28571429      -0.00000000       0.50000000 </v>
   <v>       0.42857143       0.00000000       0.50000000 </v>
   <v>       0.14285714       0.14285714       0.50000000 </v>
   <v>       0.28571429       0.14285714       0.50000000 </v>
   <v>       0.42857143       0.14285714       0.50000000 </v>
   <v>      -0.42857143       0.14285714       0.50000000 </v>
   <v>      -0.28571429       0.14285714       0.50000000 </v>
   <v>      -0.14285714       0.14285714       0.50000000 </v>
   <v>       0.28571429       0.28571429       0.50000000 </v>
   <v>       0.42857143       0.28571429       0.50000000 </v>
   <v>      -0.42857143       0.28571429       0.50000000 </v>
   <v>      -0.28571429       0.28571429       0.50000000 </v>
   <v>       0.42857143       0.42857143       0.50000000 </v>
   <v>      -0.42857143       0.42857143       0.50000000 </v>
  </varray>
  <varray name="weights" >
   <v>       0.00255102 </v>
   <v>       0.01020408 </v>
   <v>       0.01020408 </v>
   <v>       0.01020408 </v>
   <v>       0.00510204 </v>
   <v>       0.01020408 </v>
   <v>       0.01020408 </v>
   <v>       0.01020408 </v>
   <v>       0.01020408 </v>
   <v>       0.00510204 </v>
   <v>       0.00510204 </v>
   <v>       0.01020408 </v>
   <v>       0.01020408 </v>
   <v>       0.00510204 </v>
   <v>       0.00510204 </v>
   <v>       0.00510204 </v>
   <v>       0.00510204 </v>
   <v>       0.01020408 </v>
   <v>       0.01020408 </v>
   <v>       0.01020408 </v>
   <v>       0.01020408 </v>
   <v>       0.01020408 </v>
   <v>       0.01020408 </v>
   <v>       0.00510204 </v>
   <v>       0.01020408 </v>
   <v>       0.01020408 </v>
   <v>       0.01020408 </v>
   <v>       0.01020408 </v>
   <v>       0.01020408 </v>
   <v>       0.00510204 </v>
   <v>       0.01020408 </v>
   <v>       0.01020408 </v>
   <v>       0.01020408 </v>
   <v>       0.01020408 </v>
   <v>       0.00510204 </v>
   <v>       0.01020408 </v>
   <v>       0.01020408 </v>
   <v>       0.01020408 </v>
   <v>       0.00510204 </v>
   <v>       0.01020408 </v>
   <v>       0.01020408 </v>
   <v>       0.00510204 </v>
   <v>       0.01020408 </v>
   <v>       0.00510204 </v>
   <v>       0.00510204 </v>
   <v>       0.01020408 </v>
   <v>       0.01020408 </v>
   <v>       0.01020408 </v>
   <v>       0.01020408 </v>
   <v>       0.01020408 </v>
   <v>       0.01020408 </v>
   <v>       0.00510204 </v>
   <v>       0.01020408 </v>
   <v>       0.01020408 </v>
   <v>       0.01020408 </v>
   <v>       0.01020408 </v>
   <v>       0.01020408 </v>
   <v>       0.00510204 </v>
   <v>       0.01020408 </v>
   <v>       0.01020408 </v>
   <v>       0.01020408 </v>
   <v>       0.01020408 </v>
   <v>       0.00510204 </v>
   <v>       0.01020408 </v>
   <v>       0.01020408 </v>
   <v>       0.01020408 </v>
   <v>       0.00510204 </v>
   <v>       0.01020408 </v>
   <v>       0.01020408 </v>
   <v>       0.00510204 </v>
   <v>       0.01020408 </v>
   <v>       0.00510204 </v>
   <v>       0.00510204 </v>
   <v>       0.01020408 </v>
   <v>       0.01020408 </v>
   <v>       0.01020408 </v>
   <v>       0.01020408 </v>
   <v>       0.01020408 </v>
   <v>       0.01020408 </v>
   <v>       0.00510204 </v>
   <v>       0.01020408 </v>
   <v>       0.01020408 </v>
   <v>       0.01020408 </v>
   <v>       0.01020408 </v>
   <v>       0.01020408 </v>
   <v>       0.00510204 </v>
   <v>       0.01020408 </v>
   <v>       0.01020408 </v>
   <v>       0.01020408 </v>
   <v>       0.01020408 </v>
   <v>       0.00510204 </v>
   <v>       0.01020408 </v>
   <v>       0.01020408 </v>
   <v>       0.01020408 </v>
   <v>       0.00510204 </v>
   <v>       0.01020408 </v>
   <v>       0.01020408 </v>
   <v>       0.00510204 </v>
   <v>       0.01020408 </v>
   <v>       0.00510204 </v>
   <v>       0.00255102 </v>
   <v>       0.01020408 </v>
   <v>       0.01020408 </v>
   <v>       0.01020408 </v>
   <v>       0.00510204 </v>
   <v>       0.01020408 </v>
   <v>       0.01020408 </v>
   <v>       0.01020408 </v>
   <v>       0.01020408 </v>
   <v>       0.00510204 </v>
   <v>       0.00510204 </v>
   <v>       0.01020408 </v>
   <v>       0.01020408 </v>
   <v>       0.00510204 </v>
   <v>       0.00510204 </v>
   <v>       0.00510204 </v>
  </varray>
 </kpoints>
 <parameters>
  <separator name="general" >
   <i type="string" name="SYSTEM">routine with relax: pwdword</i>
   <i type="logical" name="LCOMPAT"> F  </i>
  </separator>
  <separator name="electronic" >
   <i type="string" name="PREC">acc</i>
   <i name="ENMAX">    600.00000000</i>
   <i name="ENAUG">    535.51400000</i>
   <i name="EDIFF">      0.00000000</i>
   <i type="int" name="IALGO">    58</i>
   <i type="int" name="IWAVPR">    10</i>
   <i type="int" name="NBANDS">    42</i>
   <i type="int" name="NBANDSLOW">    -1</i>
   <i type="int" name="NBANDSHIGH">    -1</i>
   <i name="NELECT">     70.00000000</i>
   <i type="int" name="TURBO">     0</i>
   <i type="int" name="IRESTART">     0</i>
   <i type="int" name="NREBOOT">     0</i>
   <i type="int" name="NMIN">     0</i>
   <i name="EREF">      0.00000000</i>
   <separator name="electronic smearing" >
    <i type="int" name="ISMEAR">     0</i>
    <i name="SIGMA">      0.02000000</i>
    <i name="KSPACING">      0.50000000</i>
    <i type="logical" name="KGAMMA"> T  </i>
    <i type="logical" name="KBLOWUP"> F  </i>
   </separator>
   <separator name="electronic projectors" >
    <i type="logical" name="LREAL"> F  </i>
    <v name="ROPT">      0.00000000      0.00000000      0.00000000</v>
    <i type="int" name="LMAXPAW">  -100</i>
    <i type="int" name="LMAXMIX">     2</i>
    <i type="logical" name="NLSPLINE"> F  </i>
   </separator>
   <separator name="electronic startup" >
    <i type="int" name="ISTART">     0</i>
    <i type="int" name="ICHARG">     2</i>
    <i type="int" name="INIWAV">     1</i>
   </separator>
   <separator name="electronic spin" >
    <i type="int" name="ISPIN">     1</i>
    <i type="logical" name="LNONCOLLINEAR"> F  </i>
    <v name="MAGMOM">      1.00000000      1.00000000      1.00000000      1.00000000      1.00000000      1.00000000      1.00000000      1.00000000</v>
    <i name="NUPDOWN">     -1.00000000</i>
    <i type="logical" name="LSORBIT"> F  </i>
    <v name="SAXIS">      0.00000000      0.00000000      1.00000000</v>
    <i type="logical" name="LSPIRAL"> F  </i>
    <v name="QSPIRAL">      0.00000000      0.00000000      0.00000000</v>
    <i type="logical" name="LZEROZ"> F  </i>
   </separator>
   <separator name="electronic exchange-correlation" >
    <i type="logical" name="LASPH"> T  </i>
    <i type="logical" name="LMETAGGA"> F  </i>
   </separator>
   <separator name="electronic convergence" >
    <i type="int" name="NELM">   100</i>
    <i type="int" name="NELMDL">    -5</i>
    <i type="int" name="NELMIN">     6</i>
    <i name="ENINI">    600.00000000</i>
    <separator name="electronic convergence detail" >
     <i type="logical" name="LDIAG"> T  </i>
     <i type="logical" name="LSUBROT"> F  </i>
     <i name="WEIMIN">      0.00000000</i>
     <i name="EBREAK">      0.00000000</i>
     <i name="DEPER">      0.30000000</i>
     <i type="int" name="NRMM">     4</i>
     <i name="TIME">      0.40000000</i>
    </separator>
   </separator>
   <separator name="electronic mixer" >
    <i name="AMIX">      0.40000000</i>
    <i name="BMIX">      1.00000000</i>
    <i name="AMIN">      0.10000000</i>
    <i name="AMIX_MAG">      1.60000000</i>
    <i name="BMIX_MAG">      1.00000000</i>
    <separator name="electronic mixer details" >
     <i type="int" name="IMIX">     4</i>
     <i type="logical" name="MIXFIRST"> F  </i>
     <i type="int" name="MAXMIX">   -45</i>
     <i name="WC">    100.00000000</i>
     <i type="int" name="INIMIX">     1</i>
     <i type="int" name="MIXPRE">     1</i>
     <i type="int" name="MREMOVE">     5</i>
    </separator>
   </separator>
   <separator name="electronic dipolcorrection" >
    <i type="logical" name="LDIPOL"> F  </i>
    <i type="logical" name="LMONO"> F  </i>
    <i type="int" name="IDIPOL">     0</i>
    <i name="EPSILON">      1.00000000</i>
    <v name="DIPOL">   -100.00000000   -100.00000000   -100.00000000</v>
    <i name="EFIELD">      0.00000000</i>
   </separator>
  </separator>
  <separator name="grids" >
   <i type="int" name="NGX">    54</i>
   <i type="int" name="NGY">    54</i>
   <i type="int" name="NGZ">    54</i>
   <i type="int" name="NGXF">   108</i>
   <i type="int" name="NGYF">   108</i>
   <i type="int" name="NGZF">   108</i>
   <i type="logical" name="ADDGRID"> T  </i>
  </separator>
  <separator name="ionic" >
   <i type="int" name="NSW">     0</i>
   <i type="int" name="IBRION">    -1</i>
   <i type="int" name="MDALGO">     0</i>
   <i type="int" name="ISIF">    -1</i>
   <i name="PSTRESS">      0.00000000</i>
   <i name="EDIFFG">      0.00000001</i>
   <i type="int" name="NFREE">     0</i>
   <i name="POTIM">      0.50000000</i>
   <i name="SMASS">     -3.00000000</i>
   <i name="SCALEE">      1.00000000</i>
  </separator>
  <separator name="ionic md" >
   <i name="TEBEG">      0.00010000</i>
   <i name="TEEND">      0.00010000</i>
   <i type="int" name="NBLOCK">     1</i>
   <i type="int" name="KBLOCK">     1</i>
   <i type="int" name="NPACO">   256</i>
   <i name="APACO">     16.00000000</i>
  </separator>
  <separator name="symmetry" >
   <i type="int" name="ISYM">     2</i>
   <i name="SYMPREC">      0.00001000</i>
  </separator>
  <separator name="dos" >
   <i type="int" name="LORBIT">     0</i>
   <v name="RWIGS">     -1.00000000     -1.00000000     -1.00000000</v>
   <i type="int" name="NEDOS">   301</i>
   <i name="EMIN">     10.00000000</i>
   <i name="EMAX">    -10.00000000</i>
   <i name="EFERMI">      0.00000000</i>
  </separator>
  <separator name="writing" >
   <i type="int" name="NWRITE">     2</i>
   <i type="logical" name="LWAVE"> T  </i>
   <i type="logical" name="LDOWNSAMPLE"> F  </i>
   <i type="logical" name="LCHARG"> T  </i>
   <i type="logical" name="LPARD"> F  </i>
   <i type="logical" name="LVTOT"> F  </i>
   <i type="logical" name="LVHAR"> F  </i>
   <i type="logical" name="LELF"> F  </i>
   <i type="logical" name="LOPTICS"> F  </i>
   <v name="STM">      0.00000000      0.00000000      0.00000000      0.00000000      0.00000000      0.00000000      0.00000000</v>
  </separator>
  <separator name="performance" >
   <i type="int" name="NPAR">     6</i>
   <i type="int" name="NSIM">     4</i>
   <i type="int" name="NBLK">    -1</i>
   <i type="logical" name="LPLANE"> T  </i>
   <i type="logical" name="LSCALAPACK"> T  </i>
   <i type="logical" name="LSCAAWARE"> F  </i>
   <i type="logical" name="LSCALU"> F  </i>
   <i type="logical" name="LASYNC"> F  </i>
   <i type="logical" name="LORBITALREAL"> F  </i>
  </separator>
  <separator name="miscellaneous" >
   <i type="int" name="IDIOT">     3</i>
   <i type="int" name="PHON_NSTRUCT">    -1</i>
   <i type="logical" name="LMUSIC"> F  </i>
   <v name="POMASS">     10.81100000     95.94000000     28.08500000</v>
   <v name="DARWINR">      0.00000000      0.00000000      0.00000000</v>
   <v name="DARWINV">      1.00000000      1.00000000      1.00000000</v>
   <i type="logical" name="LCORR"> T  </i>
  </separator>
  <i type="logical" name="GGA_COMPAT"> T  </i>
  <i type="logical" name="LBERRY"> F  </i>
  <i type="int" name="ICORELEVEL">     0</i>
  <i type="logical" name="LDAU"> F  </i>
  <i type="int" name="I_CONSTRAINED_M">     0</i>
  <separator name="electronic exchange-correlation" >
   <i type="string" name="GGA">--</i>
   <i type="int" name="VOSKOWN">     0</i>
   <i type="logical" name="LHFCALC"> F  </i>
   <i type="string" name="PRECFOCK"></i>
   <i type="logical" name="LSYMGRAD"> F  </i>
   <i type="logical" name="LHFONE"> F  </i>
   <i type="logical" name="LRHFCALC"> F  </i>
   <i type="logical" name="LTHOMAS"> F  </i>
   <i type="logical" name="LMODELHF"> F  </i>
   <i type="logical" name="LFOCKACE"> F  </i>
   <i name="ENCUT4O">     -1.00000000</i>
   <i type="int" name="EXXOEP">     0</i>
   <i type="int" name="FOURORBIT">     0</i>
   <i name="AEXX">      0.00000000</i>
   <i name="HFALPHA">      0.00000000</i>
   <i name="MCALPHA">      0.00000000</i>
   <i name="ALDAX">      1.00000000</i>
   <i name="AGGAX">      1.00000000</i>
   <i name="ALDAC">      1.00000000</i>
   <i name="AGGAC">      1.00000000</i>
   <i type="int" name="NKREDX">     1</i>
   <i type="int" name="NKREDY">     1</i>
   <i type="int" name="NKREDZ">     1</i>
   <i type="logical" name="SHIFTRED"> F  </i>
   <i type="logical" name="ODDONLY"> F  </i>
   <i type="logical" name="EVENONLY"> F  </i>
   <i type="int" name="LMAXFOCK">     0</i>
   <i type="int" name="NMAXFOCKAE">     0</i>
   <i type="logical" name="LFOCKAEDFT"> F  </i>
   <i name="HFSCREEN">      0.00000000</i>
   <i name="HFSCREENC">      0.00000000</i>
   <i type="int" name="NBANDSGWLOW">     0</i>
  </separator>
  <separator name="vdW DFT" >
   <i type="logical" name="LUSE_VDW"> F  </i>
   <i name="Zab_VDW">     -0.84910000</i>
   <i name="PARAM1">      0.12340000</i>
   <i name="PARAM2">      1.00000000</i>
   <i name="PARAM3">      0.00000000</i>
  </separator>
  <separator name="model GW" >
   <i type="int" name="MODEL_GW">     0</i>
   <i name="MODEL_EPS0">     14.43804150</i>
   <i name="MODEL_ALPHA">      1.00000000</i>
  </separator>
  <separator name="linear response parameters" >
   <i type="logical" name="LEPSILON"> F  </i>
   <i type="logical" name="LRPA"> F  </i>
   <i type="logical" name="LNABLA"> F  </i>
   <i type="logical" name="LVEL"> F  </i>
   <i type="int" name="KINTER">     0</i>
   <i name="CSHIFT">      0.10000000</i>
   <i name="OMEGAMAX">     -1.00000000</i>
   <i name="DEG_THRESHOLD">      0.00200000</i>
   <i name="RTIME">     -0.10000000</i>
   <i name="WPLASMAI">      0.00000000</i>
   <v name="DFIELD">      0.00000000      0.00000000      0.00000000</v>
   <v name="WPLASMA">      0.00000000      0.00000000      0.00000000      0.00000000      0.00000000      0.00000000      0.00000000      0.00000000      0.00000000</v>
  </separator>
  <separator name="orbital magnetization" >
   <i type="logical" name="NUCIND"> F  </i>
   <v name="MAGPOS">      0.00000000      0.00000000      0.00000000</v>
   <i type="logical" name="LNICSALL"> T  </i>
   <i type="logical" name="ORBITALMAG"> F  </i>
   <i type="logical" name="LMAGBLOCH"> F  </i>
   <i type="logical" name="LCHIMAG"> F  </i>
   <i type="logical" name="LGAUGE"> T  </i>
   <i type="int" name="MAGATOM">     0</i>
   <v name="MAGDIPOL">      0.00000000      0.00000000      0.00000000</v>
   <v name="AVECCONST">      0.00000000      0.00000000      0.00000000</v>
  </separator>
  <separator name="response functions" >
   <i type="logical" name="LFINITE_TEMPERATURE"> F  </i>
   <i type="logical" name="LADDER"> F  </i>
   <i type="logical" name="LRPAFORCE"> F  </i>
   <i type="logical" name="LFXC"> F  </i>
   <i type="logical" name="LHARTREE"> T  </i>
   <i type="int" name="IBSE">     0</i>
   <v type="int" name="KPOINT">    -1     0     0     0</v>
   <i type="logical" name="LTCTC"> F  </i>
   <i type="logical" name="LTCTE"> F  </i>
   <i type="logical" name="LTETE"> F  </i>
   <i type="logical" name="LTRIPLET"> F  </i>
   <i type="logical" name="LFXCEPS"> F  </i>
   <i type="logical" name="LFXHEG"> F  </i>
   <i type="int" name="NATURALO">     2</i>
   <i type="logical" name="LHOLEGF"> F  </i>
   <i type="logical" name="L2ORDER"> F  </i>
   <i type="logical" name="LDMP1"> F  </i>
   <i type="logical" name="LMP2LT"> F  </i>
   <i type="logical" name="LSMP2LT"> F  </i>
   <i type="logical" name="LGWLF"> F  </i>
   <i name="ENCUTGW">     -2.00000000</i>
   <i name="ENCUTGWSOFT">     -2.00000000</i>
   <i name="ENCUTLF">     -1.00000000</i>
   <i type="logical" name="LESF_SPLINES"> F  </i>
   <i type="int" name="LMAXMP2">    -1</i>
   <i name="SCISSOR">      0.00000000</i>
   <i type="int" name="NOMEGA">     0</i>
   <i type="int" name="NOMEGAR">     0</i>
   <i type="int" name="NBANDSGW">    -1</i>
   <i type="int" name="NBANDSO">    -1</i>
   <i type="int" name="NBANDSV">    -1</i>
   <i type="int" name="NELM">   100</i>
   <i type="int" name="NELMHF">     1</i>
   <i type="int" name="DIM">     3</i>
   <i type="int" name="IESPILON">     4</i>
   <i type="int" name="ANTIRES">     0</i>
   <i name="OMEGAMAX">    -30.00000000</i>
   <i name="OMEGAMIN">    -30.00000000</i>
   <i name="OMEGATL">   -200.00000000</i>
   <i type="int" name="OMEGAGRID">     0</i>
   <i name="CSHIFT">     -0.10000000</i>
   <i type="logical" name="LSELFENERGY"> F  </i>
   <i type="logical" name="LSPECTRAL"> F  </i>
   <i type="logical" name="LSPECTRALGW"> F  </i>
   <i type="logical" name="LSINGLES"> F  </i>
   <i type="logical" name="LFERMIGW"> F  </i>
   <i type="logical" name="ODDONLYGW"> F  </i>
   <i type="logical" name="EVENONLYGW"> F  </i>
   <i type="int" name="NKREDLFX">     1</i>
   <i type="int" name="NKREDLFY">     1</i>
   <i type="int" name="NKREDLFZ">     1</i>
   <i type="int" name="MAXMEM">  2800</i>
   <i type="int" name="TELESCOPE">     0</i>
   <i type="int" name="NTAUPAR">    -1</i>
   <i type="int" name="NOMEGAPAR">    -1</i>
   <i name="DAMP_NEWTON">      0.80000001</i>
   <i name="LAMBDA">      1.00000000</i>
  </separator>
  <separator name="External order field" >
   <i name="OFIELD_KAPPA">      0.00000000</i>
   <v name="OFIELD_K">      0.00000000      0.00000000      0.00000000</v>
   <i name="OFIELD_Q6_NEAR">      0.00000000</i>
   <i name="OFIELD_Q6_FAR">      0.00000000</i>
   <i name="OFIELD_A">      0.00000000</i>
  </separator>
 </parameters>
 <atominfo>
  <atoms>       8 </atoms>
  <types>       3 </types>
  <array name="atoms" >
   <dimension dim="1">ion</dimension>
   <field type="string">element</field>
   <field type="int">atomtype</field>
   <set>
    <rc><c>B </c><c>   1</c></rc>
    <rc><c>B </c><c>   1</c></rc>
    <rc><c>Mo</c><c>   2</c></rc>
    <rc><c>Mo</c><c>   2</c></rc>
    <rc><c>Mo</c><c>   2</c></rc>
    <rc><c>Mo</c><c>   2</c></rc>
    <rc><c>Si</c><c>   3</c></rc>
    <rc><c>Si</c><c>   3</c></rc>
   </set>
  </array>
  <array name="atomtypes" >
   <dimension dim="1">type</dimension>
   <field type="int">atomspertype</field>
   <field type="string">element</field>
   <field>mass</field>
   <field>valence</field>
   <field type="string">pseudopotential</field>
   <set>
    <rc><c>   2</c><c>B </c><c>     10.81100000</c><c>      3.00000000</c><c>  PAW_PBE B 06Sep2000                   </c></rc>
    <rc><c>   4</c><c>Mo</c><c>     95.94000000</c><c>     14.00000000</c><c>  PAW_PBE Mo_sv 02Feb2006               </c></rc>
    <rc><c>   2</c><c>Si</c><c>     28.08500000</c><c>      4.00000000</c><c>  PAW_PBE Si 05Jan2001                  </c></rc>
   </set>
  </array>
 </atominfo>
 <structure name="initialpos" >
  <crystal>
   <varray name="basis" >
    <v>       5.60142895       0.00000000      -3.28699596 </v>
    <v>      -1.83689662       5.29167432      -3.28699596 </v>
    <v>       0.00000000       0.00000000       6.49464000 </v>
   </varray>
   <i name="volume">    192.50722004 </i>
   <varray name="rec_basis" >
    <v>       0.17852587       0.06197161       0.00000000 </v>
    <v>       0.00000000       0.18897610       0.00000000 </v>
    <v>       0.09035356       0.12700690       0.15397312 </v>
   </varray>
  </crystal>
  <varray name="positions" >
   <v>       0.50000000       0.00000000       0.50000000 </v>
   <v>       0.00000000       0.50000000       0.50000000 </v>
   <v>       0.25000000       0.25000000       0.00000000 </v>
   <v>       0.75000000       0.25000000       0.50000000 </v>
   <v>       0.75000000       0.75000000       0.00000000 </v>
   <v>       0.25000000       0.75000000       0.50000000 </v>
   <v>       0.00000000       0.00000000       0.00000000 </v>
   <v>       0.50000000       0.50000000       0.00000000 </v>
  </varray>
 </structure>
 <calculation>
  <scstep>
   <time name="total">   21.85   22.08</time>
   <energy>
    <i name="alphaZ">    214.25664881 </i>
    <i name="ewald">  -5031.96227500 </i>
    <i name="hartreedc">  -2323.92509426 </i>
    <i name="XCdc">    302.13790824 </i>
    <i name="pawpsdc">   6194.65714934 </i>
    <i name="pawaedc">  -6160.44322926 </i>
    <i name="eentropy">     -0.00052637 </i>
    <i name="bandstr">   -404.84587659 </i>
    <i name="atom">   7797.60240368 </i>
    <i name="e_fr_energy">    587.47710858 </i>
    <i name="e_wo_entrp">    587.47763495 </i>
    <i name="e_0_energy">    587.47737177 </i>
   </energy>
  </scstep>
  <scstep>
   <time name="total">   22.65   22.90</time>
   <energy>
    <i name="e_fr_energy">   -114.55205995 </i>
    <i name="e_wo_entrp">   -114.55080839 </i>
    <i name="e_0_energy">   -114.55143417 </i>
   </energy>
  </scstep>
  <scstep>
   <time name="total">   25.52   25.82</time>
   <energy>
    <i name="e_fr_energy">   -145.74189348 </i>
    <i name="e_wo_entrp">   -145.73929936 </i>
    <i name="e_0_energy">   -145.74059642 </i>
   </energy>
  </scstep>
  <scstep>
   <time name="total">   25.12   25.39</time>
   <energy>
    <i name="e_fr_energy">   -146.97630055 </i>
    <i name="e_wo_entrp">   -146.97400222 </i>
    <i name="e_0_energy">   -146.97515138 </i>
   </energy>
  </scstep>
  <scstep>
   <time name="total">   27.77   28.07</time>
   <energy>
    <i name="e_fr_energy">   -147.02410151 </i>
    <i name="e_wo_entrp">   -147.02185082 </i>
    <i name="e_0_energy">   -147.02297616 </i>
   </energy>
  </scstep>
  <scstep>
   <time name="total">   27.10   27.41</time>
   <energy>
    <i name="e_fr_energy">    -96.07676848 </i>
    <i name="e_wo_entrp">    -96.07484709 </i>
    <i name="e_0_energy">    -96.07580779 </i>
   </energy>
  </scstep>
  <scstep>
   <time name="total">   27.68   27.95</time>
   <energy>
    <i name="e_fr_energy">   -112.93028722 </i>
    <i name="e_wo_entrp">   -112.92724246 </i>
    <i name="e_0_energy">   -112.92876484 </i>
   </energy>
  </scstep>
  <scstep>
   <time name="total">   28.90   29.15</time>
   <energy>
    <i name="e_fr_energy">   -115.59058817 </i>
    <i name="e_wo_entrp">   -115.58865363 </i>
    <i name="e_0_energy">   -115.58962090 </i>
   </energy>
  </scstep>
  <scstep>
   <time name="total">   29.31   29.58</time>
   <energy>
    <i name="e_fr_energy">   -116.31102802 </i>
    <i name="e_wo_entrp">   -116.30908112 </i>
    <i name="e_0_energy">   -116.31005457 </i>
   </energy>
  </scstep>
  <scstep>
   <time name="total">   29.45   29.71</time>
   <energy>
    <i name="e_fr_energy">   -116.65230007 </i>
    <i name="e_wo_entrp">   -116.65040162 </i>
    <i name="e_0_energy">   -116.65135085 </i>
   </energy>
  </scstep>
  <scstep>
   <time name="total">   29.45   29.70</time>
   <energy>
    <i name="e_fr_energy">   -116.78870421 </i>
    <i name="e_wo_entrp">   -116.78679202 </i>
    <i name="e_0_energy">   -116.78774811 </i>
   </energy>
  </scstep>
  <scstep>
   <time name="total">   29.23   29.49</time>
   <energy>
    <i name="e_fr_energy">   -116.85824387 </i>
    <i name="e_wo_entrp">   -116.85605569 </i>
    <i name="e_0_energy">   -116.85714978 </i>
   </energy>
  </scstep>
  <scstep>
   <time name="total">   30.46   30.74</time>
   <energy>
    <i name="e_fr_energy">   -116.91094776 </i>
    <i name="e_wo_entrp">   -116.90889496 </i>
    <i name="e_0_energy">   -116.90992136 </i>
   </energy>
  </scstep>
  <scstep>
   <time name="total">   28.16   28.44</time>
   <energy>
    <i name="e_fr_energy">   -116.93936367 </i>
    <i name="e_wo_entrp">   -116.93737627 </i>
    <i name="e_0_energy">   -116.93836997 </i>
   </energy>
  </scstep>
  <scstep>
   <time name="total">   30.51   30.79</time>
   <energy>
    <i name="e_fr_energy">   -116.96130422 </i>
    <i name="e_wo_entrp">   -116.95944503 </i>
    <i name="e_0_energy">   -116.96037462 </i>
   </energy>
  </scstep>
  <scstep>
   <time name="total">   29.50   29.77</time>
   <energy>
    <i name="e_fr_energy">   -116.97477716 </i>
    <i name="e_wo_entrp">   -116.97297837 </i>
    <i name="e_0_energy">   -116.97387776 </i>
   </energy>
  </scstep>
  <scstep>
   <time name="total">   30.32   30.61</time>
   <energy>
    <i name="e_fr_energy">   -116.98132994 </i>
    <i name="e_wo_entrp">   -116.97954329 </i>
    <i name="e_0_energy">   -116.98043661 </i>
   </energy>
  </scstep>
  <scstep>
   <time name="total">   28.67   28.94</time>
   <energy>
    <i name="e_fr_energy">   -116.98495988 </i>
    <i name="e_wo_entrp">   -116.98318891 </i>
    <i name="e_0_energy">   -116.98407439 </i>
   </energy>
  </scstep>
  <scstep>
   <time name="total">   30.46   30.72</time>
   <energy>
    <i name="e_fr_energy">   -116.98697391 </i>
    <i name="e_wo_entrp">   -116.98522802 </i>
    <i name="e_0_energy">   -116.98610096 </i>
   </energy>
  </scstep>
  <scstep>
   <time name="total">   30.00   30.26</time>
   <energy>
    <i name="e_fr_energy">   -116.98828960 </i>
    <i name="e_wo_entrp">   -116.98656278 </i>
    <i name="e_0_energy">   -116.98742619 </i>
   </energy>
  </scstep>
  <scstep>
   <time name="total">   30.89   31.15</time>
   <energy>
    <i name="e_fr_energy">   -116.98898926 </i>
    <i name="e_wo_entrp">   -116.98726568 </i>
    <i name="e_0_energy">   -116.98812747 </i>
   </energy>
  </scstep>
  <scstep>
   <time name="total">   28.73   28.99</time>
   <energy>
    <i name="e_fr_energy">   -116.98955448 </i>
    <i name="e_wo_entrp">   -116.98782885 </i>
    <i name="e_0_energy">   -116.98869166 </i>
   </energy>
  </scstep>
  <scstep>
   <time name="total">   30.72   30.99</time>
   <energy>
    <i name="e_fr_energy">   -116.98994385 </i>
    <i name="e_wo_entrp">   -116.98821636 </i>
    <i name="e_0_energy">   -116.98908011 </i>
   </energy>
  </scstep>
  <scstep>
   <time name="total">   29.37   29.63</time>
   <energy>
    <i name="e_fr_energy">   -116.99014898 </i>
    <i name="e_wo_entrp">   -116.98842212 </i>
    <i name="e_0_energy">   -116.98928555 </i>
   </energy>
  </scstep>
  <scstep>
   <time name="total">   30.63   30.92</time>
   <energy>
    <i name="e_fr_energy">   -116.99024399 </i>
    <i name="e_wo_entrp">   -116.98851749 </i>
    <i name="e_0_energy">   -116.98938074 </i>
   </energy>
  </scstep>
  <scstep>
   <time name="total">   31.05   31.34</time>
   <energy>
    <i name="e_fr_energy">   -116.99032748 </i>
    <i name="e_wo_entrp">   -116.98860463 </i>
    <i name="e_0_energy">   -116.98946605 </i>
   </energy>
  </scstep>
  <scstep>
   <time name="total">   30.03   30.35</time>
   <energy>
    <i name="e_fr_energy">   -116.99038693 </i>
    <i name="e_wo_entrp">   -116.98866540 </i>
    <i name="e_0_energy">   -116.98952617 </i>
   </energy>
  </scstep>
  <scstep>
   <time name="total">   30.76   31.03</time>
   <energy>
    <i name="e_fr_energy">   -116.99041849 </i>
    <i name="e_wo_entrp">   -116.98869798 </i>
    <i name="e_0_energy">   -116.98955824 </i>
   </energy>
  </scstep>
  <scstep>
   <time name="total">   29.23   29.47</time>
   <energy>
    <i name="e_fr_energy">   -116.99043135 </i>
    <i name="e_wo_entrp">   -116.98871117 </i>
    <i name="e_0_energy">   -116.98957126 </i>
   </energy>
  </scstep>
  <scstep>
   <time name="total">   28.96   29.27</time>
   <energy>
    <i name="e_fr_energy">   -116.99044141 </i>
    <i name="e_wo_entrp">   -116.98872151 </i>
    <i name="e_0_energy">   -116.98958146 </i>
   </energy>
  </scstep>
  <scstep>
   <time name="total">   30.04   30.34</time>
   <energy>
    <i name="e_fr_energy">   -116.99044785 </i>
    <i name="e_wo_entrp">   -116.98872713 </i>
    <i name="e_0_energy">   -116.98958749 </i>
   </energy>
  </scstep>
  <scstep>
   <time name="total">   29.45   29.73</time>
   <energy>
    <i name="e_fr_energy">   -116.99045108 </i>
    <i name="e_wo_entrp">   -116.98872994 </i>
    <i name="e_0_energy">   -116.98959051 </i>
   </energy>
  </scstep>
  <scstep>
   <time name="total">   30.53   30.80</time>
   <energy>
    <i name="e_fr_energy">   -116.99045300 </i>
    <i name="e_wo_entrp">   -116.98873137 </i>
    <i name="e_0_energy">   -116.98959218 </i>
   </energy>
  </scstep>
  <scstep>
   <time name="total">   31.10   31.37</time>
   <energy>
    <i name="e_fr_energy">   -116.99045450 </i>
    <i name="e_wo_entrp">   -116.98873239 </i>
    <i name="e_0_energy">   -116.98959345 </i>
   </energy>
  </scstep>
  <scstep>
   <time name="total">   31.85   32.13</time>
   <energy>
    <i name="e_fr_energy">   -116.99045542 </i>
    <i name="e_wo_entrp">   -116.98873313 </i>
    <i name="e_0_energy">   -116.98959428 </i>
   </energy>
  </scstep>
  <scstep>
   <time name="total">   27.99   28.27</time>
   <energy>
    <i name="e_fr_energy">   -116.99045586 </i>
    <i name="e_wo_entrp">   -116.98873333 </i>
    <i name="e_0_energy">   -116.98959459 </i>
   </energy>
  </scstep>
  <scstep>
   <time name="total">   29.79   30.05</time>
   <energy>
    <i name="e_fr_energy">   -116.99045625 </i>
    <i name="e_wo_entrp">   -116.98873394 </i>
    <i name="e_0_energy">   -116.98959510 </i>
   </energy>
  </scstep>
  <scstep>
   <time name="total">   31.59   31.86</time>
   <energy>
    <i name="e_fr_energy">   -116.99045657 </i>
    <i name="e_wo_entrp">   -116.98873425 </i>
    <i name="e_0_energy">   -116.98959541 </i>
   </energy>
  </scstep>
  <scstep>
   <time name="total">   30.17   30.44</time>
   <energy>
    <i name="e_fr_energy">   -116.99045671 </i>
    <i name="e_wo_entrp">   -116.98873445 </i>
    <i name="e_0_energy">   -116.98959558 </i>
   </energy>
  </scstep>
  <scstep>
   <time name="total">   30.93   31.21</time>
   <energy>
    <i name="e_fr_energy">   -116.99045680 </i>
    <i name="e_wo_entrp">   -116.98873458 </i>
    <i name="e_0_energy">   -116.98959569 </i>
   </energy>
  </scstep>
  <scstep>
   <time name="total">   30.60   30.88</time>
   <energy>
    <i name="e_fr_energy">   -116.99045685 </i>
    <i name="e_wo_entrp">   -116.98873464 </i>
    <i name="e_0_energy">   -116.98959574 </i>
   </energy>
  </scstep>
  <scstep>
   <time name="total">   29.06   29.31</time>
   <energy>
    <i name="e_fr_energy">   -116.99045689 </i>
    <i name="e_wo_entrp">   -116.98873476 </i>
    <i name="e_0_energy">   -116.98959582 </i>
   </energy>
  </scstep>
  <scstep>
   <time name="total">   29.57   29.87</time>
   <energy>
    <i name="e_fr_energy">   -116.99045694 </i>
    <i name="e_wo_entrp">   -116.98873486 </i>
    <i name="e_0_energy">   -116.98959590 </i>
   </energy>
  </scstep>
  <scstep>
   <time name="total">   29.96   30.23</time>
   <energy>
    <i name="e_fr_energy">   -116.99045695 </i>
    <i name="e_wo_entrp">   -116.98873490 </i>
    <i name="e_0_energy">   -116.98959593 </i>
   </energy>
  </scstep>
  <scstep>
   <time name="total">   26.58   26.82</time>
   <energy>
    <i name="e_fr_energy">   -116.99045697 </i>
    <i name="e_wo_entrp">   -116.98873489 </i>
    <i name="e_0_energy">   -116.98959593 </i>
   </energy>
  </scstep>
  <scstep>
   <time name="total">   28.68   28.92</time>
   <energy>
    <i name="e_fr_energy">   -116.99045700 </i>
    <i name="e_wo_entrp">   -116.98873490 </i>
    <i name="e_0_energy">   -116.98959595 </i>
   </energy>
  </scstep>
  <scstep>
   <time name="total">   29.01   29.26</time>
   <energy>
    <i name="e_fr_energy">   -116.99045702 </i>
    <i name="e_wo_entrp">   -116.98873492 </i>
    <i name="e_0_energy">   -116.98959597 </i>
   </energy>
  </scstep>
  <scstep>
   <time name="total">   28.78   29.03</time>
   <energy>
    <i name="e_fr_energy">   -116.99045701 </i>
    <i name="e_wo_entrp">   -116.98873492 </i>
    <i name="e_0_energy">   -116.98959597 </i>
   </energy>
  </scstep>
  <scstep>
   <time name="total">   29.49   29.74</time>
   <energy>
    <i name="e_fr_energy">   -116.99045701 </i>
    <i name="e_wo_entrp">   -116.98873492 </i>
    <i name="e_0_energy">   -116.98959596 </i>
   </energy>
  </scstep>
  <scstep>
   <time name="total">   30.55   30.81</time>
   <energy>
    <i name="e_fr_energy">   -116.99045701 </i>
    <i name="e_wo_entrp">   -116.98873491 </i>
    <i name="e_0_energy">   -116.98959596 </i>
   </energy>
  </scstep>
  <scstep>
   <time name="total">   33.81   34.10</time>
   <energy>
    <i name="alphaZ">    214.25664881 </i>
    <i name="ewald">  -5031.96227500 </i>
    <i name="hartreedc">  -2222.25914844 </i>
    <i name="XCdc">    306.42760821 </i>
    <i name="pawpsdc">   6828.56700576 </i>
    <i name="pawaedc">  -6805.78110595 </i>
    <i name="eentropy">     -0.00172210 </i>
    <i name="bandstr">  -1203.83987199 </i>
    <i name="atom">   7797.60240368 </i>
    <i name="e_fr_energy">   -116.99045701 </i>
    <i name="e_wo_entrp">   -116.98873491 </i>
    <i name="e_0_energy">   -116.98959596 </i>
   </energy>
  </scstep>
  <structure>
   <crystal>
    <varray name="basis" >
     <v>       5.60142895       0.00000000      -3.28699596 </v>
     <v>      -1.83689662       5.29167432      -3.28699596 </v>
     <v>       0.00000000       0.00000000       6.49464000 </v>
    </varray>
    <i name="volume">    192.50722004 </i>
    <varray name="rec_basis" >
     <v>       0.17852587       0.06197161       0.00000000 </v>
     <v>       0.00000000       0.18897610       0.00000000 </v>
     <v>       0.09035356       0.12700690       0.15397312 </v>
    </varray>
   </crystal>
   <varray name="positions" >
    <v>       0.50000000       0.00000000       0.50000000 </v>
    <v>       0.00000000       0.50000000       0.50000000 </v>
    <v>       0.25000000       0.25000000       0.00000000 </v>
    <v>       0.75000000       0.25000000       0.50000000 </v>
    <v>       0.75000000       0.75000000       0.00000000 </v>
    <v>       0.25000000       0.75000000       0.50000000 </v>
    <v>       0.00000000       0.00000000       0.00000000 </v>
    <v>       0.50000000       0.50000000       0.00000000 </v>
   </varray>
  </structure>
  <varray name="forces" >
   <v>       0.00000000       0.00000000       0.00000000 </v>
   <v>       0.00000000       0.00000000       0.00000000 </v>
   <v>       0.00000000       0.00000000       0.00000000 </v>
   <v>       0.00000000       0.00000000       0.00000000 </v>
   <v>       0.00000000       0.00000000       0.00000000 </v>
   <v>       0.00000000       0.00000000       0.00000000 </v>
   <v>       0.00000000       0.00000000       0.00000000 </v>
   <v>       0.00000000       0.00000000       0.00000000 </v>
  </varray>
  <varray name="stress" >
   <v>       0.00000000       0.00000000       0.00000000 </v>
   <v>       0.00000000       0.00000000       0.00000000 </v>
   <v>       0.00000000       0.00000000       0.00000000 </v>
  </varray>
  <energy>
   <i name="e_fr_energy">   -116.99045701 </i>
   <i name="e_wo_entrp">   -116.98873491 </i>
   <i name="e_0_energy">   -116.98959596 </i>
  </energy>
  <time name="totalsc"> 1495.66 1509.51</time>
  <eigenvalues>
   <array>
    <dimension dim="1">band</dimension>
    <dimension dim="2">kpoint</dimension>
    <dimension dim="3">spin</dimension>
    <field>eigene</field>
    <field>occ</field>
    <set>
     <set comment="spin 1">
      <set comment="kpoint 1">
       <r>  -59.2848    1.0000 </r>
       <r>  -59.2842    1.0000 </r>
       <r>  -58.8042    1.0000 </r>
       <r>  -58.8041    1.0000 </r>
       <r>  -32.5930    1.0000 </r>
       <r>  -32.5925    1.0000 </r>
       <r>  -32.5828    1.0000 </r>
       <r>  -32.5828    1.0000 </r>
       <r>  -32.5730    1.0000 </r>
       <r>  -32.5730    1.0000 </r>
       <r>  -32.2216    1.0000 </r>
       <r>  -32.2089    1.0000 </r>
       <r>  -32.1411    1.0000 </r>
       <r>  -32.1410    1.0000 </r>
       <r>  -32.1356    1.0000 </r>
       <r>  -32.1356    1.0000 </r>
       <r>   -4.9299    1.0000 </r>
       <r>   -2.1890    1.0000 </r>
       <r>   -1.8940    1.0000 </r>
       <r>   -1.1969    1.0000 </r>
       <r>    0.1730    1.0000 </r>
       <r>    0.3646    1.0000 </r>
       <r>    0.3646    1.0000 </r>
       <r>    0.7536    1.0000 </r>
       <r>    1.1811    1.0000 </r>
       <r>    2.0384    1.0000 </r>
       <r>    2.1845    1.0000 </r>
       <r>    2.2352    1.0000 </r>
       <r>    2.2836    1.0000 </r>
       <r>    3.0014    1.0000 </r>
       <r>    3.0014    1.0000 </r>
       <r>    3.2340    1.0000 </r>
       <r>    3.2340    1.0000 </r>
       <r>    3.3717    1.0000 </r>
       <r>    4.1779    0.0000 </r>
       <r>    4.1779    0.0000 </r>
       <r>    4.5177    0.0000 </r>
       <r>    4.5940    0.0000 </r>
       <r>    4.5959    0.0000 </r>
       <r>    4.7645    0.0000 </r>
       <r>    5.3022    0.0000 </r>
       <r>    5.5473    0.0000 </r>
      </set>
      <set comment="kpoint 2">
       <r>  -59.2847    1.0000 </r>
       <r>  -59.2842    1.0000 </r>
       <r>  -58.8043    1.0000 </r>
       <r>  -58.8042    1.0000 </r>
       <r>  -32.5930    1.0000 </r>
       <r>  -32.5924    1.0000 </r>
       <r>  -32.5823    1.0000 </r>
       <r>  -32.5784    1.0000 </r>
       <r>  -32.5734    1.0000 </r>
       <r>  -32.5694    1.0000 </r>
       <r>  -32.2210    1.0000 </r>
       <r>  -32.2096    1.0000 </r>
       <r>  -32.1451    1.0000 </r>
       <r>  -32.1408    1.0000 </r>
       <r>  -32.1400    1.0000 </r>
       <r>  -32.1359    1.0000 </r>
       <r>   -4.8338    1.0000 </r>
       <r>   -2.4220    1.0000 </r>
       <r>   -1.9255    1.0000 </r>
       <r>   -1.4116    1.0000 </r>
       <r>    0.3767    1.0000 </r>
       <r>    0.4365    1.0000 </r>
       <r>    0.6544    1.0000 </r>
       <r>    1.0007    1.0000 </r>
       <r>    1.2476    1.0000 </r>
       <r>    2.0903    1.0000 </r>
       <r>    2.1626    1.0000 </r>
       <r>    2.2147    1.0000 </r>
       <r>    2.3864    1.0000 </r>
       <r>    2.6529    1.0000 </r>
       <r>    2.7110    1.0000 </r>
       <r>    3.0894    1.0000 </r>
       <r>    3.6445    1.0000 </r>
       <r>    3.7291    0.9559 </r>
       <r>    4.0885    0.0000 </r>
       <r>    4.1838    0.0000 </r>
       <r>    4.2333    0.0000 </r>
       <r>    4.5243    0.0000 </r>
       <r>    4.5566    0.0000 </r>
       <r>    4.6997    0.0000 </r>
       <r>    4.7741    0.0000 </r>
       <r>    5.5229    0.0000 </r>
      </set>
      <set comment="kpoint 3">
       <r>  -59.2846    1.0000 </r>
       <r>  -59.2842    1.0000 </r>
       <r>  -58.8043    1.0000 </r>
       <r>  -58.8042    1.0000 </r>
       <r>  -32.5928    1.0000 </r>
       <r>  -32.5924    1.0000 </r>
       <r>  -32.5809    1.0000 </r>
       <r>  -32.5748    1.0000 </r>
       <r>  -32.5680    1.0000 </r>
       <r>  -32.5615    1.0000 </r>
       <r>  -32.2194    1.0000 </r>
       <r>  -32.2114    1.0000 </r>
       <r>  -32.1542    1.0000 </r>
       <r>  -32.1504    1.0000 </r>
       <r>  -32.1401    1.0000 </r>
       <r>  -32.1367    1.0000 </r>
       <r>   -4.5533    1.0000 </r>
       <r>   -2.9510    1.0000 </r>
       <r>   -1.9897    1.0000 </r>
       <r>   -1.7370    1.0000 </r>
       <r>    0.6468    1.0000 </r>
       <r>    0.7397    1.0000 </r>
       <r>    1.3023    1.0000 </r>
       <r>    1.4275    1.0000 </r>
       <r>    1.6736    1.0000 </r>
       <r>    1.8671    1.0000 </r>
       <r>    2.1016    1.0000 </r>
       <r>    2.2315    1.0000 </r>
       <r>    2.4909    1.0000 </r>
       <r>    2.5591    1.0000 </r>
       <r>    2.5832    1.0000 </r>
       <r>    2.7502    1.0000 </r>
       <r>    3.6895    1.0000 </r>
       <r>    3.8607    0.0000 </r>
       <r>    3.9712    0.0000 </r>
       <r>    4.1202    0.0000 </r>
       <r>    4.1334    0.0000 </r>
       <r>    4.2121    0.0000 </r>
       <r>    4.2750    0.0000 </r>
       <r>    4.4744    0.0000 </r>
       <r>    4.7481    0.0000 </r>
       <r>    4.8796    0.0000 </r>
      </set>
      <set comment="kpoint 4">
       <r>  -59.2844    1.0000 </r>
       <r>  -59.2843    1.0000 </r>
       <r>  -58.8043    1.0000 </r>
       <r>  -58.8043    1.0000 </r>
       <r>  -32.5926    1.0000 </r>
       <r>  -32.5925    1.0000 </r>
       <r>  -32.5789    1.0000 </r>
       <r>  -32.5767    1.0000 </r>
       <r>  -32.5583    1.0000 </r>
       <r>  -32.5559    1.0000 </r>
       <r>  -32.2169    1.0000 </r>
       <r>  -32.2141    1.0000 </r>
       <r>  -32.1612    1.0000 </r>
       <r>  -32.1597    1.0000 </r>
       <r>  -32.1391    1.0000 </r>
       <r>  -32.1379    1.0000 </r>
       <r>   -4.1128    1.0000 </r>
       <r>   -3.5555    1.0000 </r>
       <r>   -2.0186    1.0000 </r>
       <r>   -1.9468    1.0000 </r>
       <r>    0.9793    1.0000 </r>
       <r>    1.2077    1.0000 </r>
       <r>    1.4047    1.0000 </r>
       <r>    1.6577    1.0000 </r>
       <r>    1.8004    1.0000 </r>
       <r>    1.8732    1.0000 </r>
       <r>    2.0359    1.0000 </r>
       <r>    2.4110    1.0000 </r>
       <r>    2.4875    1.0000 </r>
       <r>    2.5937    1.0000 </r>
       <r>    2.8199    1.0000 </r>
       <r>    3.1999    1.0000 </r>
       <r>    3.2323    1.0000 </r>
       <r>    3.4070    1.0000 </r>
       <r>    3.5284    1.0000 </r>
       <r>    3.7400    0.8259 </r>
       <r>    3.9434    0.0000 </r>
       <r>    4.0745    0.0000 </r>
       <r>    4.2623    0.0000 </r>
       <r>    4.3325    0.0000 </r>
       <r>    4.6465    0.0000 </r>
       <r>    5.0764    0.0000 </r>
      </set>
      <set comment="kpoint 5">
       <r>  -59.2847    1.0000 </r>
       <r>  -59.2842    1.0000 </r>
       <r>  -58.8042    1.0000 </r>
       <r>  -58.8042    1.0000 </r>
       <r>  -32.5930    1.0000 </r>
       <r>  -32.5924    1.0000 </r>
       <r>  -32.5782    1.0000 </r>
       <r>  -32.5778    1.0000 </r>
       <r>  -32.5701    1.0000 </r>
       <r>  -32.5695    1.0000 </r>
       <r>  -32.2194    1.0000 </r>
       <r>  -32.2113    1.0000 </r>
       <r>  -32.1452    1.0000 </r>
       <r>  -32.1445    1.0000 </r>
       <r>  -32.1405    1.0000 </r>
       <r>  -32.1401    1.0000 </r>
       <r>   -4.6483    1.0000 </r>
       <r>   -2.8078    1.0000 </r>
       <r>   -1.8647    1.0000 </r>
       <r>   -1.7848    1.0000 </r>
       <r>    0.6283    1.0000 </r>
       <r>    0.7031    1.0000 </r>
       <r>    1.1292    1.0000 </r>
       <r>    1.3183    1.0000 </r>
       <r>    1.5614    1.0000 </r>
       <r>    2.0602    1.0000 </r>
       <r>    2.1464    1.0000 </r>
       <r>    2.3113    1.0000 </r>
       <r>    2.3176    1.0000 </r>
       <r>    2.3600    1.0000 </r>
       <r>    2.4722    1.0000 </r>
       <r>    2.5008    1.0000 </r>
       <r>    4.0806    0.0000 </r>
       <r>    4.1342    0.0000 </r>
       <r>    4.1509    0.0000 </r>
       <r>    4.1907    0.0000 </r>
       <r>    4.2112    0.0000 </r>
       <r>    4.2154    0.0000 </r>
       <r>    4.3705    0.0000 </r>
       <r>    4.4439    0.0000 </r>
       <r>    4.7326    0.0000 </r>
       <r>    4.9129    0.0000 </r>
      </set>
      <set comment="kpoint 6">
       <r>  -59.2846    1.0000 </r>
       <r>  -59.2842    1.0000 </r>
       <r>  -58.8043    1.0000 </r>
       <r>  -58.8042    1.0000 </r>
       <r>  -32.5929    1.0000 </r>
       <r>  -32.5923    1.0000 </r>
       <r>  -32.5767    1.0000 </r>
       <r>  -32.5710    1.0000 </r>
       <r>  -32.5677    1.0000 </r>
       <r>  -32.5617    1.0000 </r>
       <r>  -32.2170    1.0000 </r>
       <r>  -32.2139    1.0000 </r>
       <r>  -32.1540    1.0000 </r>
       <r>  -32.1507    1.0000 </r>
       <r>  -32.1442    1.0000 </r>
       <r>  -32.1411    1.0000 </r>
       <r>   -4.2875    1.0000 </r>
       <r>   -3.3002    1.0000 </r>
       <r>   -2.1446    1.0000 </r>
       <r>   -1.8537    1.0000 </r>
       <r>    0.9393    1.0000 </r>
       <r>    1.1132    1.0000 </r>
       <r>    1.5049    1.0000 </r>
       <r>    1.7088    1.0000 </r>
       <r>    1.8055    1.0000 </r>
       <r>    1.9222    1.0000 </r>
       <r>    2.1813    1.0000 </r>
       <r>    2.2028    1.0000 </r>
       <r>    2.2809    1.0000 </r>
       <r>    2.3285    1.0000 </r>
       <r>    2.5949    1.0000 </r>
       <r>    2.6998    1.0000 </r>
       <r>    3.6243    1.0000 </r>
       <r>    3.7225    0.9849 </r>
       <r>    3.7987    0.0006 </r>
       <r>    3.9276    0.0000 </r>
       <r>    4.0354    0.0000 </r>
       <r>    4.2224    0.0000 </r>
       <r>    4.2266    0.0000 </r>
       <r>    4.5909    0.0000 </r>
       <r>    4.7868    0.0000 </r>
       <r>    4.8865    0.0000 </r>
      </set>
      <set comment="kpoint 7">
       <r>  -59.2844    1.0000 </r>
       <r>  -59.2843    1.0000 </r>
       <r>  -58.8044    1.0000 </r>
       <r>  -58.8042    1.0000 </r>
       <r>  -32.5927    1.0000 </r>
       <r>  -32.5923    1.0000 </r>
       <r>  -32.5749    1.0000 </r>
       <r>  -32.5727    1.0000 </r>
       <r>  -32.5582    1.0000 </r>
       <r>  -32.5559    1.0000 </r>
       <r>  -32.2168    1.0000 </r>
       <r>  -32.2142    1.0000 </r>
       <r>  -32.1611    1.0000 </r>
       <r>  -32.1599    1.0000 </r>
       <r>  -32.1432    1.0000 </r>
       <r>  -32.1421    1.0000 </r>
       <r>   -3.8229    1.0000 </r>
       <r>   -3.7832    1.0000 </r>
       <r>   -2.3259    1.0000 </r>
       <r>   -1.8274    1.0000 </r>
       <r>    1.1642    1.0000 </r>
       <r>    1.3076    1.0000 </r>
       <r>    1.3206    1.0000 </r>
       <r>    1.6433    1.0000 </r>
       <r>    1.7725    1.0000 </r>
       <r>    2.0318    1.0000 </r>
       <r>    2.0481    1.0000 </r>
       <r>    2.5369    1.0000 </r>
       <r>    2.5996    1.0000 </r>
       <r>    2.8495    1.0000 </r>
       <r>    2.8822    1.0000 </r>
       <r>    3.0488    1.0000 </r>
       <r>    3.1609    1.0000 </r>
       <r>    3.3315    1.0000 </r>
       <r>    3.4147    1.0000 </r>
       <r>    3.5456    1.0000 </r>
       <r>    4.0694    0.0000 </r>
       <r>    4.0936    0.0000 </r>
       <r>    4.1128    0.0000 </r>
       <r>    4.3237    0.0000 </r>
       <r>    4.5943    0.0000 </r>
       <r>    5.0073    0.0000 </r>
      </set>
      <set comment="kpoint 8">
       <r>  -59.2844    1.0000 </r>
       <r>  -59.2843    1.0000 </r>
       <r>  -58.8044    1.0000 </r>
       <r>  -58.8042    1.0000 </r>
       <r>  -32.5926    1.0000 </r>
       <r>  -32.5924    1.0000 </r>
       <r>  -32.5747    1.0000 </r>
       <r>  -32.5729    1.0000 </r>
       <r>  -32.5580    1.0000 </r>
       <r>  -32.5560    1.0000 </r>
       <r>  -32.2194    1.0000 </r>
       <r>  -32.2117    1.0000 </r>
       <r>  -32.1612    1.0000 </r>
       <r>  -32.1598    1.0000 </r>
       <r>  -32.1433    1.0000 </r>
       <r>  -32.1421    1.0000 </r>
       <r>   -4.2931    1.0000 </r>
       <r>   -3.1927    1.0000 </r>
       <r>   -2.3317    1.0000 </r>
       <r>   -1.7307    1.0000 </r>
       <r>    0.6748    1.0000 </r>
       <r>    0.9581    1.0000 </r>
       <r>    1.5040    1.0000 </r>
       <r>    1.7026    1.0000 </r>
       <r>    1.7699    1.0000 </r>
       <r>    2.0026    1.0000 </r>
       <r>    2.1991    1.0000 </r>
       <r>    2.3128    1.0000 </r>
       <r>    2.6757    1.0000 </r>
       <r>    2.7744    1.0000 </r>
       <r>    2.8613    1.0000 </r>
       <r>    3.0844    1.0000 </r>
       <r>    3.3014    1.0000 </r>
       <r>    3.4258    1.0000 </r>
       <r>    3.5512    1.0000 </r>
       <r>    3.8283    0.0000 </r>
       <r>    4.0068    0.0000 </r>
       <r>    4.0368    0.0000 </r>
       <r>    4.1375    0.0000 </r>
       <r>    4.4848    0.0000 </r>
       <r>    4.6931    0.0000 </r>
       <r>    4.9754    0.0000 </r>
      </set>
      <set comment="kpoint 9">
       <r>  -59.2845    1.0000 </r>
       <r>  -59.2842    1.0000 </r>
       <r>  -58.8044    1.0000 </r>
       <r>  -58.8042    1.0000 </r>
       <r>  -32.5926    1.0000 </r>
       <r>  -32.5925    1.0000 </r>
       <r>  -32.5766    1.0000 </r>
       <r>  -32.5711    1.0000 </r>
       <r>  -32.5676    1.0000 </r>
       <r>  -32.5619    1.0000 </r>
       <r>  -32.2211    1.0000 </r>
       <r>  -32.2098    1.0000 </r>
       <r>  -32.1541    1.0000 </r>
       <r>  -32.1506    1.0000 </r>
       <r>  -32.1442    1.0000 </r>
       <r>  -32.1410    1.0000 </r>
       <r>   -4.6432    1.0000 </r>
       <r>   -2.6240    1.0000 </r>
       <r>   -2.2177    1.0000 </r>
       <r>   -1.5560    1.0000 </r>
       <r>    0.3167    1.0000 </r>
       <r>    0.7308    1.0000 </r>
       <r>    0.9648    1.0000 </r>
       <r>    1.3447    1.0000 </r>
       <r>    1.4901    1.0000 </r>
       <r>    2.1189    1.0000 </r>
       <r>    2.2204    1.0000 </r>
       <r>    2.2788    1.0000 </r>
       <r>    2.6958    1.0000 </r>
       <r>    2.7635    1.0000 </r>
       <r>    2.8732    1.0000 </r>
       <r>    3.0532    1.0000 </r>
       <r>    3.6808    1.0000 </r>
       <r>    3.7520    0.5331 </r>
       <r>    3.7674    0.1572 </r>
       <r>    3.8271    0.0000 </r>
       <r>    3.9680    0.0000 </r>
       <r>    4.0240    0.0000 </r>
       <r>    4.3693    0.0000 </r>
       <r>    4.6604    0.0000 </r>
       <r>    4.8951    0.0000 </r>
       <r>    5.4919    0.0000 </r>
      </set>
      <set comment="kpoint 10">
       <r>  -59.2847    1.0000 </r>
       <r>  -59.2842    1.0000 </r>
       <r>  -58.8043    1.0000 </r>
       <r>  -58.8041    1.0000 </r>
       <r>  -32.5928    1.0000 </r>
       <r>  -32.5925    1.0000 </r>
       <r>  -32.5782    1.0000 </r>
       <r>  -32.5777    1.0000 </r>
       <r>  -32.5701    1.0000 </r>
       <r>  -32.5697    1.0000 </r>
       <r>  -32.2217    1.0000 </r>
       <r>  -32.2090    1.0000 </r>
       <r>  -32.1451    1.0000 </r>
       <r>  -32.1446    1.0000 </r>
       <r>  -32.1406    1.0000 </r>
       <r>  -32.1400    1.0000 </r>
       <r>   -4.8307    1.0000 </r>
       <r>   -2.3041    1.0000 </r>
       <r>   -2.0572    1.0000 </r>
       <r>   -1.3662    1.0000 </r>
       <r>    0.1594    1.0000 </r>
       <r>    0.6376    1.0000 </r>
       <r>    0.6861    1.0000 </r>
       <r>    0.7401    1.0000 </r>
       <r>    1.3138    1.0000 </r>
       <r>    2.1352    1.0000 </r>
       <r>    2.1860    1.0000 </r>
       <r>    2.3216    1.0000 </r>
       <r>    2.3617    1.0000 </r>
       <r>    2.9758    1.0000 </r>
       <r>    3.0647    1.0000 </r>
       <r>    3.2914    1.0000 </r>
       <r>    3.3255    1.0000 </r>
       <r>    3.3854    1.0000 </r>
       <r>    4.0400    0.0000 </r>
       <r>    4.0504    0.0000 </r>
       <r>    4.1880    0.0000 </r>
       <r>    4.3362    0.0000 </r>
       <r>    4.5097    0.0000 </r>
       <r>    4.6910    0.0000 </r>
       <r>    5.2531    0.0000 </r>
       <r>    5.3546    0.0000 </r>
      </set>
      <set comment="kpoint 11">
       <r>  -59.2845    1.0000 </r>
       <r>  -59.2842    1.0000 </r>
       <r>  -58.8045    1.0000 </r>
       <r>  -58.8042    1.0000 </r>
       <r>  -32.5928    1.0000 </r>
       <r>  -32.5921    1.0000 </r>
       <r>  -32.5675    1.0000 </r>
       <r>  -32.5660    1.0000 </r>
       <r>  -32.5634    1.0000 </r>
       <r>  -32.5617    1.0000 </r>
       <r>  -32.2168    1.0000 </r>
       <r>  -32.2143    1.0000 </r>
       <r>  -32.1544    1.0000 </r>
       <r>  -32.1526    1.0000 </r>
       <r>  -32.1521    1.0000 </r>
       <r>  -32.1505    1.0000 </r>
       <r>   -3.8678    1.0000 </r>
       <r>   -3.6356    1.0000 </r>
       <r>   -2.5305    1.0000 </r>
       <r>   -1.8009    1.0000 </r>
       <r>    1.1377    1.0000 </r>
       <r>    1.4519    1.0000 </r>
       <r>    1.4651    1.0000 </r>
       <r>    1.5581    1.0000 </r>
       <r>    1.7657    1.0000 </r>
       <r>    1.9923    1.0000 </r>
       <r>    2.4426    1.0000 </r>
       <r>    2.4830    1.0000 </r>
       <r>    2.5002    1.0000 </r>
       <r>    2.6888    1.0000 </r>
       <r>    2.7362    1.0000 </r>
       <r>    2.9364    1.0000 </r>
       <r>    3.1469    1.0000 </r>
       <r>    3.4689    1.0000 </r>
       <r>    3.5562    1.0000 </r>
       <r>    3.6025    1.0000 </r>
       <r>    3.8345    0.0000 </r>
       <r>    4.1655    0.0000 </r>
       <r>    4.2555    0.0000 </r>
       <r>    4.5896    0.0000 </r>
       <r>    4.7094    0.0000 </r>
       <r>    4.9667    0.0000 </r>
      </set>
      <set comment="kpoint 12">
       <r>  -59.2844    1.0000 </r>
       <r>  -59.2843    1.0000 </r>
       <r>  -58.8046    1.0000 </r>
       <r>  -58.8042    1.0000 </r>
       <r>  -32.5927    1.0000 </r>
       <r>  -32.5921    1.0000 </r>
       <r>  -32.5656    1.0000 </r>
       <r>  -32.5639    1.0000 </r>
       <r>  -32.5577    1.0000 </r>
       <r>  -32.5560    1.0000 </r>
       <r>  -32.2194    1.0000 </r>
       <r>  -32.2119    1.0000 </r>
       <r>  -32.1611    1.0000 </r>
       <r>  -32.1603    1.0000 </r>
       <r>  -32.1527    1.0000 </r>
       <r>  -32.1520    1.0000 </r>
       <r>   -3.9871    1.0000 </r>
       <r>   -3.3447    1.0000 </r>
       <r>   -2.7142    1.0000 </r>
       <r>   -1.7704    1.0000 </r>
       <r>    0.6199    1.0000 </r>
       <r>    1.1990    1.0000 </r>
       <r>    1.8281    1.0000 </r>
       <r>    1.8710    1.0000 </r>
       <r>    1.9380    1.0000 </r>
       <r>    2.0661    1.0000 </r>
       <r>    2.4295    1.0000 </r>
       <r>    2.6487    1.0000 </r>
       <r>    2.7588    1.0000 </r>
       <r>    2.8026    1.0000 </r>
       <r>    2.9687    1.0000 </r>
       <r>    3.0321    1.0000 </r>
       <r>    3.0628    1.0000 </r>
       <r>    3.1346    1.0000 </r>
       <r>    3.4874    1.0000 </r>
       <r>    3.6407    1.0000 </r>
       <r>    3.7958    0.0013 </r>
       <r>    4.0872    0.0000 </r>
       <r>    4.2787    0.0000 </r>
       <r>    4.4855    0.0000 </r>
       <r>    4.6271    0.0000 </r>
       <r>    4.8541    0.0000 </r>
      </set>
      <set comment="kpoint 13">
       <r>  -59.2843    1.0000 </r>
       <r>  -59.2843    1.0000 </r>
       <r>  -58.8046    1.0000 </r>
       <r>  -58.8042    1.0000 </r>
       <r>  -32.5926    1.0000 </r>
       <r>  -32.5922    1.0000 </r>
       <r>  -32.5653    1.0000 </r>
       <r>  -32.5642    1.0000 </r>
       <r>  -32.5574    1.0000 </r>
       <r>  -32.5562    1.0000 </r>
       <r>  -32.2212    1.0000 </r>
       <r>  -32.2101    1.0000 </r>
       <r>  -32.1612    1.0000 </r>
       <r>  -32.1602    1.0000 </r>
       <r>  -32.1528    1.0000 </r>
       <r>  -32.1519    1.0000 </r>
       <r>   -4.3210    1.0000 </r>
       <r>   -2.8208    1.0000 </r>
       <r>   -2.6710    1.0000 </r>
       <r>   -1.7215    1.0000 </r>
       <r>    0.2632    1.0000 </r>
       <r>    0.8428    1.0000 </r>
       <r>    1.5475    1.0000 </r>
       <r>    1.8710    1.0000 </r>
       <r>    2.0693    1.0000 </r>
       <r>    2.1744    1.0000 </r>
       <r>    2.3542    1.0000 </r>
       <r>    2.5869    1.0000 </r>
       <r>    2.8338    1.0000 </r>
       <r>    2.9413    1.0000 </r>
       <r>    2.9877    1.0000 </r>
       <r>    3.1344    1.0000 </r>
       <r>    3.2191    1.0000 </r>
       <r>    3.3744    1.0000 </r>
       <r>    3.6041    1.0000 </r>
       <r>    3.6325    1.0000 </r>
       <r>    3.6359    1.0000 </r>
       <r>    4.0053    0.0000 </r>
       <r>    4.1053    0.0000 </r>
       <r>    4.8122    0.0000 </r>
       <r>    4.8894    0.0000 </r>
       <r>    5.1911    0.0000 </r>
      </set>
      <set comment="kpoint 14">
       <r>  -59.2844    1.0000 </r>
       <r>  -59.2842    1.0000 </r>
       <r>  -58.8045    1.0000 </r>
       <r>  -58.8042    1.0000 </r>
       <r>  -32.5926    1.0000 </r>
       <r>  -32.5924    1.0000 </r>
       <r>  -32.5674    1.0000 </r>
       <r>  -32.5658    1.0000 </r>
       <r>  -32.5635    1.0000 </r>
       <r>  -32.5620    1.0000 </r>
       <r>  -32.2218    1.0000 </r>
       <r>  -32.2093    1.0000 </r>
       <r>  -32.1545    1.0000 </r>
       <r>  -32.1528    1.0000 </r>
       <r>  -32.1521    1.0000 </r>
       <r>  -32.1503    1.0000 </r>
       <r>   -4.5578    1.0000 </r>
       <r>   -2.5154    1.0000 </r>
       <r>   -2.4751    1.0000 </r>
       <r>   -1.6342    1.0000 </r>
       <r>    0.1280    1.0000 </r>
       <r>    0.7086    1.0000 </r>
       <r>    1.2926    1.0000 </r>
       <r>    1.3907    1.0000 </r>
       <r>    1.6640    1.0000 </r>
       <r>    2.2499    1.0000 </r>
       <r>    2.4123    1.0000 </r>
       <r>    2.5525    1.0000 </r>
       <r>    2.5560    1.0000 </r>
       <r>    2.9178    1.0000 </r>
       <r>    3.2386    1.0000 </r>
       <r>    3.2416    1.0000 </r>
       <r>    3.3820    1.0000 </r>
       <r>    3.6351    1.0000 </r>
       <r>    3.6760    1.0000 </r>
       <r>    3.7336    0.9174 </r>
       <r>    3.7408    0.8103 </r>
       <r>    3.7787    0.0356 </r>
       <r>    4.2860    0.0000 </r>
       <r>    4.9280    0.0000 </r>
       <r>    4.9431    0.0000 </r>
       <r>    5.1251    0.0000 </r>
      </set>
      <set comment="kpoint 15">
       <r>  -59.2843    1.0000 </r>
       <r>  -59.2842    1.0000 </r>
       <r>  -58.8047    1.0000 </r>
       <r>  -58.8042    1.0000 </r>
       <r>  -32.5927    1.0000 </r>
       <r>  -32.5920    1.0000 </r>
       <r>  -32.5586    1.0000 </r>
       <r>  -32.5578    1.0000 </r>
       <r>  -32.5561    1.0000 </r>
       <r>  -32.5552    1.0000 </r>
       <r>  -32.2212    1.0000 </r>
       <r>  -32.2103    1.0000 </r>
       <r>  -32.1621    1.0000 </r>
       <r>  -32.1619    1.0000 </r>
       <r>  -32.1593    1.0000 </r>
       <r>  -32.1593    1.0000 </r>
       <r>   -4.1046    1.0000 </r>
       <r>   -2.9463    1.0000 </r>
       <r>   -2.8960    1.0000 </r>
       <r>   -1.7882    1.0000 </r>
       <r>    0.2406    1.0000 </r>
       <r>    0.8444    1.0000 </r>
       <r>    2.0952    1.0000 </r>
       <r>    2.1157    1.0000 </r>
       <r>    2.2301    1.0000 </r>
       <r>    2.4410    1.0000 </r>
       <r>    2.5714    1.0000 </r>
       <r>    2.7886    1.0000 </r>
       <r>    2.7949    1.0000 </r>
       <r>    2.8148    1.0000 </r>
       <r>    2.9834    1.0000 </r>
       <r>    3.0944    1.0000 </r>
       <r>    3.0979    1.0000 </r>
       <r>    3.1079    1.0000 </r>
       <r>    3.1614    1.0000 </r>
       <r>    3.5487    1.0000 </r>
       <r>    3.8509    0.0000 </r>
       <r>    3.9192    0.0000 </r>
       <r>    4.4574    0.0000 </r>
       <r>    4.5470    0.0000 </r>
       <r>    4.7980    0.0000 </r>
       <r>    4.9947    0.0000 </r>
      </set>
      <set comment="kpoint 16">
       <r>  -59.2843    1.0000 </r>
       <r>  -59.2843    1.0000 </r>
       <r>  -58.8047    1.0000 </r>
       <r>  -58.8042    1.0000 </r>
       <r>  -32.5927    1.0000 </r>
       <r>  -32.5920    1.0000 </r>
       <r>  -32.5583    1.0000 </r>
       <r>  -32.5581    1.0000 </r>
       <r>  -32.5557    1.0000 </r>
       <r>  -32.5556    1.0000 </r>
       <r>  -32.2219    1.0000 </r>
       <r>  -32.2096    1.0000 </r>
       <r>  -32.1622    1.0000 </r>
       <r>  -32.1618    1.0000 </r>
       <r>  -32.1596    1.0000 </r>
       <r>  -32.1590    1.0000 </r>
       <r>   -4.2321    1.0000 </r>
       <r>   -2.9162    1.0000 </r>
       <r>   -2.6549    1.0000 </r>
       <r>   -1.7953    1.0000 </r>
       <r>    0.1018    1.0000 </r>
       <r>    0.6819    1.0000 </r>
       <r>    2.0318    1.0000 </r>
       <r>    2.0572    1.0000 </r>
       <r>    2.2122    1.0000 </r>
       <r>    2.3063    1.0000 </r>
       <r>    2.7060    1.0000 </r>
       <r>    2.8078    1.0000 </r>
       <r>    2.8372    1.0000 </r>
       <r>    2.8712    1.0000 </r>
       <r>    2.9996    1.0000 </r>
       <r>    3.1330    1.0000 </r>
       <r>    3.1804    1.0000 </r>
       <r>    3.2650    1.0000 </r>
       <r>    3.3991    1.0000 </r>
       <r>    3.4710    1.0000 </r>
       <r>    3.5607    1.0000 </r>
       <r>    4.0195    0.0000 </r>
       <r>    4.1575    0.0000 </r>
       <r>    4.6404    0.0000 </r>
       <r>    4.7132    0.0000 </r>
       <r>    5.0742    0.0000 </r>
      </set>
      <set comment="kpoint 17">
       <r>  -59.2847    1.0000 </r>
       <r>  -59.2842    1.0000 </r>
       <r>  -58.8043    1.0000 </r>
       <r>  -58.8041    1.0000 </r>
       <r>  -32.5929    1.0000 </r>
       <r>  -32.5925    1.0000 </r>
       <r>  -32.5791    1.0000 </r>
       <r>  -32.5789    1.0000 </r>
       <r>  -32.5708    1.0000 </r>
       <r>  -32.5704    1.0000 </r>
       <r>  -32.2217    1.0000 </r>
       <r>  -32.2090    1.0000 </r>
       <r>  -32.1443    1.0000 </r>
       <r>  -32.1438    1.0000 </r>
       <r>  -32.1394    1.0000 </r>
       <r>  -32.1391    1.0000 </r>
       <r>   -4.8536    1.0000 </r>
       <r>   -2.2800    1.0000 </r>
       <r>   -2.0200    1.0000 </r>
       <r>   -1.3327    1.0000 </r>
       <r>    0.1625    1.0000 </r>
       <r>    0.5769    1.0000 </r>
       <r>    0.6172    1.0000 </r>
       <r>    0.7431    1.0000 </r>
       <r>    1.2834    1.0000 </r>
       <r>    2.1127    1.0000 </r>
       <r>    2.1838    1.0000 </r>
       <r>    2.3017    1.0000 </r>
       <r>    2.3440    1.0000 </r>
       <r>    2.9815    1.0000 </r>
       <r>    3.0501    1.0000 </r>
       <r>    3.2790    1.0000 </r>
       <r>    3.3353    1.0000 </r>
       <r>    3.3523    1.0000 </r>
       <r>    4.0722    0.0000 </r>
       <r>    4.0802    0.0000 </r>
       <r>    4.2499    0.0000 </r>
       <r>    4.4087    0.0000 </r>
       <r>    4.5295    0.0000 </r>
       <r>    4.6700    0.0000 </r>
       <r>    5.2922    0.0000 </r>
       <r>    5.5337    0.0000 </r>
      </set>
      <set comment="kpoint 18">
       <r>  -59.2846    1.0000 </r>
       <r>  -59.2842    1.0000 </r>
       <r>  -58.8044    1.0000 </r>
       <r>  -58.8042    1.0000 </r>
       <r>  -32.5927    1.0000 </r>
       <r>  -32.5925    1.0000 </r>
       <r>  -32.5778    1.0000 </r>
       <r>  -32.5718    1.0000 </r>
       <r>  -32.5691    1.0000 </r>
       <r>  -32.5628    1.0000 </r>
       <r>  -32.2211    1.0000 </r>
       <r>  -32.2098    1.0000 </r>
       <r>  -32.1529    1.0000 </r>
       <r>  -32.1492    1.0000 </r>
       <r>  -32.1434    1.0000 </r>
       <r>  -32.1399    1.0000 </r>
       <r>   -4.6763    1.0000 </r>
       <r>   -2.5953    1.0000 </r>
       <r>   -2.1682    1.0000 </r>
       <r>   -1.5334    1.0000 </r>
       <r>    0.3242    1.0000 </r>
       <r>    0.6864    1.0000 </r>
       <r>    0.9323    1.0000 </r>
       <r>    1.2668    1.0000 </r>
       <r>    1.4488    1.0000 </r>
       <r>    2.1192    1.0000 </r>
       <r>    2.2115    1.0000 </r>
       <r>    2.2462    1.0000 </r>
       <r>    2.6525    1.0000 </r>
       <r>    2.7457    1.0000 </r>
       <r>    2.8554    1.0000 </r>
       <r>    3.0542    1.0000 </r>
       <r>    3.6704    1.0000 </r>
       <r>    3.8064    0.0001 </r>
       <r>    3.8175    0.0000 </r>
       <r>    3.8184    0.0000 </r>
       <r>    4.0559    0.0000 </r>
       <r>    4.0608    0.0000 </r>
       <r>    4.3972    0.0000 </r>
       <r>    4.6404    0.0000 </r>
       <r>    4.8570    0.0000 </r>
       <r>    5.5026    0.0000 </r>
      </set>
      <set comment="kpoint 19">
       <r>  -59.2844    1.0000 </r>
       <r>  -59.2843    1.0000 </r>
       <r>  -58.8044    1.0000 </r>
       <r>  -58.8042    1.0000 </r>
       <r>  -32.5926    1.0000 </r>
       <r>  -32.5925    1.0000 </r>
       <r>  -32.5759    1.0000 </r>
       <r>  -32.5735    1.0000 </r>
       <r>  -32.5590    1.0000 </r>
       <r>  -32.5564    1.0000 </r>
       <r>  -32.2194    1.0000 </r>
       <r>  -32.2117    1.0000 </r>
       <r>  -32.1607    1.0000 </r>
       <r>  -32.1590    1.0000 </r>
       <r>  -32.1425    1.0000 </r>
       <r>  -32.1410    1.0000 </r>
       <r>   -4.3322    1.0000 </r>
       <r>   -3.1651    1.0000 </r>
       <r>   -2.2810    1.0000 </r>
       <r>   -1.7269    1.0000 </r>
       <r>    0.6830    1.0000 </r>
       <r>    0.9121    1.0000 </r>
       <r>    1.4779    1.0000 </r>
       <r>    1.6665    1.0000 </r>
       <r>    1.7674    1.0000 </r>
       <r>    1.9886    1.0000 </r>
       <r>    2.1374    1.0000 </r>
       <r>    2.3102    1.0000 </r>
       <r>    2.6402    1.0000 </r>
       <r>    2.7468    1.0000 </r>
       <r>    2.8281    1.0000 </r>
       <r>    3.0885    1.0000 </r>
       <r>    3.3676    1.0000 </r>
       <r>    3.4429    1.0000 </r>
       <r>    3.5612    1.0000 </r>
       <r>    3.8760    0.0000 </r>
       <r>    4.0428    0.0000 </r>
       <r>    4.0722    0.0000 </r>
       <r>    4.1291    0.0000 </r>
       <r>    4.4849    0.0000 </r>
       <r>    4.7021    0.0000 </r>
       <r>    4.9417    0.0000 </r>
      </set>
      <set comment="kpoint 20">
       <r>  -59.2844    1.0000 </r>
       <r>  -59.2843    1.0000 </r>
       <r>  -58.8044    1.0000 </r>
       <r>  -58.8042    1.0000 </r>
       <r>  -32.5927    1.0000 </r>
       <r>  -32.5923    1.0000 </r>
       <r>  -32.5755    1.0000 </r>
       <r>  -32.5739    1.0000 </r>
       <r>  -32.5574    1.0000 </r>
       <r>  -32.5557    1.0000 </r>
       <r>  -32.2169    1.0000 </r>
       <r>  -32.2142    1.0000 </r>
       <r>  -32.1615    1.0000 </r>
       <r>  -32.1606    1.0000 </r>
       <r>  -32.1422    1.0000 </r>
       <r>  -32.1413    1.0000 </r>
       <r>   -3.8606    1.0000 </r>
       <r>   -3.7614    1.0000 </r>
       <r>   -2.2848    1.0000 </r>
       <r>   -1.8359    1.0000 </r>
       <r>    1.1669    1.0000 </r>
       <r>    1.2635    1.0000 </r>
       <r>    1.3166    1.0000 </r>
       <r>    1.6600    1.0000 </r>
       <r>    1.7784    1.0000 </r>
       <r>    2.0000    1.0000 </r>
       <r>    2.0353    1.0000 </r>
       <r>    2.5278    1.0000 </r>
       <r>    2.6165    1.0000 </r>
       <r>    2.8621    1.0000 </r>
       <r>    2.8859    1.0000 </r>
       <r>    3.0482    1.0000 </r>
       <r>    3.1396    1.0000 </r>
       <r>    3.3338    1.0000 </r>
       <r>    3.4355    1.0000 </r>
       <r>    3.5777    1.0000 </r>
       <r>    4.0183    0.0000 </r>
       <r>    4.0541    0.0000 </r>
       <r>    4.1314    0.0000 </r>
       <r>    4.3301    0.0000 </r>
       <r>    4.5894    0.0000 </r>
       <r>    5.0044    0.0000 </r>
      </set>
      <set comment="kpoint 21">
       <r>  -59.2846    1.0000 </r>
       <r>  -59.2842    1.0000 </r>
       <r>  -58.8043    1.0000 </r>
       <r>  -58.8042    1.0000 </r>
       <r>  -32.5929    1.0000 </r>
       <r>  -32.5923    1.0000 </r>
       <r>  -32.5775    1.0000 </r>
       <r>  -32.5720    1.0000 </r>
       <r>  -32.5664    1.0000 </r>
       <r>  -32.5607    1.0000 </r>
       <r>  -32.2170    1.0000 </r>
       <r>  -32.2139    1.0000 </r>
       <r>  -32.1552    1.0000 </r>
       <r>  -32.1520    1.0000 </r>
       <r>  -32.1432    1.0000 </r>
       <r>  -32.1402    1.0000 </r>
       <r>   -4.2747    1.0000 </r>
       <r>   -3.3251    1.0000 </r>
       <r>   -2.1233    1.0000 </r>
       <r>   -1.8649    1.0000 </r>
       <r>    0.9290    1.0000 </r>
       <r>    1.1330    1.0000 </r>
       <r>    1.5165    1.0000 </r>
       <r>    1.6677    1.0000 </r>
       <r>    1.8042    1.0000 </r>
       <r>    1.9278    1.0000 </r>
       <r>    2.1631    1.0000 </r>
       <r>    2.2141    1.0000 </r>
       <r>    2.2900    1.0000 </r>
       <r>    2.3497    1.0000 </r>
       <r>    2.6122    1.0000 </r>
       <r>    2.7710    1.0000 </r>
       <r>    3.5774    1.0000 </r>
       <r>    3.6868    1.0000 </r>
       <r>    3.7798    0.0302 </r>
       <r>    3.9159    0.0000 </r>
       <r>    4.0030    0.0000 </r>
       <r>    4.2404    0.0000 </r>
       <r>    4.2417    0.0000 </r>
       <r>    4.5491    0.0000 </r>
       <r>    4.7679    0.0000 </r>
       <r>    4.9139    0.0000 </r>
      </set>
      <set comment="kpoint 22">
       <r>  -59.2847    1.0000 </r>
       <r>  -59.2842    1.0000 </r>
       <r>  -58.8042    1.0000 </r>
       <r>  -58.8042    1.0000 </r>
       <r>  -32.5930    1.0000 </r>
       <r>  -32.5924    1.0000 </r>
       <r>  -32.5789    1.0000 </r>
       <r>  -32.5770    1.0000 </r>
       <r>  -32.5708    1.0000 </r>
       <r>  -32.5688    1.0000 </r>
       <r>  -32.2194    1.0000 </r>
       <r>  -32.2113    1.0000 </r>
       <r>  -32.1459    1.0000 </r>
       <r>  -32.1439    1.0000 </r>
       <r>  -32.1414    1.0000 </r>
       <r>  -32.1394    1.0000 </r>
       <r>   -4.6468    1.0000 </r>
       <r>   -2.8105    1.0000 </r>
       <r>   -1.8667    1.0000 </r>
       <r>   -1.7836    1.0000 </r>
       <r>    0.6262    1.0000 </r>
       <r>    0.7059    1.0000 </r>
       <r>    1.1326    1.0000 </r>
       <r>    1.3200    1.0000 </r>
       <r>    1.5627    1.0000 </r>
       <r>    2.0535    1.0000 </r>
       <r>    2.1479    1.0000 </r>
       <r>    2.2893    1.0000 </r>
       <r>    2.3248    1.0000 </r>
       <r>    2.3849    1.0000 </r>
       <r>    2.4731    1.0000 </r>
       <r>    2.5016    1.0000 </r>
       <r>    4.0659    0.0000 </r>
       <r>    4.1151    0.0000 </r>
       <r>    4.1674    0.0000 </r>
       <r>    4.1889    0.0000 </r>
       <r>    4.2143    0.0000 </r>
       <r>    4.2163    0.0000 </r>
       <r>    4.3686    0.0000 </r>
       <r>    4.4424    0.0000 </r>
       <r>    4.7333    0.0000 </r>
       <r>    4.9520    0.0000 </r>
      </set>
      <set comment="kpoint 23">
       <r>  -59.2847    1.0000 </r>
       <r>  -59.2842    1.0000 </r>
       <r>  -58.8042    1.0000 </r>
       <r>  -58.8041    1.0000 </r>
       <r>  -32.5930    1.0000 </r>
       <r>  -32.5924    1.0000 </r>
       <r>  -32.5823    1.0000 </r>
       <r>  -32.5794    1.0000 </r>
       <r>  -32.5733    1.0000 </r>
       <r>  -32.5702    1.0000 </r>
       <r>  -32.2210    1.0000 </r>
       <r>  -32.2095    1.0000 </r>
       <r>  -32.1442    1.0000 </r>
       <r>  -32.1410    1.0000 </r>
       <r>  -32.1390    1.0000 </r>
       <r>  -32.1359    1.0000 </r>
       <r>   -4.8446    1.0000 </r>
       <r>   -2.4072    1.0000 </r>
       <r>   -1.9084    1.0000 </r>
       <r>   -1.4027    1.0000 </r>
       <r>    0.3782    1.0000 </r>
       <r>    0.4335    1.0000 </r>
       <r>    0.6084    1.0000 </r>
       <r>    0.9942    1.0000 </r>
       <r>    1.2335    1.0000 </r>
       <r>    2.0796    1.0000 </r>
       <r>    2.1699    1.0000 </r>
       <r>    2.2247    1.0000 </r>
       <r>    2.3576    1.0000 </r>
       <r>    2.6487    1.0000 </r>
       <r>    2.6936    1.0000 </r>
       <r>    3.0934    1.0000 </r>
       <r>    3.6494    1.0000 </r>
       <r>    3.7147    0.9968 </r>
       <r>    4.1142    0.0000 </r>
[...]
       <r>    2.5969    1.0000 </r>
       <r>    2.6467    1.0000 </r>
       <r>    2.6963    1.0000 </r>
       <r>    3.5304    1.0000 </r>
       <r>    3.6248    1.0000 </r>
       <r>    4.2376    0.0000 </r>
       <r>    4.3437    0.0000 </r>
       <r>    4.3696    0.0000 </r>
       <r>    4.5497    0.0000 </r>
       <r>    5.0898    0.0000 </r>
       <r>    5.2401    0.0000 </r>
       <r>    5.3330    0.0000 </r>
      </set>
      <set comment="kpoint 115">
       <r>  -59.2848    1.0000 </r>
       <r>  -59.2842    1.0000 </r>
       <r>  -58.8046    1.0000 </r>
       <r>  -58.8038    1.0000 </r>
       <r>  -32.5938    1.0000 </r>
       <r>  -32.5918    1.0000 </r>
       <r>  -32.5819    1.0000 </r>
       <r>  -32.5818    1.0000 </r>
       <r>  -32.5719    1.0000 </r>
       <r>  -32.5717    1.0000 </r>
       <r>  -32.2205    1.0000 </r>
       <r>  -32.2101    1.0000 </r>
       <r>  -32.1421    1.0000 </r>
       <r>  -32.1418    1.0000 </r>
       <r>  -32.1370    1.0000 </r>
       <r>  -32.1369    1.0000 </r>
       <r>   -3.8750    1.0000 </r>
       <r>   -3.6404    1.0000 </r>
       <r>   -2.6586    1.0000 </r>
       <r>   -0.3918    1.0000 </r>
       <r>   -0.2230    1.0000 </r>
       <r>    1.2366    1.0000 </r>
       <r>    1.3449    1.0000 </r>
       <r>    1.3511    1.0000 </r>
       <r>    1.4519    1.0000 </r>
       <r>    1.4534    1.0000 </r>
       <r>    1.5482    1.0000 </r>
       <r>    2.1206    1.0000 </r>
       <r>    2.2010    1.0000 </r>
       <r>    2.2581    1.0000 </r>
       <r>    2.3553    1.0000 </r>
       <r>    2.7416    1.0000 </r>
       <r>    2.7457    1.0000 </r>
       <r>    3.8623    0.0000 </r>
       <r>    3.8736    0.0000 </r>
       <r>    4.4159    0.0000 </r>
       <r>    4.4263    0.0000 </r>
       <r>    4.4721    0.0000 </r>
       <r>    4.6751    0.0000 </r>
       <r>    4.7607    0.0000 </r>
       <r>    4.7989    0.0000 </r>
       <r>    5.7064    0.0000 </r>
      </set>
      <set comment="kpoint 116">
       <r>  -59.2848    1.0000 </r>
       <r>  -59.2842    1.0000 </r>
       <r>  -58.8046    1.0000 </r>
       <r>  -58.8038    1.0000 </r>
       <r>  -32.5938    1.0000 </r>
       <r>  -32.5918    1.0000 </r>
       <r>  -32.5820    1.0000 </r>
       <r>  -32.5818    1.0000 </r>
       <r>  -32.5719    1.0000 </r>
       <r>  -32.5718    1.0000 </r>
       <r>  -32.2211    1.0000 </r>
       <r>  -32.2095    1.0000 </r>
       <r>  -32.1420    1.0000 </r>
       <r>  -32.1419    1.0000 </r>
       <r>  -32.1370    1.0000 </r>
       <r>  -32.1369    1.0000 </r>
       <r>   -3.9275    1.0000 </r>
       <r>   -3.5260    1.0000 </r>
       <r>   -2.7026    1.0000 </r>
       <r>   -0.5338    1.0000 </r>
       <r>    0.0097    1.0000 </r>
       <r>    1.0034    1.0000 </r>
       <r>    1.3128    1.0000 </r>
       <r>    1.3457    1.0000 </r>
       <r>    1.3831    1.0000 </r>
       <r>    1.5919    1.0000 </r>
       <r>    1.5949    1.0000 </r>
       <r>    2.1237    1.0000 </r>
       <r>    2.2005    1.0000 </r>
       <r>    2.2617    1.0000 </r>
       <r>    2.3623    1.0000 </r>
       <r>    2.5540    1.0000 </r>
       <r>    2.5591    1.0000 </r>
       <r>    3.8348    0.0000 </r>
       <r>    3.8458    0.0000 </r>
       <r>    4.4696    0.0000 </r>
       <r>    4.6367    0.0000 </r>
       <r>    4.6448    0.0000 </r>
       <r>    4.6717    0.0000 </r>
       <r>    4.8958    0.0000 </r>
       <r>    5.0617    0.0000 </r>
       <r>    5.7068    0.0000 </r>
      </set>
     </set>
    </set>
   </array>
  </eigenvalues>
  <separator name="orbital magnetization" >
   <v name="MAGDIPOLOUT">      0.00000000      0.00000000      0.00000000</v>
  </separator>
  <dos>
   <i name="efermi">      3.75321701 </i>
   <total>
    <array>
     <dimension dim="1">gridpoints</dimension>
     <dimension dim="2">spin</dimension>
     <field>energy</field>
     <field>total</field>
     <field>integrated</field>
     <set>
      <set comment="spin 1">
       <r>   -62.5469     0.0000     0.0000 </r>
       <r>   -62.3077     0.0000     0.0000 </r>
       <r>   -62.0684     0.0000     0.0000 </r>
       <r>   -61.8292     0.0000     0.0000 </r>
       <r>   -61.5900     0.0000     0.0000 </r>
       <r>   -61.3508     0.0000     0.0000 </r>
       <r>   -61.1116     0.0000     0.0000 </r>
       <r>   -60.8723     0.0000     0.0000 </r>
       <r>   -60.6331     0.0000     0.0000 </r>
       <r>   -60.3939     0.0000     0.0000 </r>
       <r>   -60.1547     0.0000     0.0000 </r>
       <r>   -59.9155     0.0000     0.0000 </r>
       <r>   -59.6762     0.0000     0.0000 </r>
       <r>   -59.4370     0.0000     0.0000 </r>
       <r>   -59.1978    16.7210     4.0000 </r>
       <r>   -58.9586     0.0000     4.0000 </r>
       <r>   -58.7194    16.7210     8.0000 </r>
       <r>   -58.4801     0.0000     8.0000 </r>
       <r>   -58.2409     0.0000     8.0000 </r>
       <r>   -58.0017     0.0000     8.0000 </r>
       <r>   -57.7625     0.0000     8.0000 </r>
       <r>   -57.5233     0.0000     8.0000 </r>
       <r>   -57.2840     0.0000     8.0000 </r>
       <r>   -57.0448     0.0000     8.0000 </r>
       <r>   -56.8056     0.0000     8.0000 </r>
       <r>   -56.5664     0.0000     8.0000 </r>
       <r>   -56.3272     0.0000     8.0000 </r>
       <r>   -56.0879     0.0000     8.0000 </r>
       <r>   -55.8487     0.0000     8.0000 </r>
       <r>   -55.6095     0.0000     8.0000 </r>
       <r>   -55.3703     0.0000     8.0000 </r>
       <r>   -55.1311     0.0000     8.0000 </r>
       <r>   -54.8918     0.0000     8.0000 </r>
       <r>   -54.6526     0.0000     8.0000 </r>
       <r>   -54.4134     0.0000     8.0000 </r>
       <r>   -54.1742     0.0000     8.0000 </r>
       <r>   -53.9350     0.0000     8.0000 </r>
       <r>   -53.6957     0.0000     8.0000 </r>
       <r>   -53.4565     0.0000     8.0000 </r>
       <r>   -53.2173     0.0000     8.0000 </r>
       <r>   -52.9781     0.0000     8.0000 </r>
       <r>   -52.7389     0.0000     8.0000 </r>
       <r>   -52.4996     0.0000     8.0000 </r>
       <r>   -52.2604     0.0000     8.0000 </r>
       <r>   -52.0212     0.0000     8.0000 </r>
       <r>   -51.7820     0.0000     8.0000 </r>
       <r>   -51.5428     0.0000     8.0000 </r>
       <r>   -51.3035     0.0000     8.0000 </r>
       <r>   -51.0643     0.0000     8.0000 </r>
       <r>   -50.8251     0.0000     8.0000 </r>
       <r>   -50.5859     0.0000     8.0000 </r>
       <r>   -50.3467     0.0000     8.0000 </r>
       <r>   -50.1074     0.0000     8.0000 </r>
       <r>   -49.8682     0.0000     8.0000 </r>
       <r>   -49.6290     0.0000     8.0000 </r>
       <r>   -49.3898     0.0000     8.0000 </r>
       <r>   -49.1506     0.0000     8.0000 </r>
       <r>   -48.9114     0.0000     8.0000 </r>
       <r>   -48.6721     0.0000     8.0000 </r>
       <r>   -48.4329     0.0000     8.0000 </r>
       <r>   -48.1937     0.0000     8.0000 </r>
       <r>   -47.9545     0.0000     8.0000 </r>
       <r>   -47.7153     0.0000     8.0000 </r>
       <r>   -47.4760     0.0000     8.0000 </r>
       <r>   -47.2368     0.0000     8.0000 </r>
       <r>   -46.9976     0.0000     8.0000 </r>
       <r>   -46.7584     0.0000     8.0000 </r>
       <r>   -46.5192     0.0000     8.0000 </r>
       <r>   -46.2799     0.0000     8.0000 </r>
       <r>   -46.0407     0.0000     8.0000 </r>
       <r>   -45.8015     0.0000     8.0000 </r>
       <r>   -45.5623     0.0000     8.0000 </r>
       <r>   -45.3231     0.0000     8.0000 </r>
       <r>   -45.0838     0.0000     8.0000 </r>
       <r>   -44.8446     0.0000     8.0000 </r>
       <r>   -44.6054     0.0000     8.0000 </r>
       <r>   -44.3662     0.0000     8.0000 </r>
       <r>   -44.1270     0.0000     8.0000 </r>
       <r>   -43.8877     0.0000     8.0000 </r>
       <r>   -43.6485     0.0000     8.0000 </r>
       <r>   -43.4093     0.0000     8.0000 </r>
       <r>   -43.1701     0.0000     8.0000 </r>
       <r>   -42.9309     0.0000     8.0000 </r>
       <r>   -42.6916     0.0000     8.0000 </r>
       <r>   -42.4524     0.0000     8.0000 </r>
       <r>   -42.2132     0.0000     8.0000 </r>
       <r>   -41.9740     0.0000     8.0000 </r>
       <r>   -41.7348     0.0000     8.0000 </r>
       <r>   -41.4955     0.0000     8.0000 </r>
       <r>   -41.2563     0.0000     8.0000 </r>
       <r>   -41.0171     0.0000     8.0000 </r>
       <r>   -40.7779     0.0000     8.0000 </r>
       <r>   -40.5387     0.0000     8.0000 </r>
       <r>   -40.2994     0.0000     8.0000 </r>
       <r>   -40.0602     0.0000     8.0000 </r>
       <r>   -39.8210     0.0000     8.0000 </r>
       <r>   -39.5818     0.0000     8.0000 </r>
       <r>   -39.3426     0.0000     8.0000 </r>
       <r>   -39.1033     0.0000     8.0000 </r>
       <r>   -38.8641     0.0000     8.0000 </r>
       <r>   -38.6249     0.0000     8.0000 </r>
       <r>   -38.3857     0.0000     8.0000 </r>
       <r>   -38.1465     0.0000     8.0000 </r>
       <r>   -37.9072     0.0000     8.0000 </r>
       <r>   -37.6680     0.0000     8.0000 </r>
       <r>   -37.4288     0.0000     8.0000 </r>
       <r>   -37.1896     0.0000     8.0000 </r>
       <r>   -36.9504     0.0000     8.0000 </r>
       <r>   -36.7111     0.0000     8.0000 </r>
       <r>   -36.4719     0.0000     8.0000 </r>
       <r>   -36.2327     0.0000     8.0000 </r>
       <r>   -35.9935     0.0000     8.0000 </r>
       <r>   -35.7543     0.0000     8.0000 </r>
       <r>   -35.5150     0.0000     8.0000 </r>
       <r>   -35.2758     0.0000     8.0000 </r>
       <r>   -35.0366     0.0000     8.0000 </r>
       <r>   -34.7974     0.0000     8.0000 </r>
       <r>   -34.5582     0.0000     8.0000 </r>
       <r>   -34.3189     0.0000     8.0000 </r>
       <r>   -34.0797     0.0000     8.0000 </r>
       <r>   -33.8405     0.0000     8.0000 </r>
       <r>   -33.6013     0.0000     8.0000 </r>
       <r>   -33.3621     0.0000     8.0000 </r>
       <r>   -33.1228     0.0000     8.0000 </r>
       <r>   -32.8836     0.0000     8.0000 </r>
       <r>   -32.6444     0.0021     8.0005 </r>
       <r>   -32.4052    14.8868    20.0000 </r>
       <r>   -32.1660    22.3076    25.3364 </r>
       <r>   -31.9267     0.0000    32.0000 </r>
       <r>   -31.6875     0.0000    32.0000 </r>
       <r>   -31.4483     0.0000    32.0000 </r>
       <r>   -31.2091     0.0000    32.0000 </r>
       <r>   -30.9699     0.0000    32.0000 </r>
       <r>   -30.7306     0.0000    32.0000 </r>
       <r>   -30.4914     0.0000    32.0000 </r>
       <r>   -30.2522     0.0000    32.0000 </r>
       <r>   -30.0130     0.0000    32.0000 </r>
       <r>   -29.7738     0.0000    32.0000 </r>
       <r>   -29.5345     0.0000    32.0000 </r>
       <r>   -29.2953     0.0000    32.0000 </r>
       <r>   -29.0561     0.0000    32.0000 </r>
       <r>   -28.8169     0.0000    32.0000 </r>
       <r>   -28.5777     0.0000    32.0000 </r>
       <r>   -28.3384     0.0000    32.0000 </r>
       <r>   -28.0992     0.0000    32.0000 </r>
       <r>   -27.8600     0.0000    32.0000 </r>
       <r>   -27.6208     0.0000    32.0000 </r>
       <r>   -27.3816     0.0000    32.0000 </r>
       <r>   -27.1424     0.0000    32.0000 </r>
       <r>   -26.9031     0.0000    32.0000 </r>
       <r>   -26.6639     0.0000    32.0000 </r>
       <r>   -26.4247     0.0000    32.0000 </r>
       <r>   -26.1855     0.0000    32.0000 </r>
       <r>   -25.9463     0.0000    32.0000 </r>
       <r>   -25.7070     0.0000    32.0000 </r>
       <r>   -25.4678     0.0000    32.0000 </r>
       <r>   -25.2286     0.0000    32.0000 </r>
       <r>   -24.9894     0.0000    32.0000 </r>
       <r>   -24.7502     0.0000    32.0000 </r>
       <r>   -24.5109     0.0000    32.0000 </r>
       <r>   -24.2717     0.0000    32.0000 </r>
       <r>   -24.0325     0.0000    32.0000 </r>
       <r>   -23.7933     0.0000    32.0000 </r>
       <r>   -23.5541     0.0000    32.0000 </r>
       <r>   -23.3148     0.0000    32.0000 </r>
       <r>   -23.0756     0.0000    32.0000 </r>
       <r>   -22.8364     0.0000    32.0000 </r>
       <r>   -22.5972     0.0000    32.0000 </r>
       <r>   -22.3580     0.0000    32.0000 </r>
       <r>   -22.1187     0.0000    32.0000 </r>
       <r>   -21.8795     0.0000    32.0000 </r>
       <r>   -21.6403     0.0000    32.0000 </r>
       <r>   -21.4011     0.0000    32.0000 </r>
       <r>   -21.1619     0.0000    32.0000 </r>
       <r>   -20.9226     0.0000    32.0000 </r>
       <r>   -20.6834     0.0000    32.0000 </r>
       <r>   -20.4442     0.0000    32.0000 </r>
       <r>   -20.2050     0.0000    32.0000 </r>
       <r>   -19.9658     0.0000    32.0000 </r>
       <r>   -19.7265     0.0000    32.0000 </r>
       <r>   -19.4873     0.0000    32.0000 </r>
       <r>   -19.2481     0.0000    32.0000 </r>
       <r>   -19.0089     0.0000    32.0000 </r>
       <r>   -18.7697     0.0000    32.0000 </r>
       <r>   -18.5304     0.0000    32.0000 </r>
       <r>   -18.2912     0.0000    32.0000 </r>
       <r>   -18.0520     0.0000    32.0000 </r>
       <r>   -17.8128     0.0000    32.0000 </r>
       <r>   -17.5736     0.0000    32.0000 </r>
       <r>   -17.3343     0.0000    32.0000 </r>
       <r>   -17.0951     0.0000    32.0000 </r>
       <r>   -16.8559     0.0000    32.0000 </r>
       <r>   -16.6167     0.0000    32.0000 </r>
       <r>   -16.3775     0.0000    32.0000 </r>
       <r>   -16.1382     0.0000    32.0000 </r>
       <r>   -15.8990     0.0000    32.0000 </r>
       <r>   -15.6598     0.0000    32.0000 </r>
       <r>   -15.4206     0.0000    32.0000 </r>
       <r>   -15.1814     0.0000    32.0000 </r>
       <r>   -14.9421     0.0000    32.0000 </r>
       <r>   -14.7029     0.0000    32.0000 </r>
       <r>   -14.4637     0.0000    32.0000 </r>
       <r>   -14.2245     0.0000    32.0000 </r>
       <r>   -13.9853     0.0000    32.0000 </r>
       <r>   -13.7460     0.0000    32.0000 </r>
       <r>   -13.5068     0.0000    32.0000 </r>
       <r>   -13.2676     0.0000    32.0000 </r>
       <r>   -13.0284     0.0000    32.0000 </r>
       <r>   -12.7892     0.0000    32.0000 </r>
       <r>   -12.5499     0.0000    32.0000 </r>
       <r>   -12.3107     0.0000    32.0000 </r>
       <r>   -12.0715     0.0000    32.0000 </r>
       <r>   -11.8323     0.0000    32.0000 </r>
       <r>   -11.5931     0.0000    32.0000 </r>
       <r>   -11.3538     0.0000    32.0000 </r>
       <r>   -11.1146     0.0000    32.0000 </r>
       <r>   -10.8754     0.0000    32.0000 </r>
       <r>   -10.6362     0.0000    32.0000 </r>
       <r>   -10.3970     0.0000    32.0000 </r>
       <r>   -10.1577     0.0000    32.0000 </r>
       <r>    -9.9185     0.0000    32.0000 </r>
       <r>    -9.6793     0.0000    32.0000 </r>
       <r>    -9.4401     0.0000    32.0000 </r>
       <r>    -9.2009     0.0000    32.0000 </r>
       <r>    -8.9616     0.0000    32.0000 </r>
       <r>    -8.7224     0.0000    32.0000 </r>
       <r>    -8.4832     0.0000    32.0000 </r>
       <r>    -8.2440     0.0000    32.0000 </r>
       <r>    -8.0048     0.0000    32.0000 </r>
       <r>    -7.7655     0.0000    32.0000 </r>
       <r>    -7.5263     0.0000    32.0000 </r>
       <r>    -7.2871     0.0000    32.0000 </r>
       <r>    -7.0479     0.0000    32.0000 </r>
       <r>    -6.8087     0.0000    32.0000 </r>
       <r>    -6.5694     0.0000    32.0000 </r>
       <r>    -6.3302     0.0000    32.0000 </r>
       <r>    -6.0910     0.0000    32.0000 </r>
       <r>    -5.8518     0.0000    32.0000 </r>
       <r>    -5.6126     0.0000    32.0000 </r>
       <r>    -5.3734     0.0000    32.0000 </r>
       <r>    -5.1341     0.0000    32.0000 </r>
       <r>    -4.8949     0.0213    32.0051 </r>
       <r>    -4.6557     0.4275    32.1686 </r>
       <r>    -4.4165     0.8266    32.4477 </r>
       <r>    -4.1773     1.5729    32.9120 </r>
       <r>    -3.9380     1.7457    33.5809 </r>
       <r>    -3.6988     1.3908    34.1592 </r>
       <r>    -3.4596     1.2136    34.6373 </r>
       <r>    -3.2204     1.1509    35.0814 </r>
       <r>    -2.9812     0.8693    35.3916 </r>
       <r>    -2.7419     2.2839    36.0413 </r>
       <r>    -2.5027     2.2680    36.8895 </r>
       <r>    -2.2635     2.2663    37.5625 </r>
       <r>    -2.0243     1.3121    38.0231 </r>
       <r>    -1.7851     1.7163    38.5687 </r>
       <r>    -1.5458     0.7562    39.0432 </r>
       <r>    -1.3066     1.1883    39.4424 </r>
       <r>    -1.0674     0.6185    39.7143 </r>
       <r>    -0.8282     0.3860    39.8066 </r>
       <r>    -0.5890     0.2156    39.9087 </r>
       <r>    -0.3497     0.1812    40.0025 </r>
       <r>    -0.1105     0.6619    40.1890 </r>
       <r>     0.1287     1.1614    40.5023 </r>
       <r>     0.3679     1.4206    40.9113 </r>
       <r>     0.6071     0.6457    41.2055 </r>
       <r>     0.8464     3.0484    42.2547 </r>
       <r>     1.0856     3.1978    43.2956 </r>
       <r>     1.3248     4.3320    44.8526 </r>
       <r>     1.5640     5.2516    46.6798 </r>
       <r>     1.8032     6.7476    48.8744 </r>
       <r>     2.0425     5.2735    51.0319 </r>
       <r>     2.2817     8.5770    53.9600 </r>
       <r>     2.5209     8.7477    57.0314 </r>
       <r>     2.7601     7.8479    59.7753 </r>
       <r>     2.9993     9.0518    63.1909 </r>
       <r>     3.2386     6.4861    65.5465 </r>
       <r>     3.4778     5.1196    67.1176 </r>
       <r>     3.7170     7.6375    69.7199 </r>
       <r>     3.9562     8.6047    72.5125 </r>
       <r>     4.1954     8.2188    75.3335 </r>
       <r>     4.4347     5.2956    77.4913 </r>
       <r>     4.6739     6.7733    79.6917 </r>
       <r>     4.9131     6.1578    82.0853 </r>
       <r>     5.1523     2.2328    83.0954 </r>
       <r>     5.3915     1.2690    83.4668 </r>
       <r>     5.6308     1.1199    83.8444 </r>
       <r>     5.8700     0.1280    83.9388 </r>
       <r>     6.1092     0.1706    84.0000 </r>
       <r>     6.3484     0.0000    84.0000 </r>
       <r>     6.5876     0.0000    84.0000 </r>
       <r>     6.8269     0.0000    84.0000 </r>
       <r>     7.0661     0.0000    84.0000 </r>
       <r>     7.3053     0.0000    84.0000 </r>
       <r>     7.5445     0.0000    84.0000 </r>
       <r>     7.7837     0.0000    84.0000 </r>
       <r>     8.0230     0.0000    84.0000 </r>
       <r>     8.2622     0.0000    84.0000 </r>
       <r>     8.5014     0.0000    84.0000 </r>
       <r>     8.7406     0.0000    84.0000 </r>
       <r>     8.9798     0.0000    84.0000 </r>
       <r>     9.2191     0.0000    84.0000 </r>
      </set>
     </set>
    </array>
   </total>
  </dos>
 </calculation>
 <structure name="finalpos" >
  <crystal>
   <varray name="basis" >
    <v>       5.60142895       0.00000000      -3.28699596 </v>
    <v>      -1.83689662       5.29167432      -3.28699596 </v>
    <v>       0.00000000       0.00000000       6.49464000 </v>
   </varray>
   <i name="volume">    192.50722004 </i>
   <varray name="rec_basis" >
    <v>       0.17852587       0.06197161       0.00000000 </v>
    <v>       0.00000000       0.18897610       0.00000000 </v>
    <v>       0.09035356       0.12700690       0.15397312 </v>
   </varray>
  </crystal>
  <varray name="positions" >
   <v>       0.50000000       0.00000000       0.50000000 </v>
   <v>       0.00000000       0.50000000       0.50000000 </v>
   <v>       0.25000000       0.25000000       0.00000000 </v>
   <v>       0.75000000       0.25000000       0.50000000 </v>
   <v>       0.75000000       0.75000000       0.00000000 </v>
   <v>       0.25000000       0.75000000       0.50000000 </v>
   <v>       0.00000000       0.00000000       0.00000000 </v>
   <v>       0.50000000       0.50000000       0.00000000 </v>
  </varray>
 </structure>
</modeling>
