<?xml version="1.0" encoding="ISO-8859-1"?>
<modeling>
 <generator>
  <i name="program" type="string">vasp </i>
  <i name="version" type="string">6.2.0  </i>
  <i name="subversion" type="string">18Jan21 (build Jan 05 2022 15:41:44) complex                          parallel </i>
  <i name="platform" type="string">LinuxIFC </i>
  <i name="date" type="string">2025 05 07 </i>
  <i name="time" type="string">21:23:50 </i>
 </generator>
 <incar>
  <i type="string" name="SYSTEM">routine with relax: pwdword</i>
  <i type="string" name="PREC">Acc</i>
  <i type="int" name="IALGO">    38</i>
  <i type="string" name="ALGO">A</i>
  <i type="logical" name="ADDGRID"> T  </i>
  <i type="int" name="ICHARG">     2</i>
  <i type="int" name="NELM">   100</i>
  <i type="int" name="NELMIN">     6</i>
  <i name="EDIFF">      0.00000000</i>
  <i type="int" name="NSW">     0</i>
  <i type="int" name="ISIF">    -1</i>
  <i name="ENCUT">    600.00000000</i>
  <i type="logical" name="LREAL"> F  </i>
  <i type="int" name="ISMEAR">     0</i>
  <i name="SIGMA">      0.02000000</i>
  <i type="logical" name="LASPH"> T  </i>
  <i type="string" name="METAGGA">R2SCAN</i>
  <i type="logical" name="LMIXTAU"> F  </i>
 </incar>
 <primitive_cell>
  <structure name="primitive_cell" >
   <crystal>
    <varray name="basis" >
     <v>       4.28046410      -0.00172243       2.66533213 </v>
     <v>       1.47931971       4.01671422       2.66533213 </v>
     <v>      -0.00247162      -0.00172244       5.04245687 </v>
    </varray>
    <i name="volume">     86.74916330 </i>
    <varray name="rec_basis" >
     <v>       0.23353192      -0.08606416       0.00008507 </v>
     <v>       0.00004720       0.24888590       0.00008504 </v>
     <v>      -0.12346480      -0.08606400       0.19822611 </v>
    </varray>
   </crystal>
   <varray name="positions" >
    <v>       0.00997004       0.65428512       0.00997004 </v>
    <v>       0.00997004       0.00997004       0.65428512 </v>
    <v>       0.65428512       0.00997004       0.00997004 </v>
    <v>       0.34571488       0.99002996       0.99002996 </v>
    <v>       0.99002996       0.34571488       0.99002996 </v>
    <v>       0.99002996       0.99002996       0.34571488 </v>
    <v>       0.22056557       0.63163483       0.22056557 </v>
    <v>       0.22056557       0.22056557       0.63163483 </v>
    <v>       0.63163483       0.22056557       0.22056557 </v>
    <v>       0.36836517       0.77943443       0.77943443 </v>
    <v>       0.77943443       0.36836517       0.77943443 </v>
    <v>       0.77943443       0.77943443       0.36836517 </v>
   </varray>
  </structure>
  <varray name="primitive_index" >
   <v type="int" >        1 </v>
   <v type="int" >        2 </v>
   <v type="int" >        3 </v>
   <v type="int" >        4 </v>
   <v type="int" >        5 </v>
   <v type="int" >        6 </v>
   <v type="int" >        7 </v>
   <v type="int" >        8 </v>
   <v type="int" >        9 </v>
   <v type="int" >       10 </v>
   <v type="int" >       11 </v>
   <v type="int" >       12 </v>
  </varray>
 </primitive_cell>
 <kpoints>
  <generation param="Gamma">
   <v type="int" name="divisions">       9        9        9 </v>
   <v name="usershift">      0.00000000       0.00000000       0.00000000 </v>
   <v name="genvec1">      0.11111111      -0.00000000       0.00000000 </v>
   <v name="genvec2">      0.00000000       0.11111111       0.00000000 </v>
   <v name="genvec3">      0.00000000       0.00000000       0.11111111 </v>
   <v name="shift">      0.00000000       0.00000000       0.00000000 </v>
  </generation>
  <varray name="kpointlist" >
   <v>       0.00000000       0.00000000       0.00000000 </v>
   <v>       0.11111111      -0.00000000       0.00000000 </v>
   <v>       0.22222222      -0.00000000       0.00000000 </v>
   <v>       0.33333333      -0.00000000       0.00000000 </v>
   <v>       0.44444444      -0.00000000       0.00000000 </v>
   <v>       0.11111111       0.11111111       0.00000000 </v>
   <v>       0.22222222       0.11111111      -0.00000000 </v>
   <v>       0.33333333       0.11111111       0.00000000 </v>
   <v>       0.44444444       0.11111111      -0.00000000 </v>
   <v>      -0.44444444       0.11111111      -0.00000000 </v>
   <v>      -0.33333333       0.11111111       0.00000000 </v>
   <v>      -0.22222222       0.11111111      -0.00000000 </v>
   <v>      -0.11111111       0.11111111      -0.00000000 </v>
   <v>       0.22222222       0.22222222       0.00000000 </v>
   <v>       0.33333333       0.22222222      -0.00000000 </v>
   <v>       0.44444444       0.22222222      -0.00000000 </v>
   <v>      -0.44444444       0.22222222      -0.00000000 </v>
   <v>      -0.33333333       0.22222222      -0.00000000 </v>
   <v>      -0.22222222       0.22222222      -0.00000000 </v>
   <v>       0.33333333       0.33333333       0.00000000 </v>
   <v>       0.44444444       0.33333333       0.00000000 </v>
   <v>      -0.44444444       0.33333333      -0.00000000 </v>
   <v>      -0.33333333       0.33333333      -0.00000000 </v>
   <v>       0.44444444       0.44444444       0.00000000 </v>
   <v>      -0.44444444       0.44444444      -0.00000000 </v>
   <v>       0.11111111       0.11111111       0.11111111 </v>
   <v>       0.22222222       0.11111111       0.11111111 </v>
   <v>       0.33333333       0.11111111       0.11111111 </v>
   <v>       0.44444444       0.11111111       0.11111111 </v>
   <v>      -0.44444444       0.11111111       0.11111111 </v>
   <v>      -0.33333333       0.11111111       0.11111111 </v>
   <v>      -0.22222222       0.11111111       0.11111111 </v>
   <v>      -0.11111111       0.11111111       0.11111111 </v>
   <v>       0.22222222       0.22222222       0.11111111 </v>
   <v>       0.33333333       0.22222222       0.11111111 </v>
   <v>       0.44444444       0.22222222       0.11111111 </v>
   <v>      -0.44444444       0.22222222       0.11111111 </v>
   <v>      -0.33333333       0.22222222       0.11111111 </v>
   <v>      -0.22222222       0.22222222       0.11111111 </v>
   <v>      -0.11111111       0.22222222       0.11111111 </v>
   <v>       0.33333333       0.33333333       0.11111111 </v>
   <v>       0.44444444       0.33333333       0.11111111 </v>
   <v>      -0.44444444       0.33333333       0.11111111 </v>
   <v>      -0.33333333       0.33333333       0.11111111 </v>
   <v>      -0.22222222       0.33333333       0.11111111 </v>
   <v>      -0.11111111       0.33333333       0.11111111 </v>
   <v>       0.44444444       0.44444444       0.11111111 </v>
   <v>      -0.44444444       0.44444444       0.11111111 </v>
   <v>      -0.33333333       0.44444444       0.11111111 </v>
   <v>      -0.22222222       0.44444444       0.11111111 </v>
   <v>      -0.11111111       0.44444444       0.11111111 </v>
   <v>      -0.44444444      -0.44444444       0.11111111 </v>
   <v>      -0.33333333      -0.44444444       0.11111111 </v>
   <v>      -0.22222222      -0.44444444       0.11111111 </v>
   <v>      -0.33333333      -0.33333333       0.11111111 </v>
   <v>      -0.22222222      -0.33333333       0.11111111 </v>
   <v>      -0.22222222      -0.22222222       0.11111111 </v>
   <v>       0.22222222       0.22222222       0.22222222 </v>
   <v>       0.33333333       0.22222222       0.22222222 </v>
   <v>       0.44444444       0.22222222       0.22222222 </v>
   <v>      -0.44444444       0.22222222       0.22222222 </v>
   <v>      -0.33333333       0.22222222       0.22222222 </v>
   <v>      -0.22222222       0.22222222       0.22222222 </v>
   <v>       0.33333333       0.33333333       0.22222222 </v>
   <v>       0.44444444       0.33333333       0.22222222 </v>
   <v>      -0.44444444       0.33333333       0.22222222 </v>
   <v>      -0.33333333       0.33333333       0.22222222 </v>
   <v>      -0.22222222       0.33333333       0.22222222 </v>
   <v>       0.44444444       0.44444444       0.22222222 </v>
   <v>      -0.44444444       0.44444444       0.22222222 </v>
   <v>      -0.33333333       0.44444444       0.22222222 </v>
   <v>      -0.22222222       0.44444444       0.22222222 </v>
   <v>      -0.44444444      -0.44444444       0.22222222 </v>
   <v>      -0.33333333      -0.44444444       0.22222222 </v>
   <v>      -0.33333333      -0.33333333       0.22222222 </v>
   <v>       0.33333333       0.33333333       0.33333333 </v>
   <v>       0.44444444       0.33333333       0.33333333 </v>
   <v>      -0.44444444       0.33333333       0.33333333 </v>
   <v>      -0.33333333       0.33333333       0.33333333 </v>
   <v>       0.44444444       0.44444444       0.33333333 </v>
   <v>      -0.44444444       0.44444444       0.33333333 </v>
   <v>      -0.33333333       0.44444444       0.33333333 </v>
   <v>      -0.44444444      -0.44444444       0.33333333 </v>
   <v>       0.44444444       0.44444444       0.44444444 </v>
   <v>      -0.44444444       0.44444444       0.44444444 </v>
  </varray>
  <varray name="weights" >
   <v>       0.00137174 </v>
   <v>       0.00823045 </v>
   <v>       0.00823045 </v>
   <v>       0.00823045 </v>
   <v>       0.00823045 </v>
   <v>       0.00823045 </v>
   <v>       0.01646091 </v>
   <v>       0.01646091 </v>
   <v>       0.01646091 </v>
   <v>       0.01646091 </v>
   <v>       0.01646091 </v>
   <v>       0.01646091 </v>
   <v>       0.00823045 </v>
   <v>       0.00823045 </v>
   <v>       0.01646091 </v>
   <v>       0.01646091 </v>
   <v>       0.01646091 </v>
   <v>       0.01646091 </v>
   <v>       0.00823045 </v>
   <v>       0.00823045 </v>
   <v>       0.01646091 </v>
   <v>       0.01646091 </v>
   <v>       0.00823045 </v>
   <v>       0.00823045 </v>
   <v>       0.00823045 </v>
   <v>       0.00274348 </v>
   <v>       0.00823045 </v>
   <v>       0.00823045 </v>
   <v>       0.00823045 </v>
   <v>       0.00823045 </v>
   <v>       0.00823045 </v>
   <v>       0.00823045 </v>
   <v>       0.00823045 </v>
   <v>       0.00823045 </v>
   <v>       0.01646091 </v>
   <v>       0.01646091 </v>
   <v>       0.01646091 </v>
   <v>       0.01646091 </v>
   <v>       0.01646091 </v>
   <v>       0.01646091 </v>
   <v>       0.00823045 </v>
   <v>       0.01646091 </v>
   <v>       0.01646091 </v>
   <v>       0.01646091 </v>
   <v>       0.01646091 </v>
   <v>       0.01646091 </v>
   <v>       0.00823045 </v>
   <v>       0.01646091 </v>
   <v>       0.01646091 </v>
   <v>       0.01646091 </v>
   <v>       0.01646091 </v>
   <v>       0.00823045 </v>
   <v>       0.01646091 </v>
   <v>       0.01646091 </v>
   <v>       0.00823045 </v>
   <v>       0.01646091 </v>
   <v>       0.00823045 </v>
   <v>       0.00274348 </v>
   <v>       0.00823045 </v>
   <v>       0.00823045 </v>
   <v>       0.00823045 </v>
   <v>       0.00823045 </v>
   <v>       0.00823045 </v>
   <v>       0.00823045 </v>
   <v>       0.01646091 </v>
   <v>       0.01646091 </v>
   <v>       0.01646091 </v>
   <v>       0.01646091 </v>
   <v>       0.00823045 </v>
   <v>       0.01646091 </v>
   <v>       0.01646091 </v>
   <v>       0.01646091 </v>
   <v>       0.00823045 </v>
   <v>       0.01646091 </v>
   <v>       0.00823045 </v>
   <v>       0.00274348 </v>
   <v>       0.00823045 </v>
   <v>       0.00823045 </v>
   <v>       0.00823045 </v>
   <v>       0.00823045 </v>
   <v>       0.01646091 </v>
   <v>       0.01646091 </v>
   <v>       0.00823045 </v>
   <v>       0.00274348 </v>
   <v>       0.00823045 </v>
  </varray>
 </kpoints>
 <parameters>
  <separator name="general" >
   <i type="string" name="SYSTEM">routine with relax: pwdword</i>
   <i type="logical" name="LCOMPAT"> F  </i>
  </separator>
  <separator name="electronic" >
   <i type="string" name="PREC">acc</i>
   <i name="ENMAX">    600.00000000</i>
   <i name="ENAUG">    535.51400000</i>
   <i name="EDIFF">      0.00000000</i>
   <i type="int" name="IALGO">    58</i>
   <i type="int" name="IWAVPR">    10</i>
   <i type="int" name="NBANDS">    30</i>
   <i type="int" name="NBANDSLOW">    -1</i>
   <i type="int" name="NBANDSHIGH">    -1</i>
   <i name="NELECT">     36.00000000</i>
   <i type="int" name="TURBO">     0</i>
   <i type="int" name="IRESTART">     0</i>
   <i type="int" name="NREBOOT">     0</i>
   <i type="int" name="NMIN">     0</i>
   <i name="EREF">      0.00000000</i>
   <separator name="electronic smearing" >
    <i type="int" name="ISMEAR">     0</i>
    <i name="SIGMA">      0.02000000</i>
    <i name="KSPACING">      0.50000000</i>
    <i type="logical" name="KGAMMA"> T  </i>
    <i type="logical" name="KBLOWUP"> T  </i>
   </separator>
   <separator name="electronic projectors" >
    <i type="logical" name="LREAL"> F  </i>
    <v name="ROPT">      0.00000000</v>
    <i type="int" name="LMAXPAW">  -100</i>
    <i type="int" name="LMAXMIX">     2</i>
    <i type="logical" name="NLSPLINE"> F  </i>
   </separator>
   <separator name="electronic startup" >
    <i type="int" name="ISTART">     0</i>
    <i type="int" name="ICHARG">     2</i>
    <i type="int" name="INIWAV">     1</i>
   </separator>
   <separator name="electronic spin" >
    <i type="int" name="ISPIN">     1</i>
    <i type="logical" name="LNONCOLLINEAR"> F  </i>
    <v name="MAGMOM">      1.00000000      1.00000000      1.00000000      1.00000000      1.00000000      1.00000000      1.00000000      1.00000000      1.00000000      1.00000000      1.00000000      1.00000000</v>
    <i name="NUPDOWN">     -1.00000000</i>
    <i type="logical" name="LSORBIT"> F  </i>
    <v name="SAXIS">      0.00000000      0.00000000      1.00000000</v>
    <i type="logical" name="LSPIRAL"> F  </i>
    <v name="QSPIRAL">      0.00000000      0.00000000      0.00000000</v>
    <i type="logical" name="LZEROZ"> F  </i>
   </separator>
   <separator name="electronic exchange-correlation" >
    <i type="logical" name="LASPH"> T  </i>
    <i type="logical" name="LMETAGGA"> F  </i>
   </separator>
   <separator name="electronic convergence" >
    <i type="int" name="NELM">   100</i>
    <i type="int" name="NELMDL">    -5</i>
    <i type="int" name="NELMIN">     6</i>
    <i name="ENINI">    600.00000000</i>
    <separator name="electronic convergence detail" >
     <i type="logical" name="LDIAG"> T  </i>
     <i type="logical" name="LSUBROT"> F  </i>
     <i name="WEIMIN">      0.00000000</i>
     <i name="EBREAK">      0.00000000</i>
     <i name="DEPER">      0.30000000</i>
     <i type="int" name="NRMM">     4</i>
     <i name="TIME">      0.40000000</i>
    </separator>
   </separator>
   <separator name="electronic mixer" >
    <i name="AMIX">      0.40000000</i>
    <i name="BMIX">      1.00000000</i>
    <i name="AMIN">      0.10000000</i>
    <i name="AMIX_MAG">      1.60000000</i>
    <i name="BMIX_MAG">      1.00000000</i>
    <separator name="electronic mixer details" >
     <i type="int" name="IMIX">     4</i>
     <i type="logical" name="MIXFIRST"> F  </i>
     <i type="int" name="MAXMIX">   -45</i>
     <i name="WC">    100.00000000</i>
     <i type="int" name="INIMIX">     1</i>
     <i type="int" name="MIXPRE">     1</i>
     <i type="int" name="MREMOVE">     5</i>
    </separator>
   </separator>
   <separator name="electronic dipolcorrection" >
    <i type="logical" name="LDIPOL"> F  </i>
    <i type="logical" name="LMONO"> F  </i>
    <i type="int" name="IDIPOL">     0</i>
    <i name="EPSILON">      1.00000000</i>
    <v name="DIPOL">   -100.00000000   -100.00000000   -100.00000000</v>
    <i name="EFIELD">      0.00000000</i>
   </separator>
  </separator>
  <separator name="grids" >
   <i type="int" name="NGX">    40</i>
   <i type="int" name="NGY">    40</i>
   <i type="int" name="NGZ">    40</i>
   <i type="int" name="NGXF">    80</i>
   <i type="int" name="NGYF">    80</i>
   <i type="int" name="NGZF">    80</i>
   <i type="logical" name="ADDGRID"> T  </i>
  </separator>
  <separator name="ionic" >
   <i type="int" name="NSW">     0</i>
   <i type="int" name="IBRION">    -1</i>
   <i type="int" name="MDALGO">     0</i>
   <i type="int" name="ISIF">    -1</i>
   <i name="PSTRESS">      0.00000000</i>
   <i name="EDIFFG">      0.00000001</i>
   <i type="int" name="NFREE">     0</i>
   <i name="POTIM">      0.50000000</i>
   <i name="SMASS">     -3.00000000</i>
   <i name="SCALEE">      1.00000000</i>
  </separator>
  <separator name="ionic md" >
   <i name="TEBEG">      0.00010000</i>
   <i name="TEEND">      0.00010000</i>
   <i type="int" name="NBLOCK">     1</i>
   <i type="int" name="KBLOCK">     1</i>
   <i type="int" name="NPACO">   256</i>
   <i name="APACO">     16.00000000</i>
  </separator>
  <separator name="symmetry" >
   <i type="int" name="ISYM">     2</i>
   <i name="SYMPREC">      0.00001000</i>
  </separator>
  <separator name="dos" >
   <i type="int" name="LORBIT">     0</i>
   <v name="RWIGS">     -1.00000000</v>
   <i type="int" name="NEDOS">   301</i>
   <i name="EMIN">     10.00000000</i>
   <i name="EMAX">    -10.00000000</i>
   <i name="EFERMI">      0.00000000</i>
  </separator>
  <separator name="writing" >
   <i type="int" name="NWRITE">     2</i>
   <i type="logical" name="LWAVE"> T  </i>
   <i type="logical" name="LDOWNSAMPLE"> F  </i>
   <i type="logical" name="LCHARG"> T  </i>
   <i type="logical" name="LPARD"> F  </i>
   <i type="logical" name="LVTOT"> F  </i>
   <i type="logical" name="LVHAR"> F  </i>
   <i type="logical" name="LELF"> F  </i>
   <i type="logical" name="LOPTICS"> F  </i>
   <v name="STM">      0.00000000      0.00000000      0.00000000      0.00000000      0.00000000      0.00000000      0.00000000</v>
  </separator>
  <separator name="performance" >
   <i type="int" name="NPAR">     6</i>
   <i type="int" name="NSIM">     4</i>
   <i type="int" name="NBLK">    -1</i>
   <i type="logical" name="LPLANE"> T  </i>
   <i type="logical" name="LSCALAPACK"> T  </i>
   <i type="logical" name="LSCAAWARE"> F  </i>
   <i type="logical" name="LSCALU"> F  </i>
   <i type="logical" name="LASYNC"> F  </i>
   <i type="logical" name="LORBITALREAL"> F  </i>
  </separator>
  <separator name="miscellaneous" >
   <i type="int" name="IDIOT">     3</i>
   <i type="int" name="PHON_NSTRUCT">    -1</i>
   <i type="logical" name="LMUSIC"> F  </i>
   <v name="POMASS">     10.81100000</v>
   <v name="DARWINR">      0.00000000</v>
   <v name="DARWINV">      1.00000000</v>
   <i type="logical" name="LCORR"> T  </i>
  </separator>
  <i type="logical" name="GGA_COMPAT"> T  </i>
  <i type="logical" name="LBERRY"> F  </i>
  <i type="int" name="ICORELEVEL">     0</i>
  <i type="logical" name="LDAU"> F  </i>
  <i type="int" name="I_CONSTRAINED_M">     0</i>
  <separator name="electronic exchange-correlation" >
   <i type="string" name="GGA">--</i>
   <i type="int" name="VOSKOWN">     0</i>
   <i type="logical" name="LHFCALC"> F  </i>
   <i type="string" name="PRECFOCK"></i>
   <i type="logical" name="LSYMGRAD"> F  </i>
   <i type="logical" name="LHFONE"> F  </i>
   <i type="logical" name="LRHFCALC"> F  </i>
   <i type="logical" name="LTHOMAS"> F  </i>
   <i type="logical" name="LMODELHF"> F  </i>
   <i type="logical" name="LFOCKACE"> F  </i>
   <i name="ENCUT4O">     -1.00000000</i>
   <i type="int" name="EXXOEP">     0</i>
   <i type="int" name="FOURORBIT">     0</i>
   <i name="AEXX">      0.00000000</i>
   <i name="HFALPHA">      0.00000000</i>
   <i name="MCALPHA">      0.00000000</i>
   <i name="ALDAX">      1.00000000</i>
   <i name="AGGAX">      1.00000000</i>
   <i name="ALDAC">      1.00000000</i>
   <i name="AGGAC">      1.00000000</i>
   <i type="int" name="NKREDX">     1</i>
   <i type="int" name="NKREDY">     1</i>
   <i type="int" name="NKREDZ">     1</i>
   <i type="logical" name="SHIFTRED"> F  </i>
   <i type="logical" name="ODDONLY"> F  </i>
   <i type="logical" name="EVENONLY"> F  </i>
   <i type="int" name="LMAXFOCK">     0</i>
   <i type="int" name="NMAXFOCKAE">     0</i>
   <i type="logical" name="LFOCKAEDFT"> F  </i>
   <i name="HFSCREEN">      0.00000000</i>
   <i name="HFSCREENC">      0.00000000</i>
   <i type="int" name="NBANDSGWLOW">     0</i>
  </separator>
  <separator name="vdW DFT" >
   <i type="logical" name="LUSE_VDW"> F  </i>
   <i name="Zab_VDW">     -0.84910000</i>
   <i name="PARAM1">      0.12340000</i>
   <i name="PARAM2">      1.00000000</i>
   <i name="PARAM3">      0.00000000</i>
  </separator>
  <separator name="model GW" >
   <i type="int" name="MODEL_GW">     0</i>
   <i name="MODEL_EPS0">      4.33745817</i>
   <i name="MODEL_ALPHA">      1.00000000</i>
  </separator>
  <separator name="linear response parameters" >
   <i type="logical" name="LEPSILON"> F  </i>
   <i type="logical" name="LRPA"> F  </i>
   <i type="logical" name="LNABLA"> F  </i>
   <i type="logical" name="LVEL"> F  </i>
   <i type="int" name="KINTER">     0</i>
   <i name="CSHIFT">      0.10000000</i>
   <i name="OMEGAMAX">     -1.00000000</i>
   <i name="DEG_THRESHOLD">      0.00200000</i>
   <i name="RTIME">     -0.10000000</i>
   <i name="WPLASMAI">      0.00000000</i>
   <v name="DFIELD">      0.00000000      0.00000000      0.00000000</v>
   <v name="WPLASMA">      0.00000000      0.00000000      0.00000000      0.00000000      0.00000000      0.00000000      0.00000000      0.00000000      0.00000000</v>
  </separator>
  <separator name="orbital magnetization" >
   <i type="logical" name="NUCIND"> F  </i>
   <v name="MAGPOS">      0.00000000      0.00000000      0.00000000</v>
   <i type="logical" name="LNICSALL"> T  </i>
   <i type="logical" name="ORBITALMAG"> F  </i>
   <i type="logical" name="LMAGBLOCH"> F  </i>
   <i type="logical" name="LCHIMAG"> F  </i>
   <i type="logical" name="LGAUGE"> T  </i>
   <i type="int" name="MAGATOM">     0</i>
   <v name="MAGDIPOL">      0.00000000      0.00000000      0.00000000</v>
   <v name="AVECCONST">      0.00000000      0.00000000      0.00000000</v>
  </separator>
  <separator name="response functions" >
   <i type="logical" name="LFINITE_TEMPERATURE"> F  </i>
   <i type="logical" name="LADDER"> F  </i>
   <i type="logical" name="LRPAFORCE"> F  </i>
   <i type="logical" name="LFXC"> F  </i>
   <i type="logical" name="LHARTREE"> T  </i>
   <i type="int" name="IBSE">     0</i>
   <v type="int" name="KPOINT">    -1     0     0     0</v>
   <i type="logical" name="LTCTC"> F  </i>
   <i type="logical" name="LTCTE"> F  </i>
   <i type="logical" name="LTETE"> F  </i>
   <i type="logical" name="LTRIPLET"> F  </i>
   <i type="logical" name="LFXCEPS"> F  </i>
   <i type="logical" name="LFXHEG"> F  </i>
   <i type="int" name="NATURALO">     2</i>
   <i type="logical" name="LHOLEGF"> F  </i>
   <i type="logical" name="L2ORDER"> F  </i>
   <i type="logical" name="LDMP1"> F  </i>
   <i type="logical" name="LMP2LT"> F  </i>
   <i type="logical" name="LSMP2LT"> F  </i>
   <i type="logical" name="LGWLF"> F  </i>
   <i name="ENCUTGW">     -2.00000000</i>
   <i name="ENCUTGWSOFT">     -2.00000000</i>
   <i name="ENCUTLF">     -1.00000000</i>
   <i type="logical" name="LESF_SPLINES"> F  </i>
   <i type="int" name="LMAXMP2">    -1</i>
   <i name="SCISSOR">      0.00000000</i>
   <i type="int" name="NOMEGA">     0</i>
   <i type="int" name="NOMEGAR">     0</i>
   <i type="int" name="NBANDSGW">    -1</i>
   <i type="int" name="NBANDSO">    -1</i>
   <i type="int" name="NBANDSV">    -1</i>
   <i type="int" name="NELM">   100</i>
   <i type="int" name="NELMHF">     1</i>
   <i type="int" name="DIM">     3</i>
   <i type="int" name="IESPILON">     4</i>
   <i type="int" name="ANTIRES">     0</i>
   <i name="OMEGAMAX">    -30.00000000</i>
   <i name="OMEGAMIN">    -30.00000000</i>
   <i name="OMEGATL">   -200.00000000</i>
   <i type="int" name="OMEGAGRID">     0</i>
   <i name="CSHIFT">     -0.10000000</i>
   <i type="logical" name="LSELFENERGY"> F  </i>
   <i type="logical" name="LSPECTRAL"> F  </i>
   <i type="logical" name="LSPECTRALGW"> F  </i>
   <i type="logical" name="LSINGLES"> F  </i>
   <i type="logical" name="LFERMIGW"> F  </i>
   <i type="logical" name="ODDONLYGW"> F  </i>
   <i type="logical" name="EVENONLYGW"> F  </i>
   <i type="int" name="NKREDLFX">     1</i>
   <i type="int" name="NKREDLFY">     1</i>
   <i type="int" name="NKREDLFZ">     1</i>
   <i type="int" name="MAXMEM">  2800</i>
   <i type="int" name="TELESCOPE">     0</i>
   <i type="int" name="NTAUPAR">    -1</i>
   <i type="int" name="NOMEGAPAR">    -1</i>
   <i name="DAMP_NEWTON">      0.80000001</i>
   <i name="LAMBDA">      1.00000000</i>
  </separator>
  <separator name="External order field" >
   <i name="OFIELD_KAPPA">      0.00000000</i>
   <v name="OFIELD_K">      0.00000000      0.00000000      0.00000000</v>
   <i name="OFIELD_Q6_NEAR">      0.00000000</i>
   <i name="OFIELD_Q6_FAR">      0.00000000</i>
   <i name="OFIELD_A">      0.00000000</i>
  </separator>
 </parameters>
 <atominfo>
  <atoms>      12 </atoms>
  <types>       1 </types>
  <array name="atoms" >
   <dimension dim="1">ion</dimension>
   <field type="string">element</field>
   <field type="int">atomtype</field>
   <set>
    <rc><c>B </c><c>   1</c></rc>
    <rc><c>B </c><c>   1</c></rc>
    <rc><c>B </c><c>   1</c></rc>
    <rc><c>B </c><c>   1</c></rc>
    <rc><c>B </c><c>   1</c></rc>
    <rc><c>B </c><c>   1</c></rc>
    <rc><c>B </c><c>   1</c></rc>
    <rc><c>B </c><c>   1</c></rc>
    <rc><c>B </c><c>   1</c></rc>
    <rc><c>B </c><c>   1</c></rc>
    <rc><c>B </c><c>   1</c></rc>
    <rc><c>B </c><c>   1</c></rc>
   </set>
  </array>
  <array name="atomtypes" >
   <dimension dim="1">type</dimension>
   <field type="int">atomspertype</field>
   <field type="string">element</field>
   <field>mass</field>
   <field>valence</field>
   <field type="string">pseudopotential</field>
   <set>
    <rc><c>  12</c><c>B </c><c>     10.81100000</c><c>      3.00000000</c><c>  PAW_PBE B 06Sep2000                   </c></rc>
   </set>
  </array>
 </atominfo>
 <structure name="initialpos" >
  <crystal>
   <varray name="basis" >
    <v>       4.28046410      -0.00172243       2.66533213 </v>
    <v>       1.47931971       4.01671422       2.66533213 </v>
    <v>      -0.00247162      -0.00172244       5.04245687 </v>
   </varray>
   <i name="volume">     86.74916330 </i>
   <varray name="rec_basis" >
    <v>       0.23353192      -0.08606416       0.00008507 </v>
    <v>       0.00004720       0.24888590       0.00008504 </v>
    <v>      -0.12346480      -0.08606400       0.19822611 </v>
   </varray>
  </crystal>
  <varray name="positions" >
   <v>       0.00997004       0.65428512       0.00997004 </v>
   <v>       0.00997004       0.00997004       0.65428512 </v>
   <v>       0.65428512       0.00997004       0.00997004 </v>
   <v>       0.34571488       0.99002996       0.99002996 </v>
   <v>       0.99002996       0.34571488       0.99002996 </v>
   <v>       0.99002996       0.99002996       0.34571488 </v>
   <v>       0.22056557       0.63163483       0.22056557 </v>
   <v>       0.22056557       0.22056557       0.63163483 </v>
   <v>       0.63163483       0.22056557       0.22056557 </v>
   <v>       0.36836517       0.77943443       0.77943443 </v>
   <v>       0.77943443       0.36836517       0.77943443 </v>
   <v>       0.77943443       0.77943443       0.36836517 </v>
  </varray>
 </structure>
 <calculation>
  <scstep>
   <time name="total">    3.20    3.23</time>
   <energy>
    <i name="alphaZ">    114.19699731 </i>
    <i name="ewald">  -1014.00203843 </i>
    <i name="hartreedc">    -78.07728657 </i>
    <i name="XCdc">    107.24265819 </i>
    <i name="pawpsdc">    500.96964506 </i>
    <i name="pawaedc">   -506.20447866 </i>
    <i name="eentropy">     -0.00047288 </i>
    <i name="bandstr">     95.17861253 </i>
    <i name="atom">    854.03520903 </i>
    <i name="e_fr_energy">     73.33884558 </i>
    <i name="e_wo_entrp">     73.33931846 </i>
    <i name="e_0_energy">     73.33908202 </i>
   </energy>
  </scstep>
  <scstep>
   <time name="total">    3.29    3.32</time>
   <energy>
    <i name="e_fr_energy">    -92.58448714 </i>
    <i name="e_wo_entrp">    -92.58448714 </i>
    <i name="e_0_energy">    -92.58448714 </i>
   </energy>
  </scstep>
  <scstep>
   <time name="total">    3.27    3.29</time>
   <energy>
    <i name="e_fr_energy">    -97.58997862 </i>
    <i name="e_wo_entrp">    -97.58997862 </i>
    <i name="e_0_energy">    -97.58997862 </i>
   </energy>
  </scstep>
  <scstep>
   <time name="total">    3.34    3.37</time>
   <energy>
    <i name="e_fr_energy">    -97.61529402 </i>
    <i name="e_wo_entrp">    -97.61529402 </i>
    <i name="e_0_energy">    -97.61529402 </i>
   </energy>
  </scstep>
  <scstep>
   <time name="total">    3.60    3.63</time>
   <energy>
    <i name="e_fr_energy">    -97.61547054 </i>
    <i name="e_wo_entrp">    -97.61547054 </i>
    <i name="e_0_energy">    -97.61547054 </i>
   </energy>
  </scstep>
  <scstep>
   <time name="total">    4.03    4.06</time>
   <energy>
    <i name="e_fr_energy">    -84.57596513 </i>
    <i name="e_wo_entrp">    -84.57596513 </i>
    <i name="e_0_energy">    -84.57596513 </i>
   </energy>
  </scstep>
  <scstep>
   <time name="total">    4.02    4.05</time>
   <energy>
    <i name="e_fr_energy">    -87.79119892 </i>
    <i name="e_wo_entrp">    -87.79119892 </i>
    <i name="e_0_energy">    -87.79119892 </i>
   </energy>
  </scstep>
  <scstep>
   <time name="total">    4.01    4.04</time>
   <energy>
    <i name="e_fr_energy">    -88.08683519 </i>
    <i name="e_wo_entrp">    -88.08683519 </i>
    <i name="e_0_energy">    -88.08683519 </i>
   </energy>
  </scstep>
  <scstep>
   <time name="total">    3.96    3.99</time>
   <energy>
    <i name="e_fr_energy">    -88.13403508 </i>
    <i name="e_wo_entrp">    -88.13403508 </i>
    <i name="e_0_energy">    -88.13403508 </i>
   </energy>
  </scstep>
  <scstep>
   <time name="total">    4.01    4.04</time>
   <energy>
    <i name="e_fr_energy">    -88.14147440 </i>
    <i name="e_wo_entrp">    -88.14147440 </i>
    <i name="e_0_energy">    -88.14147440 </i>
   </energy>
  </scstep>
  <scstep>
   <time name="total">    4.04    4.07</time>
   <energy>
    <i name="e_fr_energy">    -88.14239827 </i>
    <i name="e_wo_entrp">    -88.14239827 </i>
    <i name="e_0_energy">    -88.14239827 </i>
   </energy>
  </scstep>
  <scstep>
   <time name="total">    4.00    4.03</time>
   <energy>
    <i name="e_fr_energy">    -88.14253026 </i>
    <i name="e_wo_entrp">    -88.14253026 </i>
    <i name="e_0_energy">    -88.14253026 </i>
   </energy>
  </scstep>
  <scstep>
   <time name="total">    3.98    4.01</time>
   <energy>
    <i name="e_fr_energy">    -88.14255125 </i>
    <i name="e_wo_entrp">    -88.14255125 </i>
    <i name="e_0_energy">    -88.14255125 </i>
   </energy>
  </scstep>
  <scstep>
   <time name="total">    4.02    4.05</time>
   <energy>
    <i name="e_fr_energy">    -88.14255413 </i>
    <i name="e_wo_entrp">    -88.14255413 </i>
    <i name="e_0_energy">    -88.14255413 </i>
   </energy>
  </scstep>
  <scstep>
   <time name="total">    4.01    4.04</time>
   <energy>
    <i name="e_fr_energy">    -88.14255456 </i>
    <i name="e_wo_entrp">    -88.14255456 </i>
    <i name="e_0_energy">    -88.14255456 </i>
   </energy>
  </scstep>
  <scstep>
   <time name="total">    3.99    4.02</time>
   <energy>
    <i name="e_fr_energy">    -88.14255464 </i>
    <i name="e_wo_entrp">    -88.14255464 </i>
    <i name="e_0_energy">    -88.14255464 </i>
   </energy>
  </scstep>
  <scstep>
   <time name="total">    3.97    4.00</time>
   <energy>
    <i name="e_fr_energy">    -88.14255465 </i>
    <i name="e_wo_entrp">    -88.14255465 </i>
    <i name="e_0_energy">    -88.14255465 </i>
   </energy>
  </scstep>
  <scstep>
   <time name="total">    3.96    3.99</time>
   <energy>
    <i name="e_fr_energy">    -88.14255465 </i>
    <i name="e_wo_entrp">    -88.14255465 </i>
    <i name="e_0_energy">    -88.14255465 </i>
   </energy>
  </scstep>
  <scstep>
   <time name="total">    4.05    4.08</time>
   <energy>
    <i name="e_fr_energy">    -88.14255465 </i>
    <i name="e_wo_entrp">    -88.14255465 </i>
    <i name="e_0_energy">    -88.14255465 </i>
   </energy>
  </scstep>
  <scstep>
   <time name="total">    4.51    4.54</time>
   <energy>
    <i name="alphaZ">    114.19699731 </i>
    <i name="ewald">  -1014.00203843 </i>
    <i name="hartreedc">   -112.46237733 </i>
    <i name="XCdc">    111.60144972 </i>
    <i name="pawpsdc">   3676.09018737 </i>
    <i name="pawaedc">  -3682.43379836 </i>
    <i name="eentropy">     -0.00000000 </i>
    <i name="bandstr">    -35.16818397 </i>
    <i name="atom">    854.03520903 </i>
    <i name="e_fr_energy">    -88.14255465 </i>
    <i name="e_wo_entrp">    -88.14255465 </i>
    <i name="e_0_energy">    -88.14255465 </i>
   </energy>
  </scstep>
  <structure>
   <crystal>
    <varray name="basis" >
     <v>       4.28046410      -0.00172243       2.66533213 </v>
     <v>       1.47931971       4.01671422       2.66533213 </v>
     <v>      -0.00247162      -0.00172244       5.04245687 </v>
    </varray>
    <i name="volume">     86.74916330 </i>
    <varray name="rec_basis" >
     <v>       0.23353192      -0.08606416       0.00008507 </v>
     <v>       0.00004720       0.24888590       0.00008504 </v>
     <v>      -0.12346480      -0.08606400       0.19822611 </v>
    </varray>
   </crystal>
   <varray name="positions" >
    <v>       0.00997004       0.65428512       0.00997004 </v>
    <v>       0.00997004       0.00997004       0.65428512 </v>
    <v>       0.65428512       0.00997004       0.00997004 </v>
    <v>       0.34571488       0.99002996       0.99002996 </v>
    <v>       0.99002996       0.34571488       0.99002996 </v>
    <v>       0.99002996       0.99002996       0.34571488 </v>
    <v>       0.22056557       0.63163483       0.22056557 </v>
    <v>       0.22056557       0.22056557       0.63163483 </v>
    <v>       0.63163483       0.22056557       0.22056557 </v>
    <v>       0.36836517       0.77943443       0.77943443 </v>
    <v>       0.77943443       0.36836517       0.77943443 </v>
    <v>       0.77943443       0.77943443       0.36836517 </v>
   </varray>
  </structure>
  <varray name="forces" >
   <v>       0.00000000       0.00000000       0.00000000 </v>
   <v>       0.00000000       0.00000000       0.00000000 </v>
   <v>       0.00000000       0.00000000       0.00000000 </v>
   <v>       0.00000000       0.00000000       0.00000000 </v>
   <v>       0.00000000       0.00000000       0.00000000 </v>
   <v>       0.00000000       0.00000000       0.00000000 </v>
   <v>       0.00000000       0.00000000       0.00000000 </v>
   <v>       0.00000000       0.00000000       0.00000000 </v>
   <v>       0.00000000       0.00000000       0.00000000 </v>
   <v>       0.00000000       0.00000000       0.00000000 </v>
   <v>       0.00000000       0.00000000       0.00000000 </v>
   <v>       0.00000000       0.00000000       0.00000000 </v>
  </varray>
  <varray name="stress" >
   <v>       0.00000000       0.00000000       0.00000000 </v>
   <v>       0.00000000       0.00000000       0.00000000 </v>
   <v>       0.00000000       0.00000000       0.00000000 </v>
  </varray>
  <energy>
   <i name="e_fr_energy">    -88.14255465 </i>
   <i name="e_wo_entrp">    -88.14255465 </i>
   <i name="e_0_energy">    -88.14255465 </i>
  </energy>
  <time name="totalsc">   78.26   78.93</time>
  <eigenvalues>
   <array>
    <dimension dim="1">band</dimension>
    <dimension dim="2">kpoint</dimension>
    <dimension dim="3">spin</dimension>
    <field>eigene</field>
    <field>occ</field>
    <set>
     <set comment="spin 1">
      <set comment="kpoint 1">
       <r>  -11.2618    1.0000 </r>
       <r>   -5.2303    1.0000 </r>
       <r>   -4.9655    1.0000 </r>
       <r>   -4.9655    1.0000 </r>
       <r>   -3.6835    1.0000 </r>
       <r>   -3.0650    1.0000 </r>
       <r>   -3.0650    1.0000 </r>
       <r>   -2.7616    1.0000 </r>
       <r>   -0.9690    1.0000 </r>
       <r>   -0.9690    1.0000 </r>
       <r>   -0.8911    1.0000 </r>
       <r>    0.1231    1.0000 </r>
       <r>    1.2732    1.0000 </r>
       <r>    1.2732    1.0000 </r>
       <r>    4.5141    1.0000 </r>
       <r>    4.9797    1.0000 </r>
       <r>    4.9797    1.0000 </r>
       <r>    5.5283    1.0000 </r>
       <r>    7.5747    0.0000 </r>
       <r>   10.8111    0.0000 </r>
       <r>   10.8111    0.0000 </r>
       <r>   11.0166    0.0000 </r>
       <r>   11.0166    0.0000 </r>
       <r>   12.6472    0.0000 </r>
       <r>   14.1468    0.0000 </r>
       <r>   14.1468    0.0000 </r>
       <r>   15.5841    0.0000 </r>
       <r>   16.3090    0.0000 </r>
       <r>   16.4227    0.0000 </r>
       <r>   16.8989    0.0000 </r>
      </set>
      <set comment="kpoint 2">
       <r>  -11.1877    1.0000 </r>
       <r>   -5.6258    1.0000 </r>
       <r>   -5.2713    1.0000 </r>
       <r>   -5.0917    1.0000 </r>
       <r>   -3.4348    1.0000 </r>
       <r>   -3.0604    1.0000 </r>
       <r>   -2.7951    1.0000 </r>
       <r>   -2.4751    1.0000 </r>
       <r>   -1.2698    1.0000 </r>
       <r>   -1.1893    1.0000 </r>
       <r>   -0.4172    1.0000 </r>
       <r>    0.5028    1.0000 </r>
       <r>    1.2584    1.0000 </r>
       <r>    1.6382    1.0000 </r>
       <r>    4.4007    1.0000 </r>
       <r>    4.7561    1.0000 </r>
       <r>    4.8598    1.0000 </r>
       <r>    5.2367    1.0000 </r>
       <r>    7.6824    0.0000 </r>
       <r>   10.0443    0.0000 </r>
       <r>   10.3226    0.0000 </r>
       <r>   11.5885    0.0000 </r>
       <r>   11.8005    0.0000 </r>
       <r>   12.8945    0.0000 </r>
       <r>   14.0869    0.0000 </r>
       <r>   14.2280    0.0000 </r>
       <r>   15.0837    0.0000 </r>
       <r>   15.4751    0.0000 </r>
       <r>   15.7926    0.0000 </r>
       <r>   16.5354    0.0000 </r>
      </set>
      <set comment="kpoint 3">
       <r>  -10.9743    1.0000 </r>
       <r>   -6.6279    1.0000 </r>
       <r>   -5.3814    1.0000 </r>
       <r>   -5.3300    1.0000 </r>
       <r>   -3.6951    1.0000 </r>
       <r>   -2.8450    1.0000 </r>
       <r>   -2.1700    1.0000 </r>
       <r>   -1.7213    1.0000 </r>
       <r>   -1.5421    1.0000 </r>
       <r>   -1.3487    1.0000 </r>
       <r>    0.4093    1.0000 </r>
       <r>    0.7728    1.0000 </r>
       <r>    1.8041    1.0000 </r>
       <r>    2.4305    1.0000 </r>
       <r>    3.6771    1.0000 </r>
       <r>    3.9389    1.0000 </r>
       <r>    4.4163    1.0000 </r>
       <r>    5.1655    1.0000 </r>
       <r>    8.0505    0.0000 </r>
       <r>    9.5007    0.0000 </r>
       <r>   10.1374    0.0000 </r>
       <r>   11.4256    0.0000 </r>
       <r>   12.2032    0.0000 </r>
       <r>   13.2261    0.0000 </r>
       <r>   13.7507    0.0000 </r>
       <r>   14.1582    0.0000 </r>
       <r>   14.4893    0.0000 </r>
       <r>   14.7868    0.0000 </r>
       <r>   15.1061    0.0000 </r>
       <r>   15.8501    0.0000 </r>
      </set>
      <set comment="kpoint 4">
       <r>  -10.6599    1.0000 </r>
       <r>   -7.5283    1.0000 </r>
       <r>   -5.5289    1.0000 </r>
       <r>   -5.4749    1.0000 </r>
       <r>   -3.9694    1.0000 </r>
       <r>   -2.9142    1.0000 </r>
       <r>   -2.0407    1.0000 </r>
       <r>   -1.1444    1.0000 </r>
       <r>   -1.0801    1.0000 </r>
       <r>   -0.5400    1.0000 </r>
       <r>    0.2276    1.0000 </r>
       <r>    1.8567    1.0000 </r>
       <r>    2.2233    1.0000 </r>
       <r>    2.5439    1.0000 </r>
       <r>    3.1887    1.0000 </r>
       <r>    3.4208    1.0000 </r>
       <r>    3.7662    1.0000 </r>
       <r>    5.2118    1.0000 </r>
       <r>    8.1783    0.0000 </r>
       <r>    9.8906    0.0000 </r>
       <r>   10.0934    0.0000 </r>
       <r>   10.5897    0.0000 </r>
       <r>   11.6350    0.0000 </r>
       <r>   12.2744    0.0000 </r>
       <r>   13.6296    0.0000 </r>
       <r>   13.8544    0.0000 </r>
       <r>   14.4255    0.0000 </r>
       <r>   14.4995    0.0000 </r>
       <r>   14.7570    0.0000 </r>
       <r>   15.5716    0.0000 </r>
      </set>
      <set comment="kpoint 5">
       <r>  -10.3704    1.0000 </r>
       <r>   -8.1222    1.0000 </r>
       <r>   -5.6353    1.0000 </r>
       <r>   -5.5239    1.0000 </r>
       <r>   -4.1174    1.0000 </r>
       <r>   -3.0403    1.0000 </r>
       <r>   -2.1969    1.0000 </r>
       <r>   -0.4270    1.0000 </r>
       <r>   -0.0298    1.0000 </r>
       <r>   -0.0029    1.0000 </r>
       <r>    0.2310    1.0000 </r>
       <r>    1.2612    1.0000 </r>
       <r>    1.5187    1.0000 </r>
       <r>    2.6350    1.0000 </r>
       <r>    3.1527    1.0000 </r>
       <r>    3.7377    1.0000 </r>
       <r>    4.0309    1.0000 </r>
       <r>    5.2299    1.0000 </r>
       <r>    8.0792    0.0000 </r>
       <r>    9.5000    0.0000 </r>
       <r>    9.9279    0.0000 </r>
       <r>   11.1037    0.0000 </r>
       <r>   11.2328    0.0000 </r>
       <r>   11.5537    0.0000 </r>
       <r>   13.1667    0.0000 </r>
       <r>   13.5116    0.0000 </r>
       <r>   14.1620    0.0000 </r>
       <r>   14.2601    0.0000 </r>
       <r>   14.4251    0.0000 </r>
       <r>   15.6715    0.0000 </r>
      </set>
      <set comment="kpoint 6">
       <r>  -11.1692    1.0000 </r>
       <r>   -5.5517    1.0000 </r>
       <r>   -5.4100    1.0000 </r>
       <r>   -5.2046    1.0000 </r>
       <r>   -3.5740    1.0000 </r>
       <r>   -2.9194    1.0000 </r>
       <r>   -2.6919    1.0000 </r>
       <r>   -2.4338    1.0000 </r>
       <r>   -1.5263    1.0000 </r>
       <r>   -0.8843    1.0000 </r>
       <r>   -0.3947    1.0000 </r>
       <r>    0.5212    1.0000 </r>
       <r>    1.4459    1.0000 </r>
       <r>    1.6116    1.0000 </r>
       <r>    4.3838    1.0000 </r>
       <r>    4.6358    1.0000 </r>
       <r>    4.8417    1.0000 </r>
       <r>    5.1495    1.0000 </r>
       <r>    7.7151    0.0000 </r>
       <r>   10.1303    0.0000 </r>
       <r>   10.2513    0.0000 </r>
       <r>   11.3675    0.0000 </r>
       <r>   11.8828    0.0000 </r>
       <r>   12.9947    0.0000 </r>
       <r>   14.1030    0.0000 </r>
       <r>   14.3264    0.0000 </r>
       <r>   14.8652    0.0000 </r>
       <r>   15.1806    0.0000 </r>
       <r>   15.6975    0.0000 </r>
       <r>   16.7812    0.0000 </r>
      </set>
      <set comment="kpoint 7">
       <r>  -11.0079    1.0000 </r>
       <r>   -6.2848    1.0000 </r>
       <r>   -5.5861    1.0000 </r>
       <r>   -5.4647    1.0000 </r>
       <r>   -3.3633    1.0000 </r>
       <r>   -2.9947    1.0000 </r>
       <r>   -2.4732    1.0000 </r>
       <r>   -1.9491    1.0000 </r>
       <r>   -1.4907    1.0000 </r>
       <r>   -0.9496    1.0000 </r>
       <r>    0.3312    1.0000 </r>
       <r>    0.9337    1.0000 </r>
       <r>    1.4691    1.0000 </r>
       <r>    2.3387    1.0000 </r>
       <r>    3.7252    1.0000 </r>
       <r>    4.2502    1.0000 </r>
       <r>    4.4752    1.0000 </r>
       <r>    4.9756    1.0000 </r>
       <r>    8.1042    0.0000 </r>
       <r>    9.3459    0.0000 </r>
       <r>   10.2694    0.0000 </r>
       <r>   11.3784    0.0000 </r>
       <r>   12.1384    0.0000 </r>
       <r>   13.3583    0.0000 </r>
       <r>   13.5191    0.0000 </r>
       <r>   14.1792    0.0000 </r>
       <r>   14.4716    0.0000 </r>
       <r>   14.8429    0.0000 </r>
       <r>   15.2342    0.0000 </r>
       <r>   16.1577    0.0000 </r>
      </set>
      <set comment="kpoint 8">
       <r>  -10.7284    1.0000 </r>
       <r>   -7.1748    1.0000 </r>
       <r>   -5.8152    1.0000 </r>
       <r>   -5.6581    1.0000 </r>
       <r>   -3.2932    1.0000 </r>
       <r>   -2.9441    1.0000 </r>
       <r>   -2.2566    1.0000 </r>
       <r>   -1.9992    1.0000 </r>
       <r>   -0.7922    1.0000 </r>
       <r>   -0.4506    1.0000 </r>
       <r>    0.7082    1.0000 </r>
       <r>    1.4684    1.0000 </r>
       <r>    1.9898    1.0000 </r>
       <r>    2.8527    1.0000 </r>
       <r>    2.9927    1.0000 </r>
       <r>    3.3973    1.0000 </r>
       <r>    4.1678    1.0000 </r>
       <r>    5.0200    1.0000 </r>
       <r>    8.3109    0.0000 </r>
       <r>    9.2140    0.0000 </r>
       <r>   10.3658    0.0000 </r>
       <r>   10.6575    0.0000 </r>
       <r>   11.9003    0.0000 </r>
       <r>   12.5942    0.0000 </r>
       <r>   12.8615    0.0000 </r>
       <r>   13.9493    0.0000 </r>
       <r>   14.2351    0.0000 </r>
       <r>   14.7559    0.0000 </r>
       <r>   15.3442    0.0000 </r>
       <r>   15.5956    0.0000 </r>
      </set>
      <set comment="kpoint 9">
       <r>  -10.4125    1.0000 </r>
       <r>   -7.8874    1.0000 </r>
       <r>   -6.0367    1.0000 </r>
       <r>   -5.6838    1.0000 </r>
       <r>   -3.4851    1.0000 </r>
       <r>   -2.9824    1.0000 </r>
       <r>   -2.2035    1.0000 </r>
       <r>   -1.3745    1.0000 </r>
       <r>   -0.1485    1.0000 </r>
       <r>    0.2615    1.0000 </r>
       <r>    0.5420    1.0000 </r>
       <r>    1.5031    1.0000 </r>
       <r>    1.7952    1.0000 </r>
       <r>    2.4549    1.0000 </r>
       <r>    3.3820    1.0000 </r>
       <r>    3.5854    1.0000 </r>
       <r>    3.9813    1.0000 </r>
       <r>    5.0496    1.0000 </r>
       <r>    7.9914    0.0000 </r>
       <r>    9.6378    0.0000 </r>
       <r>    9.8191    0.0000 </r>
       <r>   10.7068    0.0000 </r>
       <r>   11.3177    0.0000 </r>
       <r>   11.6816    0.0000 </r>
       <r>   12.8411    0.0000 </r>
       <r>   13.2242    0.0000 </r>
       <r>   14.0718    0.0000 </r>
       <r>   14.5581    0.0000 </r>
       <r>   15.2500    0.0000 </r>
       <r>   15.5580    0.0000 </r>
      </set>
      <set comment="kpoint 10">
       <r>  -10.2795    1.0000 </r>
       <r>   -8.1375    1.0000 </r>
       <r>   -6.1433    1.0000 </r>
       <r>   -5.6172    1.0000 </r>
       <r>   -3.5628    1.0000 </r>
       <r>   -2.9844    1.0000 </r>
       <r>   -2.2879    1.0000 </r>
       <r>   -0.5085    1.0000 </r>
       <r>   -0.3902    1.0000 </r>
       <r>    0.3153    1.0000 </r>
       <r>    0.4642    1.0000 </r>
       <r>    1.3075    1.0000 </r>
       <r>    1.6776    1.0000 </r>
       <r>    2.6936    1.0000 </r>
       <r>    3.2653    1.0000 </r>
       <r>    3.7818    1.0000 </r>
       <r>    4.0407    1.0000 </r>
       <r>    5.0418    1.0000 </r>
       <r>    7.9165    0.0000 </r>
       <r>    9.2993    0.0000 </r>
       <r>    9.7120    0.0000 </r>
       <r>   10.8071    0.0000 </r>
       <r>   11.2031    0.0000 </r>
       <r>   12.2261    0.0000 </r>
       <r>   12.6565    0.0000 </r>
       <r>   12.9856    0.0000 </r>
       <r>   13.4991    0.0000 </r>
       <r>   14.3927    0.0000 </r>
       <r>   14.9466    0.0000 </r>
       <r>   15.7325    0.0000 </r>
      </set>
      <set comment="kpoint 11">
       <r>  -10.4851    1.0000 </r>
       <r>   -7.7587    1.0000 </r>
       <r>   -6.1162    1.0000 </r>
       <r>   -5.4851    1.0000 </r>
       <r>   -3.5116    1.0000 </r>
       <r>   -2.8746    1.0000 </r>
       <r>   -2.1975    1.0000 </r>
       <r>   -1.3652    1.0000 </r>
       <r>   -0.9010    1.0000 </r>
       <r>    0.2736    1.0000 </r>
       <r>    0.5926    1.0000 </r>
       <r>    1.5613    1.0000 </r>
       <r>    2.3232    1.0000 </r>
       <r>    2.5144    1.0000 </r>
       <r>    3.0696    1.0000 </r>
       <r>    3.5851    1.0000 </r>
       <r>    3.7972    1.0000 </r>
       <r>    5.0167    1.0000 </r>
       <r>    8.0268    0.0000 </r>
       <r>    9.4825    0.0000 </r>
       <r>    9.9727    0.0000 </r>
       <r>   10.8314    0.0000 </r>
       <r>   11.4120    0.0000 </r>
       <r>   12.0754    0.0000 </r>
       <r>   13.2453    0.0000 </r>
       <r>   13.3345    0.0000 </r>
       <r>   13.9797    0.0000 </r>
       <r>   14.4957    0.0000 </r>
       <r>   14.8098    0.0000 </r>
       <r>   15.5806    0.0000 </r>
      </set>
      <set comment="kpoint 12">
       <r>  -10.8063    1.0000 </r>
       <r>   -7.0043    1.0000 </r>
       <r>   -5.9388    1.0000 </r>
       <r>   -5.3291    1.0000 </r>
       <r>   -3.3409    1.0000 </r>
       <r>   -2.7572    1.0000 </r>
       <r>   -2.2615    1.0000 </r>
       <r>   -1.9398    1.0000 </r>
       <r>   -1.5134    1.0000 </r>
       <r>   -0.5703    1.0000 </r>
       <r>    0.7656    1.0000 </r>
       <r>    1.4126    1.0000 </r>
       <r>    1.8737    1.0000 </r>
       <r>    2.8191    1.0000 </r>
       <r>    2.8815    1.0000 </r>
       <r>    3.7653    1.0000 </r>
       <r>    4.1861    1.0000 </r>
       <r>    4.9854    1.0000 </r>
       <r>    8.3077    0.0000 </r>
       <r>    8.9984    0.0000 </r>
       <r>   10.4844    0.0000 </r>
       <r>   10.9318    0.0000 </r>
       <r>   11.9725    0.0000 </r>
       <r>   13.0547    0.0000 </r>
       <r>   13.7530    0.0000 </r>
       <r>   13.9268    0.0000 </r>
       <r>   14.3789    0.0000 </r>
       <r>   14.5172    0.0000 </r>
       <r>   14.9952    0.0000 </r>
       <r>   15.3043    0.0000 </r>
      </set>
      <set comment="kpoint 13">
       <r>  -11.0609    1.0000 </r>
       <r>   -6.1859    1.0000 </r>
       <r>   -5.5713    1.0000 </r>
       <r>   -5.2154    1.0000 </r>
       <r>   -3.1245    1.0000 </r>
       <r>   -3.1169    1.0000 </r>
       <r>   -2.6647    1.0000 </r>
       <r>   -1.7502    1.0000 </r>
       <r>   -1.7242    1.0000 </r>
       <r>   -1.2732    1.0000 </r>
       <r>    0.2732    1.0000 </r>
       <r>    0.8456    1.0000 </r>
       <r>    1.3275    1.0000 </r>
       <r>    2.0660    1.0000 </r>
       <r>    4.0011    1.0000 </r>
       <r>    4.4972    1.0000 </r>
       <r>    4.5143    1.0000 </r>
       <r>    5.0234    1.0000 </r>
       <r>    7.9737    0.0000 </r>
       <r>    9.3450    0.0000 </r>
       <r>   10.3407    0.0000 </r>
       <r>   11.5349    0.0000 </r>
       <r>   12.3464    0.0000 </r>
       <r>   13.1948    0.0000 </r>
       <r>   14.1319    0.0000 </r>
       <r>   14.1367    0.0000 </r>
       <r>   14.7366    0.0000 </r>
       <r>   14.8771    0.0000 </r>
       <r>   15.0498    0.0000 </r>
       <r>   15.8250    0.0000 </r>
      </set>
      <set comment="kpoint 14">
       <r>  -10.9025    1.0000 </r>
       <r>   -6.4443    1.0000 </r>
       <r>   -5.7876    1.0000 </r>
       <r>   -5.6216    1.0000 </r>
       <r>   -4.0563    1.0000 </r>
       <r>   -2.7126    1.0000 </r>
       <r>   -1.9651    1.0000 </r>
       <r>   -1.8750    1.0000 </r>
       <r>   -1.3232    1.0000 </r>
       <r>   -0.6361    1.0000 </r>
       <r>    0.6017    1.0000 </r>
       <r>    1.2065    1.0000 </r>
       <r>    1.9082    1.0000 </r>
       <r>    2.2633    1.0000 </r>
       <r>    3.7269    1.0000 </r>
       <r>    3.8773    1.0000 </r>
       <r>    4.1663    1.0000 </r>
       <r>    4.5286    1.0000 </r>
       <r>    8.3541    0.0000 </r>
       <r>    9.3410    0.0000 </r>
       <r>   10.1720    0.0000 </r>
       <r>   11.1118    0.0000 </r>
       <r>   11.7370    0.0000 </r>
       <r>   12.9410    0.0000 </r>
       <r>   13.7750    0.0000 </r>
       <r>   13.9473    0.0000 </r>
       <r>   14.3283    0.0000 </r>
       <r>   14.7742    0.0000 </r>
       <r>   15.7116    0.0000 </r>
       <r>   15.9420    0.0000 </r>
      </set>
      <set comment="kpoint 15">
       <r>  -10.6746    1.0000 </r>
       <r>   -6.9855    1.0000 </r>
       <r>   -6.0848    1.0000 </r>
       <r>   -5.9059    1.0000 </r>
       <r>   -3.7915    1.0000 </r>
       <r>   -2.9854    1.0000 </r>
       <r>   -2.0945    1.0000 </r>
       <r>   -1.4529    1.0000 </r>
       <r>   -0.5237    1.0000 </r>
       <r>   -0.3344    1.0000 </r>
       <r>    1.2941    1.0000 </r>
       <r>    1.6167    1.0000 </r>
       <r>    1.9183    1.0000 </r>
       <r>    2.6340    1.0000 </r>
       <r>    3.1192    1.0000 </r>
       <r>    3.3210    1.0000 </r>
       <r>    3.8618    1.0000 </r>
       <r>    4.5287    1.0000 </r>
       <r>    8.5939    0.0000 </r>
       <r>    8.9373    0.0000 </r>
       <r>   10.2702    0.0000 </r>
       <r>   10.5393    0.0000 </r>
       <r>   11.6144    0.0000 </r>
       <r>   12.1655    0.0000 </r>
       <r>   12.8946    0.0000 </r>
       <r>   14.1406    0.0000 </r>
       <r>   14.2355    0.0000 </r>
       <r>   14.5860    0.0000 </r>
       <r>   15.7091    0.0000 </r>
       <r>   15.8646    0.0000 </r>
      </set>
      <set comment="kpoint 16">
       <r>  -10.3801    1.0000 </r>
       <r>   -7.5641    1.0000 </r>
       <r>   -6.5753    1.0000 </r>
       <r>   -5.9429    1.0000 </r>
       <r>   -3.3237    1.0000 </r>
       <r>   -2.7589    1.0000 </r>
       <r>   -2.3019    1.0000 </r>
       <r>   -1.5937    1.0000 </r>
       <r>    0.0345    1.0000 </r>
       <r>    0.4375    1.0000 </r>
       <r>    1.4531    1.0000 </r>
       <r>    1.6031    1.0000 </r>
       <r>    1.9413    1.0000 </r>
       <r>    2.1935    1.0000 </r>
       <r>    3.1064    1.0000 </r>
       <r>    3.7598    1.0000 </r>
       <r>    3.7959    1.0000 </r>
       <r>    4.5750    1.0000 </r>
       <r>    7.9671    0.0000 </r>
       <r>    9.2698    0.0000 </r>
       <r>    9.6035    0.0000 </r>
       <r>   10.6758    0.0000 </r>
       <r>   11.4295    0.0000 </r>
       <r>   11.5988    0.0000 </r>
       <r>   12.0684    0.0000 </r>
       <r>   13.2865    0.0000 </r>
       <r>   14.2257    0.0000 </r>
       <r>   14.6256    0.0000 </r>
       <r>   15.6146    0.0000 </r>
       <r>   15.8957    0.0000 </r>
      </set>
      <set comment="kpoint 17">
       <r>  -10.1725    1.0000 </r>
       <r>   -7.9225    1.0000 </r>
       <r>   -6.8577    1.0000 </r>
       <r>   -5.8623    1.0000 </r>
       <r>   -3.2182    1.0000 </r>
       <r>   -2.5236    1.0000 </r>
       <r>   -1.9366    1.0000 </r>
       <r>   -1.5510    1.0000 </r>
       <r>   -0.4770    1.0000 </r>
       <r>    0.2710    1.0000 </r>
       <r>    1.3925    1.0000 </r>
       <r>    1.6822    1.0000 </r>
       <r>    2.0399    1.0000 </r>
       <r>    2.6845    1.0000 </r>
       <r>    3.4304    1.0000 </r>
       <r>    3.7053    1.0000 </r>
       <r>    3.8597    1.0000 </r>
       <r>    4.5909    1.0000 </r>
       <r>    7.7640    0.0000 </r>
       <r>    9.1094    0.0000 </r>
       <r>    9.3078    0.0000 </r>
       <r>   10.4330    0.0000 </r>
       <r>   11.1957    0.0000 </r>
       <r>   11.8205    0.0000 </r>
       <r>   12.3015    0.0000 </r>
       <r>   12.6890    0.0000 </r>
       <r>   13.7808    0.0000 </r>
       <r>   14.4891    0.0000 </r>
       <r>   15.2585    0.0000 </r>
       <r>   15.8875    0.0000 </r>
      </set>
      <set comment="kpoint 18">
       <r>  -10.2545    1.0000 </r>
       <r>   -7.7975    1.0000 </r>
       <r>   -6.9094    1.0000 </r>
       <r>   -5.6887    1.0000 </r>
       <r>   -2.9983    1.0000 </r>
       <r>   -2.5677    1.0000 </r>
       <r>   -1.9843    1.0000 </r>
       <r>   -1.4650    1.0000 </r>
       <r>   -1.0530    1.0000 </r>
       <r>   -0.1087    1.0000 </r>
       <r>    1.4733    1.0000 </r>
       <r>    1.9315    1.0000 </r>
       <r>    2.4697    1.0000 </r>
       <r>    2.6704    1.0000 </r>
       <r>    3.0209    1.0000 </r>
       <r>    3.4662    1.0000 </r>
       <r>    4.0380    1.0000 </r>
       <r>    4.6120    1.0000 </r>
       <r>    7.8448    0.0000 </r>
       <r>    9.0223    0.0000 </r>
       <r>    9.5006    0.0000 </r>
       <r>   10.4390    0.0000 </r>
       <r>   11.6335    0.0000 </r>
       <r>   12.1868    0.0000 </r>
       <r>   12.2703    0.0000 </r>
       <r>   12.6495    0.0000 </r>
       <r>   13.6685    0.0000 </r>
       <r>   14.6131    0.0000 </r>
       <r>   15.1199    0.0000 </r>
       <r>   15.7219    0.0000 </r>
      </set>
      <set comment="kpoint 19">
       <r>  -10.5350    1.0000 </r>
       <r>   -7.3759    1.0000 </r>
       <r>   -6.6286    1.0000 </r>
       <r>   -5.4753    1.0000 </r>
       <r>   -2.7014    1.0000 </r>
       <r>   -2.6130    1.0000 </r>
       <r>   -2.3697    1.0000 </r>
       <r>   -2.0378    1.0000 </r>
       <r>   -1.5516    1.0000 </r>
       <r>    0.4063    1.0000 </r>
       <r>    1.5235    1.0000 </r>
       <r>    1.5516    1.0000 </r>
       <r>    1.9585    1.0000 </r>
       <r>    2.2622    1.0000 </r>
       <r>    3.2629    1.0000 </r>
       <r>    3.6858    1.0000 </r>
       <r>    3.8763    1.0000 </r>
       <r>    4.7277    1.0000 </r>
       <r>    8.0543    0.0000 </r>
       <r>    9.0254    0.0000 </r>
       <r>   10.1542    0.0000 </r>
       <r>   10.9026    0.0000 </r>
       <r>   11.3796    0.0000 </r>
       <r>   12.4606    0.0000 </r>
       <r>   12.7578    0.0000 </r>
       <r>   13.4449    0.0000 </r>
       <r>   14.3403    0.0000 </r>
       <r>   14.5742    0.0000 </r>
       <r>   15.0952    0.0000 </r>
       <r>   15.4470    0.0000 </r>
      </set>
      <set comment="kpoint 20">
       <r>  -10.5081    1.0000 </r>
       <r>   -7.2977    1.0000 </r>
       <r>   -6.0964    1.0000 </r>
       <r>   -5.9581    1.0000 </r>
       <r>   -4.4820    1.0000 </r>
       <r>   -3.3500    1.0000 </r>
       <r>   -1.0266    1.0000 </r>
       <r>   -0.8740    1.0000 </r>
       <r>   -0.2999    1.0000 </r>
       <r>   -0.2561    1.0000 </r>
       <r>    1.5848    1.0000 </r>
       <r>    2.0249    1.0000 </r>
       <r>    2.2324    1.0000 </r>
       <r>    2.6418    1.0000 </r>
       <r>    2.9114    1.0000 </r>
       <r>    3.1390    1.0000 </r>
       <r>    3.4114    1.0000 </r>
       <r>    3.9289    1.0000 </r>
       <r>    8.2865    0.0000 </r>
       <r>    9.2368    0.0000 </r>
       <r>    9.9605    0.0000 </r>
       <r>   10.6671    0.0000 </r>
       <r>   10.8993    0.0000 </r>
       <r>   11.6289    0.0000 </r>
       <r>   13.0263    0.0000 </r>
       <r>   13.7941    0.0000 </r>
       <r>   14.3717    0.0000 </r>
       <r>   14.8641    0.0000 </r>
       <r>   15.4412    0.0000 </r>
       <r>   15.9736    0.0000 </r>
      </set>
      <set comment="kpoint 21">
       <r>  -10.2739    1.0000 </r>
       <r>   -7.6351    1.0000 </r>
       <r>   -6.4703    1.0000 </r>
       <r>   -6.1552    1.0000 </r>
       <r>   -4.0819    1.0000 </r>
       <r>   -3.4906    1.0000 </r>
       <r>   -1.1192    1.0000 </r>
       <r>   -0.6638    1.0000 </r>
       <r>    0.1588    1.0000 </r>
       <r>    0.4590    1.0000 </r>
       <r>    1.6715    1.0000 </r>
       <r>    1.9078    1.0000 </r>
       <r>    2.1771    1.0000 </r>
       <r>    2.2958    1.0000 </r>
       <r>    2.8819    1.0000 </r>
       <r>    3.2762    1.0000 </r>
       <r>    3.7282    1.0000 </r>
       <r>    3.8711    1.0000 </r>
       <r>    7.9054    0.0000 </r>
       <r>    9.0697    0.0000 </r>
       <r>    9.4301    0.0000 </r>
       <r>   10.3206    0.0000 </r>
       <r>   11.0294    0.0000 </r>
       <r>   11.7621    0.0000 </r>
       <r>   12.1461    0.0000 </r>
       <r>   13.6901    0.0000 </r>
       <r>   14.1493    0.0000 </r>
       <r>   14.5606    0.0000 </r>
       <r>   15.7368    0.0000 </r>
       <r>   15.8682    0.0000 </r>
      </set>
      <set comment="kpoint 22">
       <r>  -10.0813    1.0000 </r>
       <r>   -7.7525    1.0000 </r>
       <r>   -7.1333    1.0000 </r>
       <r>   -6.0980    1.0000 </r>
       <r>   -3.5831    1.0000 </r>
       <r>   -2.9633    1.0000 </r>
       <r>   -1.3570    1.0000 </r>
       <r>   -0.9055    1.0000 </r>
       <r>   -0.3581    1.0000 </r>
       <r>    0.3927    1.0000 </r>
       <r>    1.7815    1.0000 </r>
       <r>    2.0834    1.0000 </r>
       <r>    2.2812    1.0000 </r>
       <r>    2.6030    1.0000 </r>
       <r>    3.0844    1.0000 </r>
       <r>    3.5652    1.0000 </r>
       <r>    3.6867    1.0000 </r>
       <r>    4.0624    1.0000 </r>
       <r>    7.7815    0.0000 </r>
       <r>    8.6178    0.0000 </r>
       <r>    9.3808    0.0000 </r>
       <r>   10.1135    0.0000 </r>
       <r>   11.0664    0.0000 </r>
       <r>   11.2398    0.0000 </r>
       <r>   12.3301    0.0000 </r>
       <r>   13.0500    0.0000 </r>
       <r>   13.8378    0.0000 </r>
       <r>   14.4130    0.0000 </r>
       <r>   15.7661    0.0000 </r>
       <r>   15.9617    0.0000 </r>
      </set>
      <set comment="kpoint 23">
       <r>  -10.0748    1.0000 </r>
       <r>   -7.6128    1.0000 </r>
       <r>   -7.4906    1.0000 </r>
       <r>   -5.9281    1.0000 </r>
       <r>   -3.3369    1.0000 </r>
       <r>   -1.8481    1.0000 </r>
       <r>   -1.6467    1.0000 </r>
       <r>   -1.3019    1.0000 </r>
       <r>   -1.2877    1.0000 </r>
       <r>   -0.3522    1.0000 </r>
       <r>    2.2875    1.0000 </r>
       <r>    2.4234    1.0000 </r>
       <r>    2.5607    1.0000 </r>
       <r>    2.5721    1.0000 </r>
       <r>    3.0038    1.0000 </r>
       <r>    3.1579    1.0000 </r>
       <r>    4.0359    1.0000 </r>
       <r>    4.2554    1.0000 </r>
       <r>    8.1210    0.0000 </r>
       <r>    8.3200    0.0000 </r>
       <r>    9.2325    0.0000 </r>
       <r>   10.1402    0.0000 </r>
       <r>   11.1169    0.0000 </r>
       <r>   11.8280    0.0000 </r>
       <r>   12.2819    0.0000 </r>
       <r>   12.8673    0.0000 </r>
       <r>   13.3275    0.0000 </r>
       <r>   14.5174    0.0000 </r>
       <r>   15.4935    0.0000 </r>
       <r>   15.6494    0.0000 </r>
      </set>
      <set comment="kpoint 24">
       <r>  -10.1373    1.0000 </r>
       <r>   -7.9074    1.0000 </r>
       <r>   -6.2623    1.0000 </r>
       <r>   -6.1375    1.0000 </r>
       <r>   -4.7120    1.0000 </r>
       <r>   -3.7073    1.0000 </r>
       <r>   -0.0882    1.0000 </r>
       <r>    0.1204    1.0000 </r>
       <r>    0.2390    1.0000 </r>
       <r>    0.4092    1.0000 </r>
       <r>    1.4156    1.0000 </r>
       <r>    1.6438    1.0000 </r>
       <r>    2.1231    1.0000 </r>
       <r>    2.4162    1.0000 </r>
       <r>    2.8780    1.0000 </r>
       <r>    3.2535    1.0000 </r>
       <r>    3.5829    1.0000 </r>
       <r>    3.7395    1.0000 </r>
       <r>    7.6439    0.0000 </r>
       <r>    8.9893    0.0000 </r>
       <r>    9.0359    0.0000 </r>
       <r>    9.8196    0.0000 </r>
       <r>   11.3616    0.0000 </r>
       <r>   11.8680    0.0000 </r>
       <r>   12.1453    0.0000 </r>
       <r>   13.7630    0.0000 </r>
       <r>   14.2094    0.0000 </r>
       <r>   14.9426    0.0000 </r>
       <r>   15.6584    0.0000 </r>
       <r>   15.9995    0.0000 </r>
      </set>
      <set comment="kpoint 25">
       <r>  -10.0560    1.0000 </r>
       <r>   -7.9456    1.0000 </r>
       <r>   -6.5992    1.0000 </r>
       <r>   -6.2410    1.0000 </r>
       <r>   -4.1824    1.0000 </r>
       <r>   -3.6685    1.0000 </r>
       <r>   -0.3409    1.0000 </r>
       <r>   -0.0612    1.0000 </r>
       <r>   -0.0449    1.0000 </r>
       <r>    0.6853    1.0000 </r>
       <r>    1.3515    1.0000 </r>
       <r>    1.8251    1.0000 </r>
       <r>    2.0820    1.0000 </r>
       <r>    2.6268    1.0000 </r>
       <r>    2.9982    1.0000 </r>
       <r>    3.3820    1.0000 </r>
       <r>    3.6206    1.0000 </r>
       <r>    3.7754    1.0000 </r>
       <r>    7.6111    0.0000 </r>
       <r>    8.5633    0.0000 </r>
       <r>    9.3356    0.0000 </r>
       <r>    9.7645    0.0000 </r>
       <r>   11.3755    0.0000 </r>
       <r>   11.4324    0.0000 </r>
       <r>   12.0375    0.0000 </r>
       <r>   13.8972    0.0000 </r>
       <r>   14.0312    0.0000 </r>
       <r>   14.3754    0.0000 </r>
       <r>   15.7475    0.0000 </r>
       <r>   16.0112    0.0000 </r>
      </set>
      <set comment="kpoint 26">
       <r>  -11.2067    1.0000 </r>
       <r>   -5.6435    1.0000 </r>
       <r>   -4.9957    1.0000 </r>
       <r>   -4.9957    1.0000 </r>
       <r>   -3.7877    1.0000 </r>
       <r>   -3.0538    1.0000 </r>
       <r>   -3.0538    1.0000 </r>
       <r>   -2.3190    1.0000 </r>
       <r>   -1.0229    1.0000 </r>
       <r>   -1.0229    1.0000 </r>
       <r>   -0.7879    1.0000 </r>
       <r>    0.2856    1.0000 </r>
       <r>    1.5927    1.0000 </r>
       <r>    1.5927    1.0000 </r>
       <r>    4.3900    1.0000 </r>
       <r>    4.6759    1.0000 </r>
       <r>    4.6759    1.0000 </r>
       <r>    5.5681    1.0000 </r>
       <r>    7.5949    0.0000 </r>
       <r>   10.7314    0.0000 </r>
       <r>   10.7314    0.0000 </r>
       <r>   11.0050    0.0000 </r>
       <r>   11.0051    0.0000 </r>
       <r>   12.8044    0.0000 </r>
       <r>   14.5093    0.0000 </r>
       <r>   14.5093    0.0000 </r>
       <r>   14.7079    0.0000 </r>
       <r>   15.5075    0.0000 </r>
       <r>   15.5077    0.0000 </r>
       <r>   16.6431    0.0000 </r>
      </set>
      <set comment="kpoint 27">
       <r>  -11.0985    1.0000 </r>
       <r>   -5.9517    1.0000 </r>
       <r>   -5.6310    1.0000 </r>
       <r>   -5.0473    1.0000 </r>
       <r>   -3.4804    1.0000 </r>
       <r>   -3.0553    1.0000 </r>
       <r>   -2.8679    1.0000 </r>
       <r>   -1.9729    1.0000 </r>
       <r>   -1.4178    1.0000 </r>
       <r>   -0.9033    1.0000 </r>
       <r>   -0.2927    1.0000 </r>
       <r>    0.7520    1.0000 </r>
       <r>    1.4775    1.0000 </r>
       <r>    2.2689    1.0000 </r>
       <r>    3.8086    1.0000 </r>
       <r>    4.4928    1.0000 </r>
       <r>    4.6566    1.0000 </r>
       <r>    5.2197    1.0000 </r>
       <r>    7.8227    0.0000 </r>
       <r>    9.8567    0.0000 </r>
       <r>   10.4181    0.0000 </r>
       <r>   11.4345    0.0000 </r>
       <r>   11.4960    0.0000 </r>
       <r>   13.2214    0.0000 </r>
       <r>   13.7024    0.0000 </r>
       <r>   14.5913    0.0000 </r>
       <r>   14.8372    0.0000 </r>
       <r>   15.0248    0.0000 </r>
       <r>   15.0689    0.0000 </r>
       <r>   15.9876    0.0000 </r>
      </set>
      <set comment="kpoint 28">
       <r>  -10.8591    1.0000 </r>
       <r>   -6.8093    1.0000 </r>
       <r>   -5.9093    1.0000 </r>
       <r>   -5.2874    1.0000 </r>
       <r>   -3.6735    1.0000 </r>
       <r>   -2.7033    1.0000 </r>
       <r>   -2.2160    1.0000 </r>
       <r>   -1.7677    1.0000 </r>
       <r>   -1.6784    1.0000 </r>
       <r>   -0.4328    1.0000 </r>
       <r>    0.5945    1.0000 </r>
       <r>    0.9395    1.0000 </r>
       <r>    1.8662    1.0000 </r>
       <r>    2.9590    1.0000 </r>
       <r>    3.1008    1.0000 </r>
       <r>    3.9745    1.0000 </r>
       <r>    4.2558    1.0000 </r>
       <r>    4.9533    1.0000 </r>
       <r>    8.2668    0.0000 </r>
       <r>    9.3506    0.0000 </r>
       <r>   10.1980    0.0000 </r>
       <r>   11.1565    0.0000 </r>
       <r>   11.7601    0.0000 </r>
       <r>   12.7216    0.0000 </r>
       <r>   13.0245    0.0000 </r>
       <r>   14.0465    0.0000 </r>
       <r>   14.4720    0.0000 </r>
       <r>   14.6783    0.0000 </r>
       <r>   15.2998    0.0000 </r>
       <r>   15.7064    0.0000 </r>
      </set>
      <set comment="kpoint 29">
       <r>  -10.5405    1.0000 </r>
       <r>   -7.6515    1.0000 </r>
       <r>   -5.9476    1.0000 </r>
       <r>   -5.5274    1.0000 </r>
       <r>   -3.9557    1.0000 </r>
       <r>   -2.6851    1.0000 </r>
       <r>   -2.0176    1.0000 </r>
       <r>   -1.2359    1.0000 </r>
       <r>   -0.9901    1.0000 </r>
       <r>    0.0882    1.0000 </r>
       <r>    0.4961    1.0000 </r>
       <r>    1.5454    1.0000 </r>
       <r>    1.9285    1.0000 </r>
       <r>    2.6782    1.0000 </r>
       <r>    3.2267    1.0000 </r>
       <r>    3.7752    1.0000 </r>
       <r>    3.8776    1.0000 </r>
       <r>    4.9879    1.0000 </r>
       <r>    8.1006    0.0000 </r>
       <r>   10.0311    0.0000 </r>
       <r>   10.1132    0.0000 </r>
       <r>   10.3227    0.0000 </r>
       <r>   11.3684    0.0000 </r>
       <r>   11.7314    0.0000 </r>
       <r>   12.5586    0.0000 </r>
       <r>   13.8571    0.0000 </r>
       <r>   13.8957    0.0000 </r>
       <r>   14.2376    0.0000 </r>
       <r>   15.6693    0.0000 </r>
       <r>   15.7140    0.0000 </r>
      </set>
      <set comment="kpoint 30">
       <r>  -10.3015    1.0000 </r>
       <r>   -8.1350    1.0000 </r>
       <r>   -5.8746    1.0000 </r>
       <r>   -5.6856    1.0000 </r>
       <r>   -4.1149    1.0000 </r>
       <r>   -2.7672    1.0000 </r>
       <r>   -2.0547    1.0000 </r>
       <r>   -0.5487    1.0000 </r>
       <r>   -0.1070    1.0000 </r>
       <r>    0.0358    1.0000 </r>
       <r>    0.3374    1.0000 </r>
       <r>    1.3920    1.0000 </r>
       <r>    1.7360    1.0000 </r>
       <r>    2.5905    1.0000 </r>
       <r>    3.0870    1.0000 </r>
       <r>    3.9069    1.0000 </r>
       <r>    4.1479    1.0000 </r>
       <r>    4.9765    1.0000 </r>
       <r>    7.9141    0.0000 </r>
       <r>    9.4490    0.0000 </r>
       <r>    9.8606    0.0000 </r>
       <r>   11.0584    0.0000 </r>
       <r>   11.2763    0.0000 </r>
       <r>   11.4389    0.0000 </r>
       <r>   12.6731    0.0000 </r>
       <r>   13.2234    0.0000 </r>
       <r>   13.5238    0.0000 </r>
       <r>   13.8456    0.0000 </r>
       <r>   15.3974    0.0000 </r>
       <r>   15.8284    0.0000 </r>
      </set>
      <set comment="kpoint 31">
       <r>  -10.3881    1.0000 </r>
       <r>   -7.9944    1.0000 </r>
       <r>   -5.7329    1.0000 </r>
       <r>   -5.7216    1.0000 </r>
       <r>   -4.1246    1.0000 </r>
       <r>   -2.7516    1.0000 </r>
       <r>   -1.9274    1.0000 </r>
       <r>   -1.3276    1.0000 </r>
       <r>    0.1101    1.0000 </r>
       <r>    0.1572    1.0000 </r>
       <r>    0.3680    1.0000 </r>
       <r>    1.1817    1.0000 </r>
       <r>    2.1659    1.0000 </r>
       <r>    2.6682    1.0000 </r>
       <r>    3.2522    1.0000 </r>
       <r>    3.6160    1.0000 </r>
       <r>    3.7421    1.0000 </r>
       <r>    4.9310    1.0000 </r>
       <r>    7.9534    0.0000 </r>
       <r>    9.3995    0.0000 </r>
       <r>   10.0083    0.0000 </r>
       <r>   11.1454    0.0000 </r>
       <r>   11.4319    0.0000 </r>
       <r>   11.7477    0.0000 </r>
       <r>   12.9458    0.0000 </r>
       <r>   13.3439    0.0000 </r>
       <r>   13.6324    0.0000 </r>
       <r>   13.7444    0.0000 </r>
       <r>   15.5054    0.0000 </r>
       <r>   15.9413    0.0000 </r>
      </set>
      <set comment="kpoint 32">
       <r>  -10.6976    1.0000 </r>
       <r>   -7.3413    1.0000 </r>
       <r>   -5.6590    1.0000 </r>
       <r>   -5.5361    1.0000 </r>
       <r>   -4.0028    1.0000 </r>
       <r>   -2.6107    1.0000 </r>
       <r>   -2.0209    1.0000 </r>
       <r>   -1.7008    1.0000 </r>
       <r>   -0.8713    1.0000 </r>
       <r>   -0.6597    1.0000 </r>
       <r>    0.5112    1.0000 </r>
       <r>    1.8187    1.0000 </r>
       <r>    2.3982    1.0000 </r>
       <r>    2.5740    1.0000 </r>
       <r>    3.0435    1.0000 </r>
       <r>    3.3020    1.0000 </r>
       <r>    3.9319    1.0000 </r>
       <r>    4.8693    1.0000 </r>
       <r>    8.1370    0.0000 </r>
       <r>    9.6372    0.0000 </r>
       <r>   10.1310    0.0000 </r>
       <r>   10.7708    0.0000 </r>
       <r>   11.8433    0.0000 </r>
       <r>   12.6744    0.0000 </r>
       <r>   13.5387    0.0000 </r>
       <r>   13.7760    0.0000 </r>
       <r>   14.0972    0.0000 </r>
       <r>   14.3468    0.0000 </r>
       <r>   15.4470    0.0000 </r>
       <r>   15.5802    0.0000 </r>
      </set>
      <set comment="kpoint 33">
       <r>  -10.9900    1.0000 </r>
       <r>   -6.4534    1.0000 </r>
       <r>   -5.4697    1.0000 </r>
       <r>   -5.4029    1.0000 </r>
       <r>   -3.8061    1.0000 </r>
       <r>   -2.6168    1.0000 </r>
       <r>   -2.0790    1.0000 </r>
       <r>   -2.0189    1.0000 </r>
       <r>   -1.6814    1.0000 </r>
       <r>   -1.1102    1.0000 </r>
       <r>    0.5697    1.0000 </r>
       <r>    0.7426    1.0000 </r>
       <r>    1.9087    1.0000 </r>
       <r>    1.9641    1.0000 </r>
       <r>    3.9355    1.0000 </r>
       <r>    4.0788    1.0000 </r>
       <r>    4.4754    1.0000 </r>
       <r>    4.8191    1.0000 </r>
       <r>    8.0653    0.0000 </r>
       <r>    9.4865    0.0000 </r>
       <r>   10.1190    0.0000 </r>
       <r>   11.4362    0.0000 </r>
       <r>   12.2567    0.0000 </r>
       <r>   13.1579    0.0000 </r>
       <r>   14.0345    0.0000 </r>
       <r>   14.2068    0.0000 </r>
       <r>   14.5059    0.0000 </r>
       <r>   14.7859    0.0000 </r>
       <r>   15.1133    0.0000 </r>
       <r>   15.6886    0.0000 </r>
      </set>
      <set comment="kpoint 34">
       <r>  -11.0470    1.0000 </r>
       <r>   -6.1462    1.0000 </r>
       <r>   -5.5071    1.0000 </r>
       <r>   -5.3210    1.0000 </r>
       <r>   -3.7096    1.0000 </r>
       <r>   -2.9895    1.0000 </r>
       <r>   -2.6412    1.0000 </r>
       <r>   -2.0243    1.0000 </r>
       <r>   -1.2411    1.0000 </r>
       <r>   -0.6581    1.0000 </r>
       <r>   -0.3207    1.0000 </r>
       <r>    0.9062    1.0000 </r>
       <r>    1.8514    1.0000 </r>
       <r>    2.3123    1.0000 </r>
       <r>    3.8573    1.0000 </r>
       <r>    3.9144    1.0000 </r>
       <r>    4.5882    1.0000 </r>
       <r>    5.1880    1.0000 </r>
       <r>    7.9430    0.0000 </r>
       <r>   10.0332    0.0000 </r>
       <r>   10.1824    0.0000 </r>
       <r>   10.9511    0.0000 </r>
       <r>   11.6552    0.0000 </r>
       <r>   13.3993    0.0000 </r>
       <r>   13.7163    0.0000 </r>
       <r>   14.1395    0.0000 </r>
       <r>   14.6849    0.0000 </r>
       <r>   14.7378    0.0000 </r>
       <r>   15.5023    0.0000 </r>
       <r>   15.6612    0.0000 </r>
      </set>
      <set comment="kpoint 35">
       <r>  -10.8608    1.0000 </r>
       <r>   -6.5270    1.0000 </r>
       <r>   -6.0996    1.0000 </r>
       <r>   -5.5240    1.0000 </r>
       <r>   -3.4592    1.0000 </r>
       <r>   -3.0350    1.0000 </r>
       <r>   -2.3882    1.0000 </r>
       <r>   -1.8943    1.0000 </r>
       <r>   -1.0887    1.0000 </r>
       <r>   -0.2937    1.0000 </r>
       <r>    0.3703    1.0000 </r>
       <r>    1.3218    1.0000 </r>
       <r>    1.9019    1.0000 </r>
       <r>    2.8223    1.0000 </r>
       <r>    3.1190    1.0000 </r>
       <r>    3.9371    1.0000 </r>
       <r>    4.2081    1.0000 </r>
       <r>    4.7938    1.0000 </r>
       <r>    8.4565    0.0000 </r>
       <r>    9.2590    0.0000 </r>
       <r>   10.0531    0.0000 </r>
       <r>   10.9677    0.0000 </r>
       <r>   11.5314    0.0000 </r>
       <r>   12.9246    0.0000 </r>
       <r>   13.2656    0.0000 </r>
       <r>   14.0501    0.0000 </r>
       <r>   14.0853    0.0000 </r>
       <r>   14.6276    0.0000 </r>
       <r>   15.3458    0.0000 </r>
       <r>   15.8682    0.0000 </r>
      </set>
      <set comment="kpoint 36">
       <r>  -10.5741    1.0000 </r>
       <r>   -7.2889    1.0000 </r>
       <r>   -6.2811    1.0000 </r>
       <r>   -5.8257    1.0000 </r>
       <r>   -3.3275    1.0000 </r>
       <r>   -2.8581    1.0000 </r>
       <r>   -2.3733    1.0000 </r>
       <r>   -1.4943    1.0000 </r>
       <r>   -0.7681    1.0000 </r>
       <r>    0.1952    1.0000 </r>
       <r>    1.0811    1.0000 </r>
       <r>    1.4675    1.0000 </r>
       <r>    1.6741    1.0000 </r>
       <r>    2.9221    1.0000 </r>
       <r>    3.2256    1.0000 </r>
       <r>    3.7200    1.0000 </r>
       <r>    3.8626    1.0000 </r>
       <r>    4.7041    1.0000 </r>
       <r>    8.2352    0.0000 </r>
       <r>    9.5039    0.0000 </r>
       <r>   10.0974    0.0000 </r>
       <r>   10.2188    0.0000 </r>
       <r>   11.6361    0.0000 </r>
       <r>   12.0327    0.0000 </r>
       <r>   12.1637    0.0000 </r>
       <r>   13.3990    0.0000 </r>
       <r>   14.0639    0.0000 </r>
       <r>   14.2249    0.0000 </r>
       <r>   15.6817    0.0000 </r>
       <r>   16.0809    0.0000 </r>
      </set>
      <set comment="kpoint 37">
       <r>  -10.2911    1.0000 </r>
       <r>   -7.9031    1.0000 </r>
       <r>   -6.3340    1.0000 </r>
       <r>   -5.9657    1.0000 </r>
       <r>   -3.5605    1.0000 </r>
       <r>   -2.7600    1.0000 </r>
       <r>   -1.7277    1.0000 </r>
       <r>   -1.3820    1.0000 </r>
       <r>   -0.4279    1.0000 </r>
       <r>    0.2433    1.0000 </r>
       <r>    0.9497    1.0000 </r>
       <r>    1.7207    1.0000 </r>
       <r>    2.0052    1.0000 </r>
       <r>    2.3724    1.0000 </r>
       <r>    3.3206    1.0000 </r>
       <r>    3.9030    1.0000 </r>
       <r>    4.0219    1.0000 </r>
       <r>    4.6441    1.0000 </r>
       <r>    7.8105    0.0000 </r>
       <r>    9.5113    0.0000 </r>
       <r>    9.7158    0.0000 </r>
       <r>   10.7182    0.0000 </r>
       <r>   11.1458    0.0000 </r>
       <r>   11.5329    0.0000 </r>
       <r>   11.9056    0.0000 </r>
       <r>   12.9928    0.0000 </r>
       <r>   13.7865    0.0000 </r>
       <r>   13.9668    0.0000 </r>
       <r>   15.6654    0.0000 </r>
       <r>   15.9106    0.0000 </r>
      </set>
      <set comment="kpoint 38">
       <r>  -10.2400    1.0000 </r>
       <r>   -8.0240    1.0000 </r>
       <r>   -6.3781    1.0000 </r>
       <r>   -5.8596    1.0000 </r>
       <r>   -3.6706    1.0000 </r>
       <r>   -2.6705    1.0000 </r>
       <r>   -1.7123    1.0000 </r>
       <r>   -1.3642    1.0000 </r>
       <r>   -0.3722    1.0000 </r>
       <r>    0.3025    1.0000 </r>
       <r>    0.9354    1.0000 </r>
       <r>    1.3538    1.0000 </r>
       <r>    2.3700    1.0000 </r>
       <r>    2.7324    1.0000 </r>
       <r>    3.1691    1.0000 </r>
       <r>    3.5951    1.0000 </r>
       <r>    4.0479    1.0000 </r>
       <r>    4.5804    1.0000 </r>
       <r>    7.7730    0.0000 </r>
       <r>    9.1636    0.0000 </r>
       <r>    9.7401    0.0000 </r>
       <r>   10.8238    0.0000 </r>
       <r>   11.3473    0.0000 </r>
       <r>   11.9546    0.0000 </r>
       <r>   12.0217    0.0000 </r>
       <r>   12.9629    0.0000 </r>
       <r>   13.6568    0.0000 </r>
       <r>   13.7706    0.0000 </r>
       <r>   15.3430    0.0000 </r>
       <r>   15.9399    0.0000 </r>
      </set>
      <set comment="kpoint 39">
       <r>  -10.4830    1.0000 </r>
       <r>   -7.5901    1.0000 </r>
       <r>   -6.3149    1.0000 </r>
       <r>   -5.6424    1.0000 </r>
       <r>   -3.6523    1.0000 </r>
       <r>   -2.4785    1.0000 </r>
       <r>   -2.2003    1.0000 </r>
       <r>   -1.5532    1.0000 </r>
       <r>   -0.9613    1.0000 </r>
       <r>    0.3686    1.0000 </r>
       <r>    1.0508    1.0000 </r>
       <r>    1.5708    1.0000 </r>
       <r>    2.3947    1.0000 </r>
       <r>    2.5794    1.0000 </r>
       <r>    3.0466    1.0000 </r>
       <r>    3.4264    1.0000 </r>
       <r>    3.8384    1.0000 </r>
       <r>    4.5712    1.0000 </r>
       <r>    7.9945    0.0000 </r>
       <r>    9.2974    0.0000 </r>
       <r>    9.9798    0.0000 </r>
       <r>   10.9242    0.0000 </r>
       <r>   11.3898    0.0000 </r>
       <r>   12.4010    0.0000 </r>
       <r>   12.5033    0.0000 </r>
       <r>   13.3849    0.0000 </r>
       <r>   14.0543    0.0000 </r>
       <r>   14.1990    0.0000 </r>
       <r>   15.6721    0.0000 </r>
       <r>   15.9659    0.0000 </r>
      </set>
      <set comment="kpoint 40">
       <r>  -10.7869    1.0000 </r>
       <r>   -6.9037    1.0000 </r>
       <r>   -6.0567    1.0000 </r>
       <r>   -5.4805    1.0000 </r>
       <r>   -3.5544    1.0000 </r>
       <r>   -2.5685    1.0000 </r>
       <r>   -2.1934    1.0000 </r>
       <r>   -2.1303    1.0000 </r>
       <r>   -1.1618    1.0000 </r>
       <r>   -0.5266    1.0000 </r>
       <r>    1.2001    1.0000 </r>
       <r>    1.3382    1.0000 </r>
       <r>    1.7031    1.0000 </r>
       <r>    2.7024    1.0000 </r>
[...]
       <r>   -7.3494    1.0000 </r>
       <r>   -6.7362    1.0000 </r>
       <r>   -5.6625    1.0000 </r>
       <r>   -4.1394    1.0000 </r>
       <r>   -2.2915    1.0000 </r>
       <r>   -2.2057    1.0000 </r>
       <r>   -1.4321    1.0000 </r>
       <r>   -0.3141    1.0000 </r>
       <r>    0.2878    1.0000 </r>
       <r>    0.5521    1.0000 </r>
       <r>    1.9063    1.0000 </r>
       <r>    2.5244    1.0000 </r>
       <r>    2.9675    1.0000 </r>
       <r>    3.2263    1.0000 </r>
       <r>    3.7867    1.0000 </r>
       <r>    3.8649    1.0000 </r>
       <r>    4.4301    1.0000 </r>
       <r>    8.2424    0.0000 </r>
       <r>    9.2851    0.0000 </r>
       <r>    9.8085    0.0000 </r>
       <r>   10.1657    0.0000 </r>
       <r>   10.3012    0.0000 </r>
       <r>   12.0462    0.0000 </r>
       <r>   12.3742    0.0000 </r>
       <r>   12.4231    0.0000 </r>
       <r>   13.3965    0.0000 </r>
       <r>   13.6192    0.0000 </r>
       <r>   15.7741    0.0000 </r>
       <r>   16.3800    0.0000 </r>
      </set>
      <set comment="kpoint 84">
       <r>  -10.6826    1.0000 </r>
       <r>   -7.5425    1.0000 </r>
       <r>   -5.1512    1.0000 </r>
       <r>   -5.1512    1.0000 </r>
       <r>   -4.3056    1.0000 </r>
       <r>   -3.3089    1.0000 </r>
       <r>   -3.3089    1.0000 </r>
       <r>   -0.8982    1.0000 </r>
       <r>   -0.2654    1.0000 </r>
       <r>   -0.2654    1.0000 </r>
       <r>    0.6061    1.0000 </r>
       <r>    1.8299    1.0000 </r>
       <r>    2.3700    1.0000 </r>
       <r>    2.3700    1.0000 </r>
       <r>    2.7699    1.0000 </r>
       <r>    3.8816    1.0000 </r>
       <r>    3.8816    1.0000 </r>
       <r>    5.8964    1.0000 </r>
       <r>    8.7197    0.0000 </r>
       <r>    9.0044    0.0000 </r>
       <r>    9.0044    0.0000 </r>
       <r>   11.2164    0.0000 </r>
       <r>   11.2164    0.0000 </r>
       <r>   11.8840    0.0000 </r>
       <r>   12.3424    0.0000 </r>
       <r>   13.5705    0.0000 </r>
       <r>   13.5705    0.0000 </r>
       <r>   14.0483    0.0000 </r>
       <r>   14.7413    0.0000 </r>
       <r>   16.6445    0.0000 </r>
      </set>
      <set comment="kpoint 85">
       <r>  -10.6012    1.0000 </r>
       <r>   -7.5280    1.0000 </r>
       <r>   -5.8648    1.0000 </r>
       <r>   -5.3139    1.0000 </r>
       <r>   -3.9047    1.0000 </r>
       <r>   -3.1866    1.0000 </r>
       <r>   -3.0093    1.0000 </r>
       <r>   -0.5503    1.0000 </r>
       <r>   -0.4321    1.0000 </r>
       <r>   -0.3360    1.0000 </r>
       <r>    0.5698    1.0000 </r>
       <r>    1.7911    1.0000 </r>
       <r>    2.4490    1.0000 </r>
       <r>    2.5396    1.0000 </r>
       <r>    2.9791    1.0000 </r>
       <r>    3.7749    1.0000 </r>
       <r>    4.0225    1.0000 </r>
       <r>    5.4258    1.0000 </r>
       <r>    8.7661    0.0000 </r>
       <r>    8.9695    0.0000 </r>
       <r>    9.1974    0.0000 </r>
       <r>   10.7450    0.0000 </r>
       <r>   10.8595    0.0000 </r>
       <r>   11.9404    0.0000 </r>
       <r>   12.3397    0.0000 </r>
       <r>   13.1775    0.0000 </r>
       <r>   13.5893    0.0000 </r>
       <r>   13.8468    0.0000 </r>
       <r>   15.2291    0.0000 </r>
       <r>   16.3246    0.0000 </r>
      </set>
     </set>
    </set>
   </array>
  </eigenvalues>
  <separator name="orbital magnetization" >
   <v name="MAGDIPOLOUT">      0.00000000      0.00000000      0.00000000</v>
  </separator>
  <dos>
   <i name="efermi">      6.02598031 </i>
   <total>
    <array>
     <dimension dim="1">gridpoints</dimension>
     <dimension dim="2">spin</dimension>
     <field>energy</field>
     <field>total</field>
     <field>integrated</field>
     <set>
      <set comment="spin 1">
       <r>   -12.6698     0.0000     0.0000 </r>
       <r>   -12.5665     0.0000     0.0000 </r>
       <r>   -12.4633     0.0000     0.0000 </r>
       <r>   -12.3600     0.0000     0.0000 </r>
       <r>   -12.2568     0.0000     0.0000 </r>
       <r>   -12.1535     0.0000     0.0000 </r>
       <r>   -12.0503     0.0000     0.0000 </r>
       <r>   -11.9470     0.0000     0.0000 </r>
       <r>   -11.8437     0.0000     0.0000 </r>
       <r>   -11.7405     0.0000     0.0000 </r>
       <r>   -11.6372     0.0000     0.0000 </r>
       <r>   -11.5340     0.0000     0.0000 </r>
       <r>   -11.4307     0.0000     0.0000 </r>
       <r>   -11.3275     0.0000     0.0000 </r>
       <r>   -11.2242     0.0330     0.0034 </r>
       <r>   -11.1210     0.3745     0.0421 </r>
       <r>   -11.0177     0.6007     0.1041 </r>
       <r>   -10.9144     0.7063     0.1770 </r>
       <r>   -10.8112     0.9920     0.2795 </r>
       <r>   -10.7079     1.1285     0.3960 </r>
       <r>   -10.6047     1.5739     0.5585 </r>
       <r>   -10.5014     1.6040     0.7241 </r>
       <r>   -10.3982     2.0838     0.9393 </r>
       <r>   -10.2949     2.1238     1.1586 </r>
       <r>   -10.1916     3.2408     1.4932 </r>
       <r>   -10.0884     3.1598     1.8195 </r>
       <r>    -9.9851     1.7482     2.0000 </r>
       <r>    -9.8819     0.0001     2.0000 </r>
       <r>    -9.7786     0.0000     2.0000 </r>
       <r>    -9.6754     0.0000     2.0000 </r>
       <r>    -9.5721     0.0000     2.0000 </r>
       <r>    -9.4689     0.0000     2.0000 </r>
       <r>    -9.3656     0.0000     2.0000 </r>
       <r>    -9.2623     0.0000     2.0000 </r>
       <r>    -9.1591     0.0000     2.0000 </r>
       <r>    -9.0558     0.0000     2.0000 </r>
       <r>    -8.9526     0.0000     2.0000 </r>
       <r>    -8.8493     0.0000     2.0000 </r>
       <r>    -8.7461     0.0000     2.0000 </r>
       <r>    -8.6428     0.0000     2.0000 </r>
       <r>    -8.5396     0.0000     2.0000 </r>
       <r>    -8.4363     0.0000     2.0000 </r>
       <r>    -8.3330     0.0000     2.0000 </r>
       <r>    -8.2298     0.0000     2.0000 </r>
       <r>    -8.1265     0.4247     2.0439 </r>
       <r>    -8.0233     0.5223     2.0978 </r>
       <r>    -7.9200     1.2418     2.2260 </r>
       <r>    -7.8168     2.2281     2.4561 </r>
       <r>    -7.7135     2.6974     2.7346 </r>
       <r>    -7.6103     1.6521     2.9052 </r>
       <r>    -7.5070     2.2745     3.1400 </r>
       <r>    -7.4037     0.6707     3.2093 </r>
       <r>    -7.3005     1.5122     3.3654 </r>
       <r>    -7.1972     1.7740     3.5486 </r>
       <r>    -7.0940     2.0140     3.7566 </r>
       <r>    -6.9907     1.7575     3.9381 </r>
       <r>    -6.8875     1.4645     4.0893 </r>
       <r>    -6.7842     2.1069     4.3068 </r>
       <r>    -6.6809     1.0406     4.4143 </r>
       <r>    -6.5777     1.6916     4.5889 </r>
       <r>    -6.4744     2.3028     4.8267 </r>
       <r>    -6.3712     2.4713     5.0819 </r>
       <r>    -6.2679     2.6642     5.3570 </r>
       <r>    -6.1647     1.7565     5.5383 </r>
       <r>    -6.0614     4.1656     5.9685 </r>
       <r>    -5.9582     2.3695     6.2131 </r>
       <r>    -5.8549     3.2783     6.5516 </r>
       <r>    -5.7516     2.1951     6.7783 </r>
       <r>    -5.6484     2.8873     7.0764 </r>
       <r>    -5.5451     2.7657     7.3620 </r>
       <r>    -5.4419     2.6223     7.6328 </r>
       <r>    -5.3386     1.1239     7.7488 </r>
       <r>    -5.2354     0.9966     7.8517 </r>
       <r>    -5.1321     0.5982     7.9135 </r>
       <r>    -5.0289     0.6629     7.9819 </r>
       <r>    -4.9256     0.1749     8.0000 </r>
       <r>    -4.8223     0.0001     8.0000 </r>
       <r>    -4.7191     0.0492     8.0051 </r>
       <r>    -4.6158     0.2697     8.0329 </r>
       <r>    -4.5126     0.3347     8.0675 </r>
       <r>    -4.4093     0.4624     8.1152 </r>
       <r>    -4.3061     0.2445     8.1405 </r>
       <r>    -4.2028     0.4992     8.1920 </r>
       <r>    -4.0996     1.2003     8.3160 </r>
       <r>    -3.9963     1.4253     8.4631 </r>
       <r>    -3.8930     1.3181     8.5992 </r>
       <r>    -3.7898     1.7635     8.7813 </r>
       <r>    -3.6865     1.3530     8.9210 </r>
       <r>    -3.5833     1.4494     9.0707 </r>
       <r>    -3.4800     2.9932     9.3798 </r>
       <r>    -3.3768     1.0203     9.4851 </r>
       <r>    -3.2735     3.2990     9.8258 </r>
       <r>    -3.1702     1.5162     9.9823 </r>
       <r>    -3.0670     1.5637    10.1438 </r>
       <r>    -2.9637     4.1808    10.5755 </r>
       <r>    -2.8605     3.2531    10.9114 </r>
       <r>    -2.7572     2.4708    11.1665 </r>
       <r>    -2.6540     3.1262    11.4893 </r>
       <r>    -2.5507     3.5108    11.8518 </r>
       <r>    -2.4475     2.3791    12.0975 </r>
       <r>    -2.3442     1.6540    12.2682 </r>
       <r>    -2.2409     3.0231    12.5804 </r>
       <r>    -2.1377     3.6142    12.9536 </r>
       <r>    -2.0344     2.5038    13.2121 </r>
       <r>    -1.9312     2.7293    13.4939 </r>
       <r>    -1.8279     1.7327    13.6728 </r>
       <r>    -1.7247     2.2021    13.9002 </r>
       <r>    -1.6214     2.7316    14.1823 </r>
       <r>    -1.5182     2.3353    14.4234 </r>
       <r>    -1.4149     3.1448    14.7481 </r>
       <r>    -1.3116     3.4802    15.1075 </r>
       <r>    -1.2084     2.9676    15.4139 </r>
       <r>    -1.1051     1.8747    15.6075 </r>
       <r>    -1.0019     2.4245    15.8578 </r>
       <r>    -0.8986     3.6978    16.2396 </r>
       <r>    -0.7954     2.0683    16.4532 </r>
       <r>    -0.6921     2.2004    16.6804 </r>
       <r>    -0.5889     1.6634    16.8522 </r>
       <r>    -0.4856     2.7938    17.1406 </r>
       <r>    -0.3823     3.1818    17.4692 </r>
       <r>    -0.2791     4.6156    17.9458 </r>
       <r>    -0.1758     1.4166    18.0920 </r>
       <r>    -0.0726     1.7701    18.2748 </r>
       <r>     0.0307     2.6281    18.5462 </r>
       <r>     0.1339     2.3920    18.7932 </r>
       <r>     0.2372     3.1892    19.1225 </r>
       <r>     0.3405     4.7223    19.6101 </r>
       <r>     0.4437     4.7165    20.0971 </r>
       <r>     0.5470     3.5793    20.4667 </r>
       <r>     0.6502     1.9865    20.6718 </r>
       <r>     0.7535     0.9541    20.7703 </r>
       <r>     0.8567     0.6357    20.8360 </r>
       <r>     0.9600     1.2536    20.9654 </r>
       <r>     1.0632     0.6456    21.0321 </r>
       <r>     1.1665     0.6547    21.0997 </r>
       <r>     1.2698     2.5878    21.3669 </r>
       <r>     1.3730     3.1773    21.6949 </r>
       <r>     1.4763     2.8012    21.9842 </r>
       <r>     1.5795     2.8992    22.2835 </r>
       <r>     1.6828     3.6824    22.6638 </r>
       <r>     1.7860     4.3825    23.1163 </r>
       <r>     1.8893     7.2311    23.8629 </r>
       <r>     1.9925     5.4405    24.4247 </r>
       <r>     2.0958     3.3177    24.7673 </r>
       <r>     2.1991     3.0674    25.0840 </r>
       <r>     2.3023     4.1517    25.5127 </r>
       <r>     2.4056     3.7508    25.9000 </r>
       <r>     2.5088     3.6399    26.2758 </r>
       <r>     2.6121     4.7437    26.7656 </r>
       <r>     2.7153     4.9434    27.2761 </r>
       <r>     2.8186     2.3776    27.5216 </r>
       <r>     2.9218     4.7004    28.0069 </r>
       <r>     3.0251     5.1029    28.5338 </r>
       <r>     3.1284     5.6328    29.1154 </r>
       <r>     3.2316     4.9781    29.6295 </r>
       <r>     3.3349     5.1372    30.1599 </r>
       <r>     3.4381     4.1946    30.5930 </r>
       <r>     3.5414     1.7696    30.7758 </r>
       <r>     3.6446     3.7619    31.1642 </r>
       <r>     3.7479     4.8203    31.6619 </r>
       <r>     3.8512     5.1888    32.1977 </r>
       <r>     3.9544     7.6712    32.9898 </r>
       <r>     4.0577     6.5126    33.6623 </r>
       <r>     4.1609     3.6913    34.0434 </r>
       <r>     4.2642     2.7992    34.3324 </r>
       <r>     4.3674     1.5829    34.4959 </r>
       <r>     4.4707     2.3485    34.7384 </r>
       <r>     4.5739     2.1171    34.9570 </r>
       <r>     4.6772     2.1995    35.1841 </r>
       <r>     4.7805     1.7998    35.3699 </r>
       <r>     4.8837     1.1546    35.4892 </r>
       <r>     4.9870     1.0192    35.5944 </r>
       <r>     5.0902     1.7752    35.7777 </r>
       <r>     5.1935     0.4412    35.8233 </r>
       <r>     5.2967     0.8864    35.9148 </r>
       <r>     5.4000     0.3533    35.9513 </r>
       <r>     5.5032     0.2339    35.9754 </r>
       <r>     5.6065     0.0785    35.9835 </r>
       <r>     5.7098     0.0530    35.9890 </r>
       <r>     5.8130     0.0390    35.9930 </r>
       <r>     5.9163     0.0633    35.9996 </r>
       <r>     6.0195     0.0043    36.0000 </r>
       <r>     6.1228     0.0000    36.0000 </r>
       <r>     6.2260     0.0000    36.0000 </r>
       <r>     6.3293     0.0000    36.0000 </r>
       <r>     6.4326     0.0000    36.0000 </r>
       <r>     6.5358     0.0000    36.0000 </r>
       <r>     6.6391     0.0000    36.0000 </r>
       <r>     6.7423     0.0000    36.0000 </r>
       <r>     6.8456     0.0000    36.0000 </r>
       <r>     6.9488     0.0000    36.0000 </r>
       <r>     7.0521     0.0000    36.0000 </r>
       <r>     7.1553     0.0000    36.0000 </r>
       <r>     7.2586     0.0000    36.0000 </r>
       <r>     7.3619     0.0000    36.0000 </r>
       <r>     7.4651     0.0000    36.0000 </r>
       <r>     7.5684     0.3278    36.0339 </r>
       <r>     7.6716     1.5535    36.1943 </r>
       <r>     7.7749     1.9948    36.4002 </r>
       <r>     7.8781     3.9904    36.8123 </r>
       <r>     7.9814     1.8623    37.0046 </r>
       <r>     8.0846     3.0218    37.3166 </r>
       <r>     8.1879     1.3850    37.4596 </r>
       <r>     8.2912     1.2930    37.5931 </r>
       <r>     8.3944     1.8161    37.7806 </r>
       <r>     8.4977     0.9549    37.8792 </r>
       <r>     8.6009     1.0516    37.9878 </r>
       <r>     8.7042     1.1869    38.1104 </r>
       <r>     8.8074     1.1392    38.2280 </r>
       <r>     8.9107     0.8115    38.3118 </r>
       <r>     9.0139     3.0115    38.6227 </r>
       <r>     9.1172     1.7917    38.8077 </r>
       <r>     9.2205     3.8216    39.2023 </r>
       <r>     9.3237     3.7975    39.5945 </r>
       <r>     9.4270     4.6986    40.0796 </r>
       <r>     9.5302     3.7954    40.4715 </r>
       <r>     9.6335     1.5902    40.6357 </r>
       <r>     9.7367     2.5300    40.8970 </r>
       <r>     9.8400     1.8466    41.0876 </r>
       <r>     9.9433     2.0204    41.2962 </r>
       <r>    10.0465     4.0343    41.7128 </r>
       <r>    10.1498     3.2436    42.0477 </r>
       <r>    10.2530     2.5869    42.3148 </r>
       <r>    10.3563     3.4885    42.6751 </r>
       <r>    10.4595     2.7646    42.9605 </r>
       <r>    10.5628     1.8969    43.1564 </r>
       <r>    10.6660     1.1116    43.2712 </r>
       <r>    10.7693     1.9364    43.4711 </r>
       <r>    10.8726     2.6584    43.7456 </r>
       <r>    10.9758     3.4977    44.1068 </r>
       <r>    11.0791     2.7723    44.3930 </r>
       <r>    11.1823     2.3114    44.6317 </r>
       <r>    11.2856     2.9489    44.9362 </r>
       <r>    11.3888     4.7053    45.4220 </r>
       <r>    11.4921     5.0020    45.9385 </r>
       <r>    11.5953     2.2095    46.1667 </r>
       <r>    11.6986     3.9579    46.5753 </r>
       <r>    11.8019     2.9397    46.8789 </r>
       <r>    11.9051     2.1028    47.0960 </r>
       <r>    12.0084     3.4682    47.4541 </r>
       <r>    12.1116     2.8790    47.7514 </r>
       <r>    12.2149     3.6165    48.1248 </r>
       <r>    12.3181     2.9511    48.4295 </r>
       <r>    12.4214     2.0237    48.6385 </r>
       <r>    12.5246     1.5386    48.7974 </r>
       <r>    12.6279     2.1758    49.0220 </r>
       <r>    12.7312     2.7714    49.3082 </r>
       <r>    12.8344     1.6404    49.4776 </r>
       <r>    12.9377     3.2303    49.8111 </r>
       <r>    13.0409     3.9325    50.2172 </r>
       <r>    13.1442     2.2653    50.4511 </r>
       <r>    13.2474     3.4648    50.8089 </r>
       <r>    13.3507     3.8248    51.2038 </r>
       <r>    13.4540     2.1985    51.4308 </r>
       <r>    13.5572     2.9153    51.7318 </r>
       <r>    13.6605     3.8499    52.1293 </r>
       <r>    13.7637     4.1409    52.5569 </r>
       <r>    13.8670     3.9472    52.9645 </r>
       <r>    13.9702     3.6442    53.3408 </r>
       <r>    14.0735     3.9174    53.7453 </r>
       <r>    14.1767     4.2883    54.1881 </r>
       <r>    14.2800     4.5833    54.6613 </r>
       <r>    14.3833     2.0589    54.8739 </r>
       <r>    14.4865     2.1755    55.0985 </r>
       <r>    14.5898     3.3713    55.4466 </r>
       <r>    14.6930     1.5377    55.6054 </r>
       <r>    14.7963     2.3105    55.8440 </r>
       <r>    14.8995     2.1884    56.0700 </r>
       <r>    15.0028     1.2910    56.2033 </r>
       <r>    15.1060     1.6432    56.3729 </r>
       <r>    15.2093     2.1454    56.5945 </r>
       <r>    15.3126     2.0672    56.8079 </r>
       <r>    15.4158     2.0470    57.0193 </r>
       <r>    15.5191     1.9471    57.2203 </r>
       <r>    15.6223     3.0062    57.5307 </r>
       <r>    15.7256     4.6474    58.0106 </r>
       <r>    15.8288     2.8270    58.3025 </r>
       <r>    15.9321     4.1502    58.7310 </r>
       <r>    16.0353     2.6793    59.0077 </r>
       <r>    16.1386     0.9506    59.1059 </r>
       <r>    16.2419     1.9406    59.3062 </r>
       <r>    16.3451     2.4446    59.5587 </r>
       <r>    16.4484     1.8258    59.7472 </r>
       <r>    16.5516     0.4727    59.7960 </r>
       <r>    16.6549     0.9687    59.8960 </r>
       <r>    16.7581     0.1916    59.9158 </r>
       <r>    16.8614     0.4579    59.9631 </r>
       <r>    16.9647     0.3575    60.0000 </r>
       <r>    17.0679     0.0000    60.0000 </r>
       <r>    17.1712     0.0000    60.0000 </r>
       <r>    17.2744     0.0000    60.0000 </r>
       <r>    17.3777     0.0000    60.0000 </r>
       <r>    17.4809     0.0000    60.0000 </r>
       <r>    17.5842     0.0000    60.0000 </r>
       <r>    17.6874     0.0000    60.0000 </r>
       <r>    17.7907     0.0000    60.0000 </r>
       <r>    17.8940     0.0000    60.0000 </r>
       <r>    17.9972     0.0000    60.0000 </r>
       <r>    18.1005     0.0000    60.0000 </r>
       <r>    18.2037     0.0000    60.0000 </r>
       <r>    18.3070     0.0000    60.0000 </r>
      </set>
     </set>
    </array>
   </total>
  </dos>
 </calculation>
 <structure name="finalpos" >
  <crystal>
   <varray name="basis" >
    <v>       4.28046410      -0.00172243       2.66533213 </v>
    <v>       1.47931971       4.01671422       2.66533213 </v>
    <v>      -0.00247162      -0.00172244       5.04245687 </v>
   </varray>
   <i name="volume">     86.74916330 </i>
   <varray name="rec_basis" >
    <v>       0.23353192      -0.08606416       0.00008507 </v>
    <v>       0.00004720       0.24888590       0.00008504 </v>
    <v>      -0.12346480      -0.08606400       0.19822611 </v>
   </varray>
  </crystal>
  <varray name="positions" >
   <v>       0.00997004       0.65428512       0.00997004 </v>
   <v>       0.00997004       0.00997004       0.65428512 </v>
   <v>       0.65428512       0.00997004       0.00997004 </v>
   <v>       0.34571488       0.99002996       0.99002996 </v>
   <v>       0.99002996       0.34571488       0.99002996 </v>
   <v>       0.99002996       0.99002996       0.34571488 </v>
   <v>       0.22056557       0.63163483       0.22056557 </v>
   <v>       0.22056557       0.22056557       0.63163483 </v>
   <v>       0.63163483       0.22056557       0.22056557 </v>
   <v>       0.36836517       0.77943443       0.77943443 </v>
   <v>       0.77943443       0.36836517       0.77943443 </v>
   <v>       0.77943443       0.77943443       0.36836517 </v>
  </varray>
 </structure>
</modeling>
