 vasp.6.2.0 18Jan21 (build Jan 05 2022 15:41:44) complex                        
  
 executed on             LinuxIFC date 2025.05.07  17:05:32
 running on   24 total cores
 distrk:  each k-point on   12 cores,    2 groups
 distr:  one band on NCORE=   2 cores,    6 groups


--------------------------------------------------------------------------------------------------------


 INCAR:
   SYSTEM = routine with relax: pwdword
   ICHARG = 2
   NPAR = 6
   KPAR = 2
   NCORE = 2
   ADDGRID = T
   PREC = Acc
   ENCUT = 600
   METAGGA = R2SCAN
   LASPH = .TRUE.
   LMIXTAU = .FALSE.
   ALGO = A
   EDIFF = 1E-9
   NELM = 100
   NELMIN = 6
   IALGO = 38
   LREAL = F
   NSW = 0
   ISIF = -1
   ISMEAR = 0
   SIGMA = 0.02
   SYMPREC = 1E-4

 POTCAR:    PAW_PBE B 06Sep2000                   
 POTCAR:    PAW_PBE Mo_sv 02Feb2006               
 POTCAR:    PAW_PBE Si 05Jan2001                  
 -----------------------------------------------------------------------------
|                                                                             |
|           W    W    AA    RRRRR   N    N  II  N    N   GGGG   !!!           |
|           W    W   A  A   R    R  NN   N  II  NN   N  G    G  !!!           |
|           W    W  A    A  R    R  N N  N  II  N N  N  G       !!!           |
|           W WW W  AAAAAA  RRRRR   N  N N  II  N  N N  G  GGG   !            |
|           WW  WW  A    A  R   R   N   NN  II  N   NN  G    G                |
|           W    W  A    A  R    R  N    N  II  N    N   GGGG   !!!           |
|                                                                             |
|     For optimal performance we recommend to set                             |
|       NCORE = 2 up to number-of-cores-per-socket                            |
|     NCORE specifies how many cores store one orbital (NPAR=cpu/NCORE).      |
|     This setting can greatly improve the performance of VASP for DFT.       |
|     The default, NCORE=1 might be grossly inefficient on modern             |
|     multi-core architectures or massively parallel machines. Do your        |
|     own testing! More info at https://www.vasp.at/wiki/index.php/NCORE      |
|     Unfortunately you need to use the default for GW and RPA                |
|     calculations (for HF NCORE is supported but not extensively tested      |
|     yet).                                                                   |
|                                                                             |
 -----------------------------------------------------------------------------

 POTCAR:    PAW_PBE B 06Sep2000                   
   VRHFIN =B: s2p1                                                                                  
   LEXCH  = PE                                                                                      
   EATOM  =    71.1703 eV,    5.2309 Ry                                                             
                                                                                                    
   TITEL  = PAW_PBE B 06Sep2000                                                                     
   LULTRA =        F    use ultrasoft PP ?                                                          
   IUNSCR =        1    unscreen: 0-lin 1-nonlin 2-no                                               
   RPACOR =    1.200    partial core radius                                                         
   POMASS =   10.811; ZVAL   =    3.000    mass and valenz                                          
   RCORE  =    1.700    outmost cutoff radius                                                       
   RWIGS  =    1.710; RWIGS  =    0.905    wigner-seitz radius (au A)                               
   ENMAX  =  318.614; ENMIN  =  238.960 eV                                                          
   ICORE  =        2    local potential                                                             
   LCOR   =        T    correct aug charges                                                         
   LPAW   =        T    paw PP                                                                      
   EAUG   =  535.514                                                                                
   DEXC   =    0.000                                                                                
   RMAX   =    1.732    core radius for proj-oper                                                   
   RAUG   =    1.300    factor for augmentation sphere                                              
   RDEP   =    1.757    radius for radial grids                                                     
   RDEPT  =    1.436    core radius for aug-charge                                                  
                                                                                                    
   Atomic configuration                                                                             
    4 entries                                                                                       
     n  l   j            E        occ.                                                              
     1  0  0.50      -180.5896   2.0000                                                             
     2  0  0.50        -9.4431   2.0000                                                             
     2  1  0.50        -3.6068   1.0000                                                             
     3  2  1.50        -4.0817   0.0000                                                             
   Description                                                                                      
     l       E           TYP  RCUT    TYP  RCUT                                                     
     0     -9.4430752     23  1.500                                                                 
     0      0.8675899     23  1.500                                                                 
     1     -3.6067955     23  1.700                                                                 
     1      6.1086146     23  1.700                                                                 
     2     -4.0817478      7  1.700                                                                 
  local pseudopotential read in
  partial core-charges read in
  partial kinetic energy density read in
  atomic valenz-charges read in
  non local Contribution for L=           0  read in
    real space projection operators read in
  non local Contribution for L=           0  read in
    real space projection operators read in
  non local Contribution for L=           1  read in
    real space projection operators read in
  non local Contribution for L=           1  read in
    real space projection operators read in
    PAW grid and wavefunctions read in
 
   number of l-projection  operators is LMAX  =           4
   number of lm-projection operators is LMMAX =           8
 
 POTCAR:    PAW_PBE Mo_sv 02Feb2006               
   VRHFIN =Mo: 4p5s4d                                                                               
   LEXCH  = PE                                                                                      
   EATOM  =  1862.2866 eV,  136.8742 Ry                                                             
                                                                                                    
   TITEL  = PAW_PBE Mo_sv 02Feb2006                                                                 
   LULTRA =        F    use ultrasoft PP ?                                                          
   IUNSCR =        1    unscreen: 0-lin 1-nonlin 2-no                                               
   RPACOR =    2.200    partial core radius                                                         
   POMASS =   95.940; ZVAL   =   14.000    mass and valenz                                          
   RCORE  =    2.500    outmost cutoff radius                                                       
   RWIGS  =    2.750; RWIGS  =    1.455    wigner-seitz radius (au A)                               
   ENMAX  =  242.676; ENMIN  =  182.007 eV                                                          
   ICORE  =        3    local potential                                                             
   LCOR   =        T    correct aug charges                                                         
   LPAW   =        T    paw PP                                                                      
   EAUG   =  446.014                                                                                
   DEXC   =    0.000                                                                                
   RMAX   =    2.563    core radius for proj-oper                                                   
   RAUG   =    1.300    factor for augmentation sphere                                              
   RDEP   =    2.641    radius for radial grids                                                     
   RDEPT  =    2.031    core radius for aug-charge                                                  
                                                                                                    
   Atomic configuration                                                                             
   11 entries                                                                                       
     n  l   j            E        occ.                                                              
     1  0  0.50    -19819.0341   2.0000                                                             
     2  0  0.50     -2799.0127   2.0000                                                             
     2  1  1.50     -2502.0276   6.0000                                                             
     3  0  0.50      -476.4449   2.0000                                                             
     3  1  1.50      -379.1496   6.0000                                                             
     3  2  2.50      -220.9367  10.0000                                                             
     4  0  0.50       -64.3378   2.0000                                                             
     5  0  0.50        -4.0862   1.0000                                                             
     4  1  1.50       -38.4773   6.0000                                                             
     4  2  2.50        -3.7535   5.0000                                                             
     4  3  2.50        -1.3606   0.0000                                                             
   Description                                                                                      
     l       E           TYP  RCUT    TYP  RCUT                                                     
     0    -64.3377829     23  2.100                                                                 
     0     -4.0861640     23  2.400                                                                 
     1    -38.4772993     23  2.100                                                                 
     1     13.6058260     23  2.100                                                                 
     2     -3.7534941     23  2.400                                                                 
     2     -5.1140767     23  2.400                                                                 
     3     -4.0817478     23  2.500                                                                 
  local pseudopotential read in
  partial core-charges read in
  partial kinetic energy density read in
  atomic valenz-charges read in
  non local Contribution for L=           0  read in
    real space projection operators read in
  non local Contribution for L=           0  read in
    real space projection operators read in
  non local Contribution for L=           1  read in
    real space projection operators read in
  non local Contribution for L=           1  read in
    real space projection operators read in
  non local Contribution for L=           2  read in
    real space projection operators read in
  non local Contribution for L=           2  read in
    real space projection operators read in
    PAW grid and wavefunctions read in
 
   number of l-projection  operators is LMAX  =           6
   number of lm-projection operators is LMMAX =          18
 
 POTCAR:    PAW_PBE Si 05Jan2001                  
   VRHFIN =Si: s2p2                                                                                 
   LEXCH  = PE                                                                                      
   EATOM  =   103.0669 eV,    7.5752 Ry                                                             
                                                                                                    
   TITEL  = PAW_PBE Si 05Jan2001                                                                    
   LULTRA =        F    use ultrasoft PP ?                                                          
   IUNSCR =        1    unscreen: 0-lin 1-nonlin 2-no                                               
   RPACOR =    1.500    partial core radius                                                         
   POMASS =   28.085; ZVAL   =    4.000    mass and valenz                                          
   RCORE  =    1.900    outmost cutoff radius                                                       
   RWIGS  =    2.480; RWIGS  =    1.312    wigner-seitz radius (au A)                               
   ENMAX  =  245.345; ENMIN  =  184.009 eV                                                          
   ICORE  =        2    local potential                                                             
   LCOR   =        T    correct aug charges                                                         
   LPAW   =        T    paw PP                                                                      
   EAUG   =  322.069                                                                                
   DEXC   =    0.000                                                                                
   RMAX   =    1.950    core radius for proj-oper                                                   
   RAUG   =    1.300    factor for augmentation sphere                                              
   RDEP   =    1.993    radius for radial grids                                                     
   RDEPT  =    1.837    core radius for aug-charge                                                  
                                                                                                    
   Atomic configuration                                                                             
    6 entries                                                                                       
     n  l   j            E        occ.                                                              
     1  0  0.50     -1785.8828   2.0000                                                             
     2  0  0.50      -139.4969   2.0000                                                             
     2  1  1.50       -95.5546   6.0000                                                             
     3  0  0.50       -10.8127   2.0000                                                             
     3  1  0.50        -4.0811   2.0000                                                             
     3  2  1.50        -4.0817   0.0000                                                             
   Description                                                                                      
     l       E           TYP  RCUT    TYP  RCUT                                                     
     0    -10.8127223     23  1.900                                                                 
     0     -7.6451159     23  1.900                                                                 
     1     -4.0811372     23  1.900                                                                 
     1      2.4879257     23  1.900                                                                 
     2     -4.0817478      7  1.900                                                                 
  local pseudopotential read in
  partial core-charges read in
  partial kinetic energy density read in
  atomic valenz-charges read in
  non local Contribution for L=           0  read in
    real space projection operators read in
  non local Contribution for L=           0  read in
    real space projection operators read in
  non local Contribution for L=           1  read in
    real space projection operators read in
  non local Contribution for L=           1  read in
    real space projection operators read in
    PAW grid and wavefunctions read in
 
   number of l-projection  operators is LMAX  =           4
   number of lm-projection operators is LMMAX =           8
 
  PAW_PBE B 06Sep2000                   :
 energy of atom  1       EATOM=  -71.1703
 kinetic energy error for atom=    0.0007 (will be added to EATOM!!)
  PAW_PBE Mo_sv 02Feb2006               :
 energy of atom  2       EATOM=-1862.2866
 kinetic energy error for atom=    0.0041 (will be added to EATOM!!)
  PAW_PBE Si 05Jan2001                  :
 energy of atom  3       EATOM= -103.0669
 kinetic energy error for atom=    0.0003 (will be added to EATOM!!)
 
 
 POSCAR: EA82
  positions in direct lattice
  No initial velocities read in

 METAGGA = R2SCA    LMAXTAU =  6    LMIXTAU =  F

 exchange correlation table for  LEXCH =        8
   RHO(1)=    0.500       N(1)  =     2000
   RHO(2)=  100.500       N(2)  =     4000
 


--------------------------------------------------------------------------------------------------------


 ion  position               nearest neighbor table
   1  0.000  0.000  0.500-   9 1.92  10 1.92  13 1.92  14 1.92   5 2.00   7 2.00
   2  0.000  0.500  0.000-   6 1.92   8 1.92  11 1.92  12 1.92   7 2.00   5 2.00
   3  0.500  0.500  0.500-   9 1.92  10 1.92  13 1.92  14 1.92   7 2.00   5 2.00
   4  0.500  0.000  0.000-   6 1.92   8 1.92  11 1.92  12 1.92   7 2.00   5 2.00
   5  0.250  0.250  0.000-   2 2.00   4 2.00   3 2.00   1 2.00   8 2.77   6 2.77   9 2.77   9 2.77
                            10 2.77  10 2.77   8 2.77   6 2.77  11 2.78  12 2.78  14 2.78  14 2.78
   6  0.747  0.247  0.994-  12 0.16   2 1.92   4 1.92  13 2.72  14 2.72   7 2.77   5 2.77   7 2.77
                             5 2.77  10 2.83   9 2.83  10 2.83   9 2.83  14 2.95  13 2.95
   7  0.750  0.750  0.000-   2 2.00   4 2.00   1 2.00   3 2.00   8 2.77   6 2.77  10 2.77  10 2.77
                             9 2.77   9 2.77   8 2.77   6 2.77  12 2.78  11 2.78  13 2.78  13 2.78
   8  0.253  0.753  0.006-  11 0.16   2 1.92   4 1.92  13 2.72  14 2.72   5 2.77   7 2.77   7 2.77
                             5 2.77  10 2.83   9 2.83   9 2.83  10 2.83  13 2.95  14 2.95
   9  0.247  0.253  0.500-  14 0.16   1 1.92   3 1.92  12 2.72  11 2.72   5 2.77   5 2.77   7 2.77
                             7 2.77   8 2.83   6 2.83   8 2.83   6 2.83  11 2.95  12 2.95
  10  0.753  0.747  0.500-  13 0.16   1 1.92   3 1.92  12 2.72  11 2.72   7 2.77   7 2.77   5 2.77
                             5 2.77   8 2.83   6 2.83   8 2.83   6 2.83  12 2.95  11 2.95
  11  0.232  0.732  0.965-   8 0.16   2 1.92   4 1.92   9 2.72  10 2.72   5 2.78   7 2.78   7 2.78
                             5 2.78  14 2.84  13 2.84  14 2.84  13 2.84  10 2.95   9 2.95
  12  0.768  0.268  0.035-   6 0.16   2 1.92   4 1.92   9 2.72  10 2.72   7 2.78   5 2.78   5 2.78
                             7 2.78  13 2.84  14 2.84  13 2.84  14 2.84   9 2.95  10 2.95
  13  0.732  0.768  0.500-  10 0.16   3 1.92   1 1.92   8 2.72   6 2.72   7 2.78   7 2.78   5 2.78
                             5 2.78  12 2.84  11 2.84  12 2.84  11 2.84   8 2.95   6 2.95
  14  0.268  0.232  0.500-   9 0.16   3 1.92   1 1.92   8 2.72   6 2.72   5 2.78   5 2.78   7 2.78
                             7 2.78  12 2.84  11 2.84  12 2.84  11 2.84   6 2.95   8 2.95
 
 -----------------------------------------------------------------------------
|                                                                             |
|           W    W    AA    RRRRR   N    N  II  N    N   GGGG   !!!           |
|           W    W   A  A   R    R  NN   N  II  NN   N  G    G  !!!           |
|           W    W  A    A  R    R  N N  N  II  N N  N  G       !!!           |
|           W WW W  AAAAAA  RRRRR   N  N N  II  N  N N  G  GGG   !            |
|           WW  WW  A    A  R   R   N   NN  II  N   NN  G    G                |
|           W    W  A    A  R    R  N    N  II  N    N   GGGG   !!!           |
|                                                                             |
|     The distance between some ions is very small. Please check the          |
|     nearest-neighbor list in the OUTCAR file.                               |
|     I HOPE YOU KNOW WHAT YOU ARE DOING!                                     |
|                                                                             |
 -----------------------------------------------------------------------------

  LATTYP: Found a body centered tetragonal cell.
 ALAT       =     5.6690562136
 C/A-ratio  =     1.3530605297
  
  Lattice vectors:
  
 A1 = (   4.8732622477,   0.0000000000,  -2.6513643231)
 A2 = (  -1.7214917675,   4.5590734837,  -2.6513643231)
 A3 = (   0.0000000000,   0.0000000000,   5.5478300000)


Analysis of symmetry for initial positions (statically):
=====================================================================
 Subroutine PRICEL returns:
 Original cell was already a primitive cell.
 

 Routine SETGRP: Setting up the symmetry group for a 
 body centered tetragonal supercell.


 Subroutine GETGRP returns: Found 16 space group operations
 (whereof  8 operations were pure point group operations)
 out of a pool of 16 trial point group operations.


The static configuration has the point symmetry C_4h.
 The point group associated with its full space group is D_4h.


Analysis of symmetry for dynamics (positions and initial velocities):
=====================================================================
 Subroutine PRICEL returns:
 Original cell was already a primitive cell.
 

 Routine SETGRP: Setting up the symmetry group for a 
 body centered tetragonal supercell.


 Subroutine GETGRP returns: Found 16 space group operations
 (whereof  8 operations were pure point group operations)
 out of a pool of 16 trial point group operations.


The dynamic configuration has the point symmetry C_4h.
 The point group associated with its full space group is D_4h.


 Subroutine INISYM returns: Found 16 space group operations
 (whereof  8 operations are pure point group operations),
 and found     1 'primitive' translations


----------------------------------------------------------------------------------------

                                     Primitive cell                                     

  volume of cell :     123.2592

  direct lattice vectors                    reciprocal lattice vectors
     4.873262248  0.000000000 -2.651364323     0.205201352  0.077483383  0.000000000
    -1.721491768  4.559073484 -2.651364323     0.000000000  0.219342812  0.000000000
     0.000000000  0.000000000  5.547830000     0.098067811  0.141856255  0.180250657

  length of vectors
     5.547830000  5.547830000  5.547830000     0.219342812  0.219342812  0.249461002

  position of ions in fractional coordinates (direct lattice)
     0.000000000  0.000000000  0.500000000
     1.000000000  0.500000000  0.000000000
     0.500000000  0.500000000  0.500000000
     0.500000000  0.000000000  0.000000000
     0.250000000  0.250000000  0.000000000
     0.747060000  0.247060000  0.994110000
     0.750000000  0.750000000  0.000000000
     0.252940000  0.752940000  0.005890000
     0.247060000  0.252940000  0.500000000
     0.752940000  0.747060000  0.500000000
     0.232410000  0.732410000  0.964820000
     0.767590000  0.267590000  0.035180000
     0.732410000  0.767590000  0.500000000
     0.267590000  0.232410000  0.500000000

  ion indices of the primitive-cell ions
   primitive index   ion index
                 1           1
                 2           2
                 3           3
                 4           4
                 5           5
                 6           6
                 7           7
                 8           8
                 9           9
                10          10
                11          11
                12          12
                13          13
                14          14

----------------------------------------------------------------------------------------

 
 
 KPOINTS: EA                                      

Automatic generation of k-mesh.
 Grid dimensions read from file:
 generate k-points for:    8    8    9

 Generating k-lattice:

  Cartesian coordinates                     Fractional coordinates (reciprocal lattice)
     0.025650169  0.009685423  0.000000000     0.125000000 -0.000000000  0.000000000
     0.000000000  0.027417852  0.000000000     0.000000000  0.125000000  0.000000000
     0.010896423  0.015761806  0.020027851     0.000000000  0.000000000  0.111111111

  Length of vectors
     0.027417852  0.027417852  0.027717889

  Shift w.r.t. Gamma in fractional coordinates (k-lattice)
     0.000000000  0.000000000  0.000000000

 -----------------------------------------------------------------------------
|                                                                             |
|           W    W    AA    RRRRR   N    N  II  N    N   GGGG   !!!           |
|           W    W   A  A   R    R  NN   N  II  NN   N  G    G  !!!           |
|           W    W  A    A  R    R  N N  N  II  N N  N  G       !!!           |
|           W WW W  AAAAAA  RRRRR   N  N N  II  N  N N  G  GGG   !            |
|           WW  WW  A    A  R   R   N   NN  II  N   NN  G    G                |
|           W    W  A    A  R    R  N    N  II  N    N   GGGG   !!!           |
|                                                                             |
|     Your reciprocal lattice and k-lattice belong to different lattice       |
|     classes:                                                                |
|                                                                             |
|        The reciprocal lattice is body-centered tetragonal,                  |
|        whereas your k-lattice is base-centered monoclinic.                  |
|                                                                             |
|     Results are often still useful ...                                      |
|                                                                             |
 -----------------------------------------------------------------------------

 WARNING: IBZKPT: internal override: KBLOWUP is changed to .FALSE.
      ... skipping the blow-up phase ...

 
 Subroutine IBZKPT returns following result:
 ===========================================
 
 Found    165 irreducible k-points:
 
 Following reciprocal coordinates:
            Coordinates               Weight
  0.000000  0.000000  0.000000      1.000000
  0.125000  0.000000  0.000000      4.000000
  0.250000  0.000000  0.000000      4.000000
  0.375000  0.000000  0.000000      4.000000
  0.500000  0.000000  0.000000      2.000000
  0.125000  0.125000  0.000000      2.000000
  0.250000  0.125000  0.000000      4.000000
  0.375000  0.125000  0.000000      4.000000
  0.500000  0.125000  0.000000      4.000000
 -0.375000  0.125000  0.000000      4.000000
 -0.250000  0.125000  0.000000      4.000000
 -0.125000  0.125000  0.000000      2.000000
  0.250000  0.250000  0.000000      2.000000
  0.375000  0.250000  0.000000      4.000000
  0.500000  0.250000  0.000000      4.000000
 -0.375000  0.250000  0.000000      4.000000
 -0.250000  0.250000  0.000000      2.000000
  0.375000  0.375000  0.000000      2.000000
  0.500000  0.375000  0.000000      4.000000
 -0.375000  0.375000  0.000000      2.000000
  0.500000  0.500000  0.000000      1.000000
 -0.000000 -0.000000  0.111111      2.000000
  0.125000  0.000000  0.111111      4.000000
  0.250000 -0.000000  0.111111      4.000000
  0.375000 -0.000000  0.111111      4.000000
  0.500000 -0.000000  0.111111      4.000000
 -0.375000 -0.000000  0.111111      4.000000
 -0.250000  0.000000  0.111111      4.000000
 -0.125000 -0.000000  0.111111      4.000000
  0.125000  0.125000  0.111111      2.000000
  0.250000  0.125000  0.111111      4.000000
  0.375000  0.125000  0.111111      4.000000
  0.500000  0.125000  0.111111      4.000000
 -0.375000  0.125000  0.111111      4.000000
 -0.250000  0.125000  0.111111      4.000000
 -0.125000  0.125000  0.111111      4.000000
  0.250000  0.250000  0.111111      2.000000
  0.375000  0.250000  0.111111      4.000000
  0.500000  0.250000  0.111111      4.000000
 -0.375000  0.250000  0.111111      4.000000
 -0.250000  0.250000  0.111111      4.000000
 -0.125000  0.250000  0.111111      4.000000
  0.375000  0.375000  0.111111      2.000000
  0.500000  0.375000  0.111111      4.000000
 -0.375000  0.375000  0.111111      4.000000
 -0.250000  0.375000  0.111111      4.000000
 -0.125000  0.375000  0.111111      4.000000
  0.500000  0.500000  0.111111      2.000000
 -0.375000  0.500000  0.111111      4.000000
 -0.250000  0.500000  0.111111      4.000000
 -0.125000  0.500000  0.111111      4.000000
 -0.375000 -0.375000  0.111111      2.000000
 -0.250000 -0.375000  0.111111      4.000000
 -0.125000 -0.375000  0.111111      4.000000
 -0.250000 -0.250000  0.111111      2.000000
 -0.125000 -0.250000  0.111111      4.000000
 -0.125000 -0.125000  0.111111      2.000000
  0.000000 -0.000000  0.222222      2.000000
  0.125000 -0.000000  0.222222      4.000000
  0.250000 -0.000000  0.222222      4.000000
  0.375000 -0.000000  0.222222      4.000000
  0.500000 -0.000000  0.222222      4.000000
 -0.375000  0.000000  0.222222      4.000000
 -0.250000  0.000000  0.222222      4.000000
 -0.125000  0.000000  0.222222      4.000000
  0.125000  0.125000  0.222222      2.000000
  0.250000  0.125000  0.222222      4.000000
  0.375000  0.125000  0.222222      4.000000
  0.500000  0.125000  0.222222      4.000000
 -0.375000  0.125000  0.222222      4.000000
 -0.250000  0.125000  0.222222      4.000000
 -0.125000  0.125000  0.222222      4.000000
  0.250000  0.250000  0.222222      2.000000
  0.375000  0.250000  0.222222      4.000000
  0.500000  0.250000  0.222222      4.000000
 -0.375000  0.250000  0.222222      4.000000
 -0.250000  0.250000  0.222222      4.000000
 -0.125000  0.250000  0.222222      4.000000
  0.375000  0.375000  0.222222      2.000000
  0.500000  0.375000  0.222222      4.000000
 -0.375000  0.375000  0.222222      4.000000
 -0.250000  0.375000  0.222222      4.000000
 -0.125000  0.375000  0.222222      4.000000
  0.500000  0.500000  0.222222      2.000000
 -0.375000  0.500000  0.222222      4.000000
 -0.250000  0.500000  0.222222      4.000000
 -0.125000  0.500000  0.222222      4.000000
 -0.375000 -0.375000  0.222222      2.000000
 -0.250000 -0.375000  0.222222      4.000000
 -0.125000 -0.375000  0.222222      4.000000
 -0.250000 -0.250000  0.222222      2.000000
 -0.125000 -0.250000  0.222222      4.000000
 -0.125000 -0.125000  0.222222      2.000000
 -0.000000 -0.000000  0.333333      2.000000
  0.125000 -0.000000  0.333333      4.000000
  0.250000 -0.000000  0.333333      4.000000
  0.375000 -0.000000  0.333333      4.000000
  0.500000 -0.000000  0.333333      4.000000
 -0.375000 -0.000000  0.333333      4.000000
 -0.250000 -0.000000  0.333333      4.000000
 -0.125000 -0.000000  0.333333      4.000000
  0.125000  0.125000  0.333333      2.000000
  0.250000  0.125000  0.333333      4.000000
  0.375000  0.125000  0.333333      4.000000
  0.500000  0.125000  0.333333      4.000000
 -0.375000  0.125000  0.333333      4.000000
 -0.250000  0.125000  0.333333      4.000000
 -0.125000  0.125000  0.333333      4.000000
  0.250000  0.250000  0.333333      2.000000
  0.375000  0.250000  0.333333      4.000000
  0.500000  0.250000  0.333333      4.000000
 -0.375000  0.250000  0.333333      4.000000
 -0.250000  0.250000  0.333333      4.000000
 -0.125000  0.250000  0.333333      4.000000
  0.375000  0.375000  0.333333      2.000000
  0.500000  0.375000  0.333333      4.000000
 -0.375000  0.375000  0.333333      4.000000
 -0.250000  0.375000  0.333333      4.000000
 -0.125000  0.375000  0.333333      4.000000
  0.500000  0.500000  0.333333      2.000000
 -0.375000  0.500000  0.333333      4.000000
 -0.250000  0.500000  0.333333      4.000000
 -0.125000  0.500000  0.333333      4.000000
 -0.375000 -0.375000  0.333333      2.000000
 -0.250000 -0.375000  0.333333      4.000000
 -0.125000 -0.375000  0.333333      4.000000
 -0.250000 -0.250000  0.333333      2.000000
 -0.125000 -0.250000  0.333333      4.000000
 -0.125000 -0.125000  0.333333      2.000000
  0.000000 -0.000000  0.444444      2.000000
  0.125000 -0.000000  0.444444      4.000000
  0.250000 -0.000000  0.444444      4.000000
  0.375000 -0.000000  0.444444      4.000000
  0.500000 -0.000000  0.444444      4.000000
 -0.375000 -0.000000  0.444444      4.000000
 -0.250000  0.000000  0.444444      4.000000
 -0.125000 -0.000000  0.444444      4.000000
  0.125000  0.125000  0.444444      2.000000
  0.250000  0.125000  0.444444      4.000000
  0.375000  0.125000  0.444444      4.000000
  0.500000  0.125000  0.444444      4.000000
 -0.375000  0.125000  0.444444      4.000000
 -0.250000  0.125000  0.444444      4.000000
 -0.125000  0.125000  0.444444      4.000000
  0.250000  0.250000  0.444444      2.000000
  0.375000  0.250000  0.444444      4.000000
  0.500000  0.250000  0.444444      4.000000
 -0.375000  0.250000  0.444444      4.000000
 -0.250000  0.250000  0.444444      4.000000
 -0.125000  0.250000  0.444444      4.000000
  0.375000  0.375000  0.444444      2.000000
  0.500000  0.375000  0.444444      4.000000
 -0.375000  0.375000  0.444444      4.000000
 -0.250000  0.375000  0.444444      4.000000
 -0.125000  0.375000  0.444444      4.000000
  0.500000  0.500000  0.444444      2.000000
 -0.375000  0.500000  0.444444      4.000000
 -0.250000  0.500000  0.444444      4.000000
 -0.125000  0.500000  0.444444      4.000000
 -0.375000 -0.375000  0.444444      2.000000
 -0.250000 -0.375000  0.444444      4.000000
 -0.125000 -0.375000  0.444444      4.000000
 -0.250000 -0.250000  0.444444      2.000000
 -0.125000 -0.250000  0.444444      4.000000
 -0.125000 -0.125000  0.444444      2.000000
 
 Following cartesian coordinates:
            Coordinates               Weight
  0.000000  0.000000  0.000000      1.000000
  0.025650  0.009685  0.000000      4.000000
  0.051300  0.019371  0.000000      4.000000
  0.076951  0.029056  0.000000      4.000000
  0.102601  0.038742  0.000000      2.000000
  0.025650  0.037103  0.000000      2.000000
  0.051300  0.046789  0.000000      4.000000
  0.076951  0.056474  0.000000      4.000000
  0.102601  0.066160  0.000000      4.000000
 -0.076951 -0.001638  0.000000      4.000000
 -0.051300  0.008047  0.000000      4.000000
 -0.025650  0.017732  0.000000      2.000000
  0.051300  0.074207  0.000000      2.000000
  0.076951  0.083892  0.000000      4.000000
  0.102601  0.093577  0.000000      4.000000
 -0.076951  0.025779  0.000000      4.000000
 -0.051300  0.035465  0.000000      2.000000
  0.076951  0.111310  0.000000      2.000000
  0.102601  0.120995  0.000000      4.000000
 -0.076951  0.053197  0.000000      2.000000
  0.102601  0.148413  0.000000      1.000000
  0.010896  0.015762  0.020028      2.000000
  0.036547  0.025447  0.020028      4.000000
  0.062197  0.035133  0.020028      4.000000
  0.087847  0.044818  0.020028      4.000000
  0.113497  0.054503  0.020028      4.000000
 -0.066054 -0.013294  0.020028      4.000000
 -0.040404 -0.003609  0.020028      4.000000
 -0.014754  0.006076  0.020028      4.000000
  0.036547  0.052865  0.020028      2.000000
  0.062197  0.062551  0.020028      4.000000
  0.087847  0.072236  0.020028      4.000000
  0.113497  0.081921  0.020028      4.000000
 -0.066054  0.014123  0.020028      4.000000
 -0.040404  0.023809  0.020028      4.000000
 -0.014754  0.033494  0.020028      4.000000
  0.062197  0.089968  0.020028      2.000000
  0.087847  0.099654  0.020028      4.000000
  0.113497  0.109339  0.020028      4.000000
 -0.066054  0.041541  0.020028      4.000000
 -0.040404  0.051227  0.020028      4.000000
 -0.014754  0.060912  0.020028      4.000000
  0.087847  0.127072  0.020028      2.000000
  0.113497  0.136757  0.020028      4.000000
 -0.066054  0.068959  0.020028      4.000000
 -0.040404  0.078645  0.020028      4.000000
 -0.014754  0.088330  0.020028      4.000000
  0.113497  0.164175  0.020028      2.000000
 -0.066054  0.096377  0.020028      4.000000
 -0.040404  0.106062  0.020028      4.000000
 -0.014754  0.115748  0.020028      4.000000
 -0.066054 -0.095548  0.020028      2.000000
 -0.040404 -0.085863  0.020028      4.000000
 -0.014754 -0.076177  0.020028      4.000000
 -0.040404 -0.058445  0.020028      2.000000
 -0.014754 -0.048759  0.020028      4.000000
 -0.014754 -0.021341  0.020028      2.000000
  0.021793  0.031524  0.040056      2.000000
  0.047443  0.041209  0.040056      4.000000
  0.073093  0.050894  0.040056      4.000000
  0.098743  0.060580  0.040056      4.000000
  0.124394  0.070265  0.040056      4.000000
 -0.055158  0.002467  0.040056      4.000000
 -0.029507  0.012153  0.040056      4.000000
 -0.003857  0.021838  0.040056      4.000000
  0.047443  0.068627  0.040056      2.000000
  0.073093  0.078312  0.040056      4.000000
  0.098743  0.087998  0.040056      4.000000
  0.124394  0.097683  0.040056      4.000000
 -0.055158  0.029885  0.040056      4.000000
 -0.029507  0.039571  0.040056      4.000000
 -0.003857  0.049256  0.040056      4.000000
  0.073093  0.105730  0.040056      2.000000
  0.098743  0.115416  0.040056      4.000000
  0.124394  0.125101  0.040056      4.000000
 -0.055158  0.057303  0.040056      4.000000
 -0.029507  0.066988  0.040056      4.000000
 -0.003857  0.076674  0.040056      4.000000
  0.098743  0.142833  0.040056      2.000000
  0.124394  0.152519  0.040056      4.000000
 -0.055158  0.084721  0.040056      4.000000
 -0.029507  0.094406  0.040056      4.000000
 -0.003857  0.104092  0.040056      4.000000
  0.124394  0.179937  0.040056      2.000000
 -0.055158  0.112139  0.040056      4.000000
 -0.029507  0.121824  0.040056      4.000000
 -0.003857  0.131510  0.040056      4.000000
 -0.055158 -0.079786  0.040056      2.000000
 -0.029507 -0.070101  0.040056      4.000000
 -0.003857 -0.060415  0.040056      4.000000
 -0.029507 -0.042683  0.040056      2.000000
 -0.003857 -0.032998  0.040056      4.000000
 -0.003857 -0.005580  0.040056      2.000000
  0.032689  0.047285  0.060084      2.000000
  0.058339  0.056971  0.060084      4.000000
  0.083990  0.066656  0.060084      4.000000
  0.109640  0.076342  0.060084      4.000000
  0.135290  0.086027  0.060084      4.000000
 -0.044261  0.018229  0.060084      4.000000
 -0.018611  0.027915  0.060084      4.000000
  0.007039  0.037600  0.060084      4.000000
  0.058339  0.084389  0.060084      2.000000
  0.083990  0.094074  0.060084      4.000000
  0.109640  0.103760  0.060084      4.000000
  0.135290  0.113445  0.060084      4.000000
 -0.044261  0.045647  0.060084      4.000000
 -0.018611  0.055332  0.060084      4.000000
  0.007039  0.065018  0.060084      4.000000
  0.083990  0.121492  0.060084      2.000000
  0.109640  0.131177  0.060084      4.000000
  0.135290  0.140863  0.060084      4.000000
 -0.044261  0.073065  0.060084      4.000000
 -0.018611  0.082750  0.060084      4.000000
  0.007039  0.092436  0.060084      4.000000
  0.109640  0.158595  0.060084      2.000000
  0.135290  0.168281  0.060084      4.000000
 -0.044261  0.100483  0.060084      4.000000
 -0.018611  0.110168  0.060084      4.000000
  0.007039  0.119854  0.060084      4.000000
  0.135290  0.195699  0.060084      2.000000
 -0.044261  0.127901  0.060084      4.000000
 -0.018611  0.137586  0.060084      4.000000
  0.007039  0.147271  0.060084      4.000000
 -0.044261 -0.064024  0.060084      2.000000
 -0.018611 -0.054339  0.060084      4.000000
  0.007039 -0.044654  0.060084      4.000000
 -0.018611 -0.026921  0.060084      2.000000
  0.007039 -0.017236  0.060084      4.000000
  0.007039  0.010182  0.060084      2.000000
  0.043586  0.063047  0.080111      2.000000
  0.069236  0.072733  0.080111      4.000000
  0.094886  0.082418  0.080111      4.000000
  0.120536  0.092103  0.080111      4.000000
  0.146186  0.101789  0.080111      4.000000
 -0.033365  0.033991  0.080111      4.000000
 -0.007715  0.043676  0.080111      4.000000
  0.017936  0.053362  0.080111      4.000000
  0.069236  0.100150  0.080111      2.000000
  0.094886  0.109836  0.080111      4.000000
  0.120536  0.119521  0.080111      4.000000
  0.146186  0.129207  0.080111      4.000000
 -0.033365  0.061409  0.080111      4.000000
 -0.007715  0.071094  0.080111      4.000000
  0.017936  0.080780  0.080111      4.000000
  0.094886  0.137254  0.080111      2.000000
  0.120536  0.146939  0.080111      4.000000
  0.146186  0.156625  0.080111      4.000000
 -0.033365  0.088827  0.080111      4.000000
 -0.007715  0.098512  0.080111      4.000000
  0.017936  0.108198  0.080111      4.000000
  0.120536  0.174357  0.080111      2.000000
  0.146186  0.184042  0.080111      4.000000
 -0.033365  0.116245  0.080111      4.000000
 -0.007715  0.125930  0.080111      4.000000
  0.017936  0.135615  0.080111      4.000000
  0.146186  0.211460  0.080111      2.000000
 -0.033365  0.143662  0.080111      4.000000
 -0.007715  0.153348  0.080111      4.000000
  0.017936  0.163033  0.080111      4.000000
 -0.033365 -0.048263  0.080111      2.000000
 -0.007715 -0.038577  0.080111      4.000000
  0.017936 -0.028892  0.080111      4.000000
 -0.007715 -0.011159  0.080111      2.000000
  0.017936 -0.001474  0.080111      4.000000
  0.017936  0.025944  0.080111      2.000000
 


--------------------------------------------------------------------------------------------------------




 Dimension of arrays:
   k-points           NKPTS =    165   k-points in BZ     NKDIM =    165   number of bands    NBANDS=     72
   number of dos      NEDOS =    301   number of ions     NIONS =     14
   non local maximal  LDIM  =      6   non local SUM 2l+1 LMDIM =     18
   total plane-waves  NPLWV = 110592
   max r-space proj   IRMAX =      1   max aug-charges    IRDMAX= 314061
   dimension x,y,z NGX =    48 NGY =   48 NGZ =   48
   dimension x,y,z NGXF=    96 NGYF=   96 NGZF=   96
   support grid    NGXF=   192 NGYF=  192 NGZF=  192
   ions per type =               4   6   4
   NGX,Y,Z   is equivalent  to a cutoff of  14.38, 14.38, 14.38 a.u.
   NGXF,Y,Z  is equivalent  to a cutoff of  28.77, 28.77, 28.77 a.u.

 SYSTEM =  routine with relax: pwdword             
 POSCAR =  EA82                                    

 Startparameter for this run:
   NWRITE =      2    write-flag & timer
   PREC   = acc       normal or accurate (medium, high low for compatibility)
   ISTART =      0    job   : 0-new  1-cont  2-samecut
   ICHARG =      2    charge: 1-file 2-atom 10-const
   ISPIN  =      1    spin polarized calculation?
   LNONCOLLINEAR =      F non collinear calculations
   LSORBIT =      F    spin-orbit coupling
   INIWAV =      1    electr: 0-lowe 1-rand  2-diag
   LASPH  =      T    aspherical Exc in radial PAW
   METAGGA=      F    non-selfconsistent MetaGGA calc.

 Electronic Relaxation 1
   ENCUT  =  600.0 eV  44.10 Ry    6.64 a.u.  11.08 11.08 11.08*2*pi/ulx,y,z
   ENINI  =  600.0     initial cutoff
   ENAUG  =  535.5 eV  augmentation charge cutoff
   NELM   =    100;   NELMIN=  6; NELMDL= -5     # of ELM steps 
   EDIFF  = 0.1E-08   stopping-criterion for ELM
   LREAL  =      F    real-space projection
   NLSPLINE    = F    spline interpolate recip. space projectors
   LCOMPAT=      F    compatible to vasp.4.4
   GGA_COMPAT  = T    GGA compatible to vasp.4.4-vasp.4.6
   LMAXPAW     = -100 max onsite density
   LMAXMIX     =    2 max onsite mixed and CHGCAR
   VOSKOWN=      0    Vosko Wilk Nusair interpolation
   ROPT   =    0.00000   0.00000   0.00000
 Ionic relaxation
   EDIFFG = 0.1E-07   stopping-criterion for IOM
   NSW    =      0    number of steps for IOM
   NBLOCK =      1;   KBLOCK =      1    inner block; outer block 
   IBRION =     -1    ionic relax: 0-MD 1-quasi-New 2-CG
   NFREE  =      0    steps in history (QN), initial steepest desc. (CG)
   ISIF   =     -1    stress and relaxation
   IWAVPR =     10    prediction:  0-non 1-charg 2-wave 3-comb
   ISYM   =      2    0-nonsym 1-usesym 2-fastsym
   LCORR  =      T    Harris-Foulkes like correction to forces

   POTIM  = 0.5000    time-step for ionic-motion
   TEIN   =    0.0    initial temperature
   TEBEG  =    0.0;   TEEND  =   0.0 temperature during run
   SMASS  =  -3.00    Nose mass-parameter (am)
   estimated Nose-frequenzy (Omega)   =  0.10E-29 period in steps = 0.13E+47 mass=  -0.703E-27a.u.
   SCALEE = 1.0000    scale energy and forces
   NPACO  =    256;   APACO  = 16.0  distance and # of slots for P.C.
   PSTRESS=    0.0 pullay stress

  Mass of Ions in am
   POMASS =  10.81 95.94 28.09
  Ionic Valenz
   ZVAL   =   3.00 14.00  4.00
  Atomic Wigner-Seitz radii
   RWIGS  =  -1.00 -1.00 -1.00
  virtual crystal weights 
   VCA    =   1.00  1.00  1.00
   NELECT =     112.0000    total number of electrons
   NUPDOWN=      -1.0000    fix difference up-down

 DOS related values:
   EMIN   =  10.00;   EMAX   =-10.00  energy-range for DOS
   EFERMI =   0.00
   ISMEAR =     0;   SIGMA  =   0.02  broadening in eV -4-tet -1-fermi 0-gaus

 Electronic relaxation 2 (details)
   IALGO  =     58    algorithm
   LDIAG  =      T    sub-space diagonalisation (order eigenvalues)
   LSUBROT=      F    optimize rotation matrix (better conditioning)
   TURBO    =      0    0=normal 1=particle mesh
   IRESTART =      0    0=no restart 2=restart with 2 vectors
   NREBOOT  =      0    no. of reboots
   NMIN     =      0    reboot dimension
   EREF     =   0.00    reference energy to select bands
   IMIX   =      4    mixing-type and parameters
     AMIX     =   0.40;   BMIX     =  1.00
     AMIX_MAG =   1.60;   BMIX_MAG =  1.00
     AMIN     =   0.10
     WC   =   100.;   INIMIX=   1;  MIXPRE=   1;  MAXMIX= -45

 Intra band minimization:
   WEIMIN = 0.0000     energy-eigenvalue tresh-hold
   EBREAK =  0.35E-11  absolut break condition
   DEPER  =   0.30     relativ break condition  

   TIME   =   0.40     timestep for ELM

  volume/ion in A,a.u.               =       8.80        59.41
  Fermi-wavevector in a.u.,A,eV,Ry     =   1.585651  2.996446 34.208989  2.514290
  Thomas-Fermi vector in A             =   2.685083
 
 Write flags
   LWAVE        =      T    write WAVECAR
   LDOWNSAMPLE  =      F    k-point downsampling of WAVECAR
   LCHARG       =      T    write CHGCAR
   LVTOT        =      F    write LOCPOT, total local potential
   LVHAR        =      F    write LOCPOT, Hartree potential only
   LELF         =      F    write electronic localiz. function (ELF)
   LORBIT       =      0    0 simple, 1 ext, 2 COOP (PROOUT), +10 PAW based schemes


 Dipole corrections
   LMONO  =      F    monopole corrections only (constant potential shift)
   LDIPOL =      F    correct potential (dipole corrections)
   IDIPOL =      0    1-x, 2-y, 3-z, 4-all directions 
   EPSILON=  1.0000000 bulk dielectric constant

 Exchange correlation treatment:
   GGA     =    --    GGA type
   LEXCH   =     8    internal setting for exchange type
   VOSKOWN=      0    Vosko Wilk Nusair interpolation
   LHFCALC =     F    Hartree Fock is set to
   LHFONE  =     F    Hartree Fock one center treatment
   AEXX    =    0.0000 exact exchange contribution

 Linear response parameters
   LEPSILON=     F    determine dielectric tensor
   LRPA    =     F    only Hartree local field effects (RPA)
   LNABLA  =     F    use nabla operator in PAW spheres
   LVEL    =     F    velocity operator in full k-point grid
   LINTERFAST=   F  fast interpolation
   KINTER  =     0    interpolate to denser k-point grid
   CSHIFT  =0.1000    complex shift for real part using Kramers Kronig
   OMEGAMAX=  -1.0    maximum frequency
   DEG_THRESHOLD= 0.2000000E-02 threshold for treating states as degnerate
   RTIME   =   -0.100 relaxation time in fs
  (WPLASMAI=    0.000 imaginary part of plasma frequency in eV, 0.658/RTIME)
   DFIELD  = 0.0000000 0.0000000 0.0000000 field for delta impulse in time
 
 Orbital magnetization related:
   ORBITALMAG=     F  switch on orbital magnetization
   LCHIMAG   =     F  perturbation theory with respect to B field
   DQ        =  0.001000  dq finite difference perturbation B field
   LLRAUG    =     F  two centre corrections for induced B field



--------------------------------------------------------------------------------------------------------


 Static calculation
 charge density and potential will be updated during run
 non-spin polarized calculation
 Conjugate gradient for all bands (Freysoldt, et al. PRB 79, 241103 (2009))
 preconditioned conjugated gradient                                        
 perform sub-space diagonalisation
    before iterative eigenvector-optimisation
 modified Broyden-mixing scheme, WC =      100.0
 initial mixing is a Kerker type mixing with AMIX =  0.4000 and BMIX =      1.0000
 Hartree-type preconditioning will be used
 using additional bands           16
 reciprocal scheme for non local part
 use partial core corrections
 no Harris-corrections to forces 
 use gradient corrections 
 use of overlap-Matrix (Vanderbilt PP)
 Gauss-broadening in eV      SIGMA  =   0.02


--------------------------------------------------------------------------------------------------------


  energy-cutoff  :      600.00
  volume of cell :      123.26
      direct lattice vectors                 reciprocal lattice vectors
     4.873262248  0.000000000 -2.651364323     0.205201352  0.077483383  0.000000000
    -1.721491768  4.559073484 -2.651364323     0.000000000  0.219342812  0.000000000
     0.000000000  0.000000000  5.547830000     0.098067811  0.141856255  0.180250657

  length of vectors
     5.547830000  5.547830000  5.547830000     0.219342812  0.219342812  0.249461002


 
 k-points in units of 2pi/SCALE and weight: EA                                      
   0.00000000  0.00000000  0.00000000       0.002
   0.02565017  0.00968542  0.00000000       0.007
   0.05130034  0.01937085  0.00000000       0.007
   0.07695051  0.02905627  0.00000000       0.007
   0.10260068  0.03874169  0.00000000       0.003
   0.02565017  0.03710327  0.00000000       0.003
   0.05130034  0.04678870  0.00000000       0.007
   0.07695051  0.05647412  0.00000000       0.007
   0.10260068  0.06615954  0.00000000       0.007
  -0.07695051 -0.00163842  0.00000000       0.007
  -0.05130034  0.00804701  0.00000000       0.007
  -0.02565017  0.01773243  0.00000000       0.003
   0.05130034  0.07420655  0.00000000       0.003
   0.07695051  0.08389197  0.00000000       0.007
   0.10260068  0.09357739  0.00000000       0.007
  -0.07695051  0.02577943  0.00000000       0.007
  -0.05130034  0.03546486  0.00000000       0.003
   0.07695051  0.11130982  0.00000000       0.003
   0.10260068  0.12099525  0.00000000       0.007
  -0.07695051  0.05319729  0.00000000       0.003
   0.10260068  0.14841310  0.00000000       0.002
   0.01089642  0.01576181  0.02002785       0.003
   0.03654659  0.02544723  0.02002785       0.007
   0.06219676  0.03513265  0.02002785       0.007
   0.08784693  0.04481807  0.02002785       0.007
   0.11349710  0.05450350  0.02002785       0.007
  -0.06605408 -0.01329446  0.02002785       0.007
  -0.04040391 -0.00360904  0.02002785       0.007
  -0.01475375  0.00607638  0.02002785       0.007
   0.03654659  0.05286508  0.02002785       0.003
   0.06219676  0.06255050  0.02002785       0.007
   0.08784693  0.07223593  0.02002785       0.007
   0.11349710  0.08192135  0.02002785       0.007
  -0.06605408  0.01412339  0.02002785       0.007
  -0.04040391  0.02380881  0.02002785       0.007
  -0.01475375  0.03349423  0.02002785       0.007
   0.06219676  0.08996835  0.02002785       0.003
   0.08784693  0.09965378  0.02002785       0.007
   0.11349710  0.10933920  0.02002785       0.007
  -0.06605408  0.04154124  0.02002785       0.007
  -0.04040391  0.05122666  0.02002785       0.007
  -0.01475375  0.06091209  0.02002785       0.007
   0.08784693  0.12707163  0.02002785       0.003
   0.11349710  0.13675705  0.02002785       0.007
  -0.06605408  0.06895909  0.02002785       0.007
  -0.04040391  0.07864451  0.02002785       0.007
  -0.01475375  0.08832994  0.02002785       0.007
   0.11349710  0.16417490  0.02002785       0.003
  -0.06605408  0.09637694  0.02002785       0.007
  -0.04040391  0.10606237  0.02002785       0.007
  -0.01475375  0.11574779  0.02002785       0.007
  -0.06605408 -0.09554802  0.02002785       0.003
  -0.04040391 -0.08586259  0.02002785       0.007
  -0.01475375 -0.07617717  0.02002785       0.007
  -0.04040391 -0.05844474  0.02002785       0.003
  -0.01475375 -0.04875932  0.02002785       0.007
  -0.01475375 -0.02134147  0.02002785       0.003
   0.02179285  0.03152361  0.04005570       0.003
   0.04744302  0.04120904  0.04005570       0.007
   0.07309318  0.05089446  0.04005570       0.007
   0.09874335  0.06057988  0.04005570       0.007
   0.12439352  0.07026530  0.04005570       0.007
  -0.05515766  0.00246734  0.04005570       0.007
  -0.02950749  0.01215277  0.04005570       0.007
  -0.00385732  0.02183819  0.04005570       0.007
   0.04744302  0.06862689  0.04005570       0.003
   0.07309318  0.07831231  0.04005570       0.007
   0.09874335  0.08799773  0.04005570       0.007
   0.12439352  0.09768316  0.04005570       0.007
  -0.05515766  0.02988520  0.04005570       0.007
  -0.02950749  0.03957062  0.04005570       0.007
  -0.00385732  0.04925604  0.04005570       0.007
   0.07309318  0.10573016  0.04005570       0.003
   0.09874335  0.11541558  0.04005570       0.007
   0.12439352  0.12510101  0.04005570       0.007
  -0.05515766  0.05730305  0.04005570       0.007
  -0.02950749  0.06698847  0.04005570       0.007
  -0.00385732  0.07667389  0.04005570       0.007
   0.09874335  0.14283344  0.04005570       0.003
   0.12439352  0.15251886  0.04005570       0.007
  -0.05515766  0.08472090  0.04005570       0.007
  -0.02950749  0.09440632  0.04005570       0.007
  -0.00385732  0.10409174  0.04005570       0.007
   0.12439352  0.17993671  0.04005570       0.003
  -0.05515766  0.11213875  0.04005570       0.007
  -0.02950749  0.12182417  0.04005570       0.007
  -0.00385732  0.13150960  0.04005570       0.007
  -0.05515766 -0.07978621  0.04005570       0.003
  -0.02950749 -0.07010079  0.04005570       0.007
  -0.00385732 -0.06041537  0.04005570       0.007
  -0.02950749 -0.04268294  0.04005570       0.003
  -0.00385732 -0.03299751  0.04005570       0.007
  -0.00385732 -0.00557966  0.04005570       0.003
   0.03268927  0.04728542  0.06008355       0.003
   0.05833944  0.05697084  0.06008355       0.007
   0.08398961  0.06665626  0.06008355       0.007
   0.10963978  0.07634169  0.06008355       0.007
   0.13528995  0.08602711  0.06008355       0.007
  -0.04426124  0.01822915  0.06008355       0.007
  -0.01861107  0.02791457  0.06008355       0.007
   0.00703910  0.03760000  0.06008355       0.007
   0.05833944  0.08438869  0.06008355       0.003
   0.08398961  0.09407412  0.06008355       0.007
   0.10963978  0.10375954  0.06008355       0.007
   0.13528995  0.11344496  0.06008355       0.007
  -0.04426124  0.04564700  0.06008355       0.007
  -0.01861107  0.05533242  0.06008355       0.007
   0.00703910  0.06501785  0.06008355       0.007
   0.08398961  0.12149197  0.06008355       0.003
   0.10963978  0.13117739  0.06008355       0.007
   0.13528995  0.14086281  0.06008355       0.007
  -0.04426124  0.07306485  0.06008355       0.007
  -0.01861107  0.08275028  0.06008355       0.007
   0.00703910  0.09243570  0.06008355       0.007
   0.10963978  0.15859524  0.06008355       0.003
   0.13528995  0.16828066  0.06008355       0.007
  -0.04426124  0.10048270  0.06008355       0.007
  -0.01861107  0.11016813  0.06008355       0.007
   0.00703910  0.11985355  0.06008355       0.007
   0.13528995  0.19569852  0.06008355       0.003
  -0.04426124  0.12790056  0.06008355       0.007
  -0.01861107  0.13758598  0.06008355       0.007
   0.00703910  0.14727140  0.06008355       0.007
  -0.04426124 -0.06402441  0.06008355       0.003
  -0.01861107 -0.05433898  0.06008355       0.007
   0.00703910 -0.04465356  0.06008355       0.007
  -0.01861107 -0.02692113  0.06008355       0.003
   0.00703910 -0.01723571  0.06008355       0.007
   0.00703910  0.01018214  0.06008355       0.003
   0.04358569  0.06304722  0.08011140       0.003
   0.06923586  0.07273265  0.08011140       0.007
   0.09488603  0.08241807  0.08011140       0.007
   0.12053620  0.09210349  0.08011140       0.007
   0.14618637  0.10178892  0.08011140       0.007
  -0.03336481  0.03399096  0.08011140       0.007
  -0.00771464  0.04367638  0.08011140       0.007
   0.01793552  0.05336180  0.08011140       0.007
   0.06923586  0.10015050  0.08011140       0.003
   0.09488603  0.10983592  0.08011140       0.007
   0.12053620  0.11952134  0.08011140       0.007
   0.14618637  0.12920677  0.08011140       0.007
  -0.03336481  0.06140881  0.08011140       0.007
  -0.00771464  0.07109423  0.08011140       0.007
   0.01793552  0.08077965  0.08011140       0.007
   0.09488603  0.13725377  0.08011140       0.003
   0.12053620  0.14693920  0.08011140       0.007
   0.14618637  0.15662462  0.08011140       0.007
  -0.03336481  0.08882666  0.08011140       0.007
  -0.00771464  0.09851208  0.08011140       0.007
   0.01793552  0.10819750  0.08011140       0.007
   0.12053620  0.17435705  0.08011140       0.003
   0.14618637  0.18404247  0.08011140       0.007
  -0.03336481  0.11624451  0.08011140       0.007
  -0.00771464  0.12592993  0.08011140       0.007
   0.01793552  0.13561536  0.08011140       0.007
   0.14618637  0.21146032  0.08011140       0.003
  -0.03336481  0.14366236  0.08011140       0.007
  -0.00771464  0.15334778  0.08011140       0.007
   0.01793552  0.16303321  0.08011140       0.007
  -0.03336481 -0.04826260  0.08011140       0.003
  -0.00771464 -0.03857718  0.08011140       0.007
   0.01793552 -0.02889175  0.08011140       0.007
  -0.00771464 -0.01115932  0.08011140       0.003
   0.01793552 -0.00147390  0.08011140       0.007
   0.01793552  0.02594395  0.08011140       0.003
 
 k-points in reciprocal lattice and weights: EA                                      
   0.00000000  0.00000000  0.00000000       0.002
   0.12500000  0.00000000  0.00000000       0.007
   0.25000000  0.00000000  0.00000000       0.007
   0.37500000  0.00000000  0.00000000       0.007
   0.50000000  0.00000000  0.00000000       0.003
   0.12500000  0.12500000  0.00000000       0.003
   0.25000000  0.12500000  0.00000000       0.007
   0.37500000  0.12500000  0.00000000       0.007
   0.50000000  0.12500000  0.00000000       0.007
  -0.37500000  0.12500000  0.00000000       0.007
  -0.25000000  0.12500000  0.00000000       0.007
  -0.12500000  0.12500000  0.00000000       0.003
   0.25000000  0.25000000  0.00000000       0.003
   0.37500000  0.25000000  0.00000000       0.007
   0.50000000  0.25000000  0.00000000       0.007
  -0.37500000  0.25000000  0.00000000       0.007
  -0.25000000  0.25000000  0.00000000       0.003
   0.37500000  0.37500000  0.00000000       0.003
   0.50000000  0.37500000  0.00000000       0.007
  -0.37500000  0.37500000  0.00000000       0.003
   0.50000000  0.50000000  0.00000000       0.002
  -0.00000000 -0.00000000  0.11111111       0.003
   0.12500000  0.00000000  0.11111111       0.007
   0.25000000 -0.00000000  0.11111111       0.007
   0.37500000 -0.00000000  0.11111111       0.007
   0.50000000 -0.00000000  0.11111111       0.007
  -0.37500000 -0.00000000  0.11111111       0.007
  -0.25000000  0.00000000  0.11111111       0.007
  -0.12500000 -0.00000000  0.11111111       0.007
   0.12500000  0.12500000  0.11111111       0.003
   0.25000000  0.12500000  0.11111111       0.007
   0.37500000  0.12500000  0.11111111       0.007
   0.50000000  0.12500000  0.11111111       0.007
  -0.37500000  0.12500000  0.11111111       0.007
  -0.25000000  0.12500000  0.11111111       0.007
  -0.12500000  0.12500000  0.11111111       0.007
   0.25000000  0.25000000  0.11111111       0.003
   0.37500000  0.25000000  0.11111111       0.007
   0.50000000  0.25000000  0.11111111       0.007
  -0.37500000  0.25000000  0.11111111       0.007
  -0.25000000  0.25000000  0.11111111       0.007
  -0.12500000  0.25000000  0.11111111       0.007
   0.37500000  0.37500000  0.11111111       0.003
   0.50000000  0.37500000  0.11111111       0.007
  -0.37500000  0.37500000  0.11111111       0.007
  -0.25000000  0.37500000  0.11111111       0.007
  -0.12500000  0.37500000  0.11111111       0.007
   0.50000000  0.50000000  0.11111111       0.003
  -0.37500000  0.50000000  0.11111111       0.007
  -0.25000000  0.50000000  0.11111111       0.007
  -0.12500000  0.50000000  0.11111111       0.007
  -0.37500000 -0.37500000  0.11111111       0.003
  -0.25000000 -0.37500000  0.11111111       0.007
  -0.12500000 -0.37500000  0.11111111       0.007
  -0.25000000 -0.25000000  0.11111111       0.003
  -0.12500000 -0.25000000  0.11111111       0.007
  -0.12500000 -0.12500000  0.11111111       0.003
   0.00000000 -0.00000000  0.22222222       0.003
   0.12500000 -0.00000000  0.22222222       0.007
   0.25000000 -0.00000000  0.22222222       0.007
   0.37500000 -0.00000000  0.22222222       0.007
   0.50000000 -0.00000000  0.22222222       0.007
  -0.37500000  0.00000000  0.22222222       0.007
  -0.25000000  0.00000000  0.22222222       0.007
  -0.12500000  0.00000000  0.22222222       0.007
   0.12500000  0.12500000  0.22222222       0.003
   0.25000000  0.12500000  0.22222222       0.007
   0.37500000  0.12500000  0.22222222       0.007
   0.50000000  0.12500000  0.22222222       0.007
  -0.37500000  0.12500000  0.22222222       0.007
  -0.25000000  0.12500000  0.22222222       0.007
  -0.12500000  0.12500000  0.22222222       0.007
   0.25000000  0.25000000  0.22222222       0.003
   0.37500000  0.25000000  0.22222222       0.007
   0.50000000  0.25000000  0.22222222       0.007
  -0.37500000  0.25000000  0.22222222       0.007
  -0.25000000  0.25000000  0.22222222       0.007
  -0.12500000  0.25000000  0.22222222       0.007
   0.37500000  0.37500000  0.22222222       0.003
   0.50000000  0.37500000  0.22222222       0.007
  -0.37500000  0.37500000  0.22222222       0.007
  -0.25000000  0.37500000  0.22222222       0.007
  -0.12500000  0.37500000  0.22222222       0.007
   0.50000000  0.50000000  0.22222222       0.003
  -0.37500000  0.50000000  0.22222222       0.007
  -0.25000000  0.50000000  0.22222222       0.007
  -0.12500000  0.50000000  0.22222222       0.007
  -0.37500000 -0.37500000  0.22222222       0.003
  -0.25000000 -0.37500000  0.22222222       0.007
  -0.12500000 -0.37500000  0.22222222       0.007
  -0.25000000 -0.25000000  0.22222222       0.003
  -0.12500000 -0.25000000  0.22222222       0.007
  -0.12500000 -0.12500000  0.22222222       0.003
  -0.00000000 -0.00000000  0.33333333       0.003
   0.12500000 -0.00000000  0.33333333       0.007
   0.25000000 -0.00000000  0.33333333       0.007
   0.37500000 -0.00000000  0.33333333       0.007
   0.50000000 -0.00000000  0.33333333       0.007
  -0.37500000 -0.00000000  0.33333333       0.007
  -0.25000000 -0.00000000  0.33333333       0.007
  -0.12500000 -0.00000000  0.33333333       0.007
   0.12500000  0.12500000  0.33333333       0.003
   0.25000000  0.12500000  0.33333333       0.007
   0.37500000  0.12500000  0.33333333       0.007
   0.50000000  0.12500000  0.33333333       0.007
  -0.37500000  0.12500000  0.33333333       0.007
  -0.25000000  0.12500000  0.33333333       0.007
  -0.12500000  0.12500000  0.33333333       0.007
   0.25000000  0.25000000  0.33333333       0.003
   0.37500000  0.25000000  0.33333333       0.007
   0.50000000  0.25000000  0.33333333       0.007
  -0.37500000  0.25000000  0.33333333       0.007
  -0.25000000  0.25000000  0.33333333       0.007
  -0.12500000  0.25000000  0.33333333       0.007
   0.37500000  0.37500000  0.33333333       0.003
   0.50000000  0.37500000  0.33333333       0.007
  -0.37500000  0.37500000  0.33333333       0.007
  -0.25000000  0.37500000  0.33333333       0.007
  -0.12500000  0.37500000  0.33333333       0.007
   0.50000000  0.50000000  0.33333333       0.003
  -0.37500000  0.50000000  0.33333333       0.007
  -0.25000000  0.50000000  0.33333333       0.007
  -0.12500000  0.50000000  0.33333333       0.007
  -0.37500000 -0.37500000  0.33333333       0.003
  -0.25000000 -0.37500000  0.33333333       0.007
  -0.12500000 -0.37500000  0.33333333       0.007
  -0.25000000 -0.25000000  0.33333333       0.003
  -0.12500000 -0.25000000  0.33333333       0.007
  -0.12500000 -0.12500000  0.33333333       0.003
   0.00000000 -0.00000000  0.44444444       0.003
   0.12500000 -0.00000000  0.44444444       0.007
   0.25000000 -0.00000000  0.44444444       0.007
   0.37500000 -0.00000000  0.44444444       0.007
   0.50000000 -0.00000000  0.44444444       0.007
  -0.37500000 -0.00000000  0.44444444       0.007
  -0.25000000  0.00000000  0.44444444       0.007
  -0.12500000 -0.00000000  0.44444444       0.007
   0.12500000  0.12500000  0.44444444       0.003
   0.25000000  0.12500000  0.44444444       0.007
   0.37500000  0.12500000  0.44444444       0.007
   0.50000000  0.12500000  0.44444444       0.007
  -0.37500000  0.12500000  0.44444444       0.007
  -0.25000000  0.12500000  0.44444444       0.007
  -0.12500000  0.12500000  0.44444444       0.007
   0.25000000  0.25000000  0.44444444       0.003
   0.37500000  0.25000000  0.44444444       0.007
   0.50000000  0.25000000  0.44444444       0.007
  -0.37500000  0.25000000  0.44444444       0.007
  -0.25000000  0.25000000  0.44444444       0.007
  -0.12500000  0.25000000  0.44444444       0.007
   0.37500000  0.37500000  0.44444444       0.003
   0.50000000  0.37500000  0.44444444       0.007
  -0.37500000  0.37500000  0.44444444       0.007
  -0.25000000  0.37500000  0.44444444       0.007
  -0.12500000  0.37500000  0.44444444       0.007
   0.50000000  0.50000000  0.44444444       0.003
  -0.37500000  0.50000000  0.44444444       0.007
  -0.25000000  0.50000000  0.44444444       0.007
  -0.12500000  0.50000000  0.44444444       0.007
  -0.37500000 -0.37500000  0.44444444       0.003
  -0.25000000 -0.37500000  0.44444444       0.007
  -0.12500000 -0.37500000  0.44444444       0.007
  -0.25000000 -0.25000000  0.44444444       0.003
  -0.12500000 -0.25000000  0.44444444       0.007
  -0.12500000 -0.12500000  0.44444444       0.003
 
 position of ions in fractional coordinates (direct lattice) 
   0.00000000  0.00000000  0.50000000
   0.00000000  0.50000000  0.00000000
   0.50000000  0.50000000  0.50000000
   0.50000000  0.00000000  0.00000000
   0.25000000  0.25000000  0.00000000
   0.74706000  0.24706000  0.99411000
   0.75000000  0.75000000  0.00000000
   0.25294000  0.75294000  0.00589000
   0.24706000  0.25294000  0.50000000
   0.75294000  0.74706000  0.50000000
   0.23241000  0.73241000  0.96482000
   0.76759000  0.26759000  0.03518000
   0.73241000  0.76759000  0.50000000
   0.26759000  0.23241000  0.50000000
 
 position of ions in cartesian coordinates  (Angst):
   0.00000000  0.00000000  2.77391500
  -0.86074588  2.27953674 -1.32568216
   1.57588524  2.27953674  0.12255068
   2.43663112  0.00000000 -1.32568216
   0.78794262  1.13976837 -1.32568216
   3.21530754  1.12636469  2.87937898
   2.36382786  3.41930511 -3.97704648
  -0.06353706  3.43270879 -2.63427763
   0.76855404  1.15317205  1.44823284
   2.38321644  3.40590144 -1.20313148
  -0.12824291  3.33911101  2.79456801
   3.28001339  1.21996247 -2.54946666
   2.24782614  3.49949922 -1.20313148
   0.90394434  1.05957427  1.44823284
 


--------------------------------------------------------------------------------------------------------


 k-point   1 :   0.0000 0.0000 0.0000  plane waves:    4091
 k-point   2 :   0.1250 0.0000 0.0000  plane waves:    4098
 k-point   3 :   0.2500 0.0000 0.0000  plane waves:    4109
 k-point   4 :   0.3750 0.0000 0.0000  plane waves:    4103
 k-point   5 :   0.5000 0.0000 0.0000  plane waves:    4122
 k-point   6 :   0.1250 0.1250 0.0000  plane waves:    4109
 k-point   7 :   0.2500 0.1250 0.0000  plane waves:    4116
 k-point   8 :   0.3750 0.1250 0.0000  plane waves:    4112
 k-point   9 :   0.5000 0.1250 0.0000  plane waves:    4119
 k-point  10 :  -0.3750 0.1250 0.0000  plane waves:    4110
 k-point  11 :  -0.2500 0.1250 0.0000  plane waves:    4097
 k-point  12 :  -0.1250 0.1250 0.0000  plane waves:    4114
 k-point  13 :   0.2500 0.2500 0.0000  plane waves:    4109
 k-point  14 :   0.3750 0.2500 0.0000  plane waves:    4123
 k-point  15 :   0.5000 0.2500 0.0000  plane waves:    4119
 k-point  16 :  -0.3750 0.2500 0.0000  plane waves:    4112
 k-point  17 :  -0.2500 0.2500 0.0000  plane waves:    4114
 k-point  18 :   0.3750 0.3750 0.0000  plane waves:    4112
 k-point  19 :   0.5000 0.3750 0.0000  plane waves:    4111
 k-point  20 :  -0.3750 0.3750 0.0000  plane waves:    4102
 k-point  21 :   0.5000 0.5000 0.0000  plane waves:    4096
 k-point  22 :  -0.0000-0.0000 0.1111  plane waves:    4104
 k-point  23 :   0.1250 0.0000 0.1111  plane waves:    4098
 k-point  24 :   0.2500-0.0000 0.1111  plane waves:    4106
 k-point  25 :   0.3750-0.0000 0.1111  plane waves:    4112
 k-point  26 :   0.5000-0.0000 0.1111  plane waves:    4119
 k-point  27 :  -0.3750-0.0000 0.1111  plane waves:    4121
 k-point  28 :  -0.2500 0.0000 0.1111  plane waves:    4108
 k-point  29 :  -0.1250-0.0000 0.1111  plane waves:    4103
 k-point  30 :   0.1250 0.1250 0.1111  plane waves:    4092
 k-point  31 :   0.2500 0.1250 0.1111  plane waves:    4106
 k-point  32 :   0.3750 0.1250 0.1111  plane waves:    4102
 k-point  33 :   0.5000 0.1250 0.1111  plane waves:    4104
 k-point  34 :  -0.3750 0.1250 0.1111  plane waves:    4088
 k-point  35 :  -0.2500 0.1250 0.1111  plane waves:    4099
 k-point  36 :  -0.1250 0.1250 0.1111  plane waves:    4105
 k-point  37 :   0.2500 0.2500 0.1111  plane waves:    4097
 k-point  38 :   0.3750 0.2500 0.1111  plane waves:    4099
 k-point  39 :   0.5000 0.2500 0.1111  plane waves:    4104
 k-point  40 :  -0.3750 0.2500 0.1111  plane waves:    4106
 k-point  41 :  -0.2500 0.2500 0.1111  plane waves:    4103
 k-point  42 :  -0.1250 0.2500 0.1111  plane waves:    4110
 k-point  43 :   0.3750 0.3750 0.1111  plane waves:    4104
 k-point  44 :   0.5000 0.3750 0.1111  plane waves:    4108
 k-point  45 :  -0.3750 0.3750 0.1111  plane waves:    4119
 k-point  46 :  -0.2500 0.3750 0.1111  plane waves:    4118
 k-point  47 :  -0.1250 0.3750 0.1111  plane waves:    4126
 k-point  48 :   0.5000 0.5000 0.1111  plane waves:    4120
 k-point  49 :  -0.3750 0.5000 0.1111  plane waves:    4122
 k-point  50 :  -0.2500 0.5000 0.1111  plane waves:    4129
 k-point  51 :  -0.1250 0.5000 0.1111  plane waves:    4112
 k-point  52 :  -0.3750-0.3750 0.1111  plane waves:    4125
 k-point  53 :  -0.2500-0.3750 0.1111  plane waves:    4119
 k-point  54 :  -0.1250-0.3750 0.1111  plane waves:    4123
 k-point  55 :  -0.2500-0.2500 0.1111  plane waves:    4123
 k-point  56 :  -0.1250-0.2500 0.1111  plane waves:    4117
 k-point  57 :  -0.1250-0.1250 0.1111  plane waves:    4112
 k-point  58 :   0.0000-0.0000 0.2222  plane waves:    4108
 k-point  59 :   0.1250-0.0000 0.2222  plane waves:    4103
 k-point  60 :   0.2500-0.0000 0.2222  plane waves:    4114
 k-point  61 :   0.3750-0.0000 0.2222  plane waves:    4115
 k-point  62 :   0.5000-0.0000 0.2222  plane waves:    4113
 k-point  63 :  -0.3750 0.0000 0.2222  plane waves:    4106
 k-point  64 :  -0.2500 0.0000 0.2222  plane waves:    4108
 k-point  65 :  -0.1250 0.0000 0.2222  plane waves:    4096
 k-point  66 :   0.1250 0.1250 0.2222  plane waves:    4106
 k-point  67 :   0.2500 0.1250 0.2222  plane waves:    4102
 k-point  68 :   0.3750 0.1250 0.2222  plane waves:    4100
 k-point  69 :   0.5000 0.1250 0.2222  plane waves:    4098
 k-point  70 :  -0.3750 0.1250 0.2222  plane waves:    4101
 k-point  71 :  -0.2500 0.1250 0.2222  plane waves:    4109
 k-point  72 :  -0.1250 0.1250 0.2222  plane waves:    4101
 k-point  73 :   0.2500 0.2500 0.2222  plane waves:    4105
 k-point  74 :   0.3750 0.2500 0.2222  plane waves:    4100
 k-point  75 :   0.5000 0.2500 0.2222  plane waves:    4109
 k-point  76 :  -0.3750 0.2500 0.2222  plane waves:    4112
 k-point  77 :  -0.2500 0.2500 0.2222  plane waves:    4113
 k-point  78 :  -0.1250 0.2500 0.2222  plane waves:    4127
 k-point  79 :   0.3750 0.3750 0.2222  plane waves:    4114
 k-point  80 :   0.5000 0.3750 0.2222  plane waves:    4123
 k-point  81 :  -0.3750 0.3750 0.2222  plane waves:    4126
 k-point  82 :  -0.2500 0.3750 0.2222  plane waves:    4129
 k-point  83 :  -0.1250 0.3750 0.2222  plane waves:    4125
 k-point  84 :   0.5000 0.5000 0.2222  plane waves:    4126
 k-point  85 :  -0.3750 0.5000 0.2222  plane waves:    4120
 k-point  86 :  -0.2500 0.5000 0.2222  plane waves:    4118
 k-point  87 :  -0.1250 0.5000 0.2222  plane waves:    4124
 k-point  88 :  -0.3750-0.3750 0.2222  plane waves:    4119
 k-point  89 :  -0.2500-0.3750 0.2222  plane waves:    4126
 k-point  90 :  -0.1250-0.3750 0.2222  plane waves:    4121
 k-point  91 :  -0.2500-0.2500 0.2222  plane waves:    4115
 k-point  92 :  -0.1250-0.2500 0.2222  plane waves:    4115
 k-point  93 :  -0.1250-0.1250 0.2222  plane waves:    4109
 k-point  94 :  -0.0000-0.0000 0.3333  plane waves:    4104
 k-point  95 :   0.1250-0.0000 0.3333  plane waves:    4108
 k-point  96 :   0.2500-0.0000 0.3333  plane waves:    4115
 k-point  97 :   0.3750-0.0000 0.3333  plane waves:    4118
 k-point  98 :   0.5000-0.0000 0.3333  plane waves:    4114
 k-point  99 :  -0.3750-0.0000 0.3333  plane waves:    4109
 k-point 100 :  -0.2500-0.0000 0.3333  plane waves:    4107
 k-point 101 :  -0.1250-0.0000 0.3333  plane waves:    4100
 k-point 102 :   0.1250 0.1250 0.3333  plane waves:    4105
 k-point 103 :   0.2500 0.1250 0.3333  plane waves:    4101
 k-point 104 :   0.3750 0.1250 0.3333  plane waves:    4111
 k-point 105 :   0.5000 0.1250 0.3333  plane waves:    4115
 k-point 106 :  -0.3750 0.1250 0.3333  plane waves:    4120
 k-point 107 :  -0.2500 0.1250 0.3333  plane waves:    4123
 k-point 108 :  -0.1250 0.1250 0.3333  plane waves:    4116
 k-point 109 :   0.2500 0.2500 0.3333  plane waves:    4103
 k-point 110 :   0.3750 0.2500 0.3333  plane waves:    4117
 k-point 111 :   0.5000 0.2500 0.3333  plane waves:    4126
 k-point 112 :  -0.3750 0.2500 0.3333  plane waves:    4129
 k-point 113 :  -0.2500 0.2500 0.3333  plane waves:    4138
 k-point 114 :  -0.1250 0.2500 0.3333  plane waves:    4121
 k-point 115 :   0.3750 0.3750 0.3333  plane waves:    4117
 k-point 116 :   0.5000 0.3750 0.3333  plane waves:    4125
 k-point 117 :  -0.3750 0.3750 0.3333  plane waves:    4119
 k-point 118 :  -0.2500 0.3750 0.3333  plane waves:    4121
 k-point 119 :  -0.1250 0.3750 0.3333  plane waves:    4125
 k-point 120 :   0.5000 0.5000 0.3333  plane waves:    4126
 k-point 121 :  -0.3750 0.5000 0.3333  plane waves:    4117
 k-point 122 :  -0.2500 0.5000 0.3333  plane waves:    4122
 k-point 123 :  -0.1250 0.5000 0.3333  plane waves:    4124
 k-point 124 :  -0.3750-0.3750 0.3333  plane waves:    4125
 k-point 125 :  -0.2500-0.3750 0.3333  plane waves:    4119
 k-point 126 :  -0.1250-0.3750 0.3333  plane waves:    4131
 k-point 127 :  -0.2500-0.2500 0.3333  plane waves:    4118
 k-point 128 :  -0.1250-0.2500 0.3333  plane waves:    4110
 k-point 129 :  -0.1250-0.1250 0.3333  plane waves:    4098
 k-point 130 :   0.0000-0.0000 0.4444  plane waves:    4104
 k-point 131 :   0.1250-0.0000 0.4444  plane waves:    4106
 k-point 132 :   0.2500-0.0000 0.4444  plane waves:    4114
 k-point 133 :   0.3750-0.0000 0.4444  plane waves:    4117
 k-point 134 :   0.5000-0.0000 0.4444  plane waves:    4112
 k-point 135 :  -0.3750-0.0000 0.4444  plane waves:    4106
 k-point 136 :  -0.2500 0.0000 0.4444  plane waves:    4110
 k-point 137 :  -0.1250-0.0000 0.4444  plane waves:    4110
 k-point 138 :   0.1250 0.1250 0.4444  plane waves:    4103
 k-point 139 :   0.2500 0.1250 0.4444  plane waves:    4099
 k-point 140 :   0.3750 0.1250 0.4444  plane waves:    4108
 k-point 141 :   0.5000 0.1250 0.4444  plane waves:    4115
 k-point 142 :  -0.3750 0.1250 0.4444  plane waves:    4126
 k-point 143 :  -0.2500 0.1250 0.4444  plane waves:    4128
 k-point 144 :  -0.1250 0.1250 0.4444  plane waves:    4123
 k-point 145 :   0.2500 0.2500 0.4444  plane waves:    4107
 k-point 146 :   0.3750 0.2500 0.4444  plane waves:    4123
 k-point 147 :   0.5000 0.2500 0.4444  plane waves:    4125
 k-point 148 :  -0.3750 0.2500 0.4444  plane waves:    4125
 k-point 149 :  -0.2500 0.2500 0.4444  plane waves:    4120
 k-point 150 :  -0.1250 0.2500 0.4444  plane waves:    4122
 k-point 151 :   0.3750 0.3750 0.4444  plane waves:    4123
 k-point 152 :   0.5000 0.3750 0.4444  plane waves:    4121
 k-point 153 :  -0.3750 0.3750 0.4444  plane waves:    4124
 k-point 154 :  -0.2500 0.3750 0.4444  plane waves:    4121
 k-point 155 :  -0.1250 0.3750 0.4444  plane waves:    4131
 k-point 156 :   0.5000 0.5000 0.4444  plane waves:    4130
 k-point 157 :  -0.3750 0.5000 0.4444  plane waves:    4112
 k-point 158 :  -0.2500 0.5000 0.4444  plane waves:    4122
 k-point 159 :  -0.1250 0.5000 0.4444  plane waves:    4120
 k-point 160 :  -0.3750-0.3750 0.4444  plane waves:    4110
 k-point 161 :  -0.2500-0.3750 0.4444  plane waves:    4123
 k-point 162 :  -0.1250-0.3750 0.4444  plane waves:    4115
 k-point 163 :  -0.2500-0.2500 0.4444  plane waves:    4112
 k-point 164 :  -0.1250-0.2500 0.4444  plane waves:    4101
 k-point 165 :  -0.1250-0.1250 0.4444  plane waves:    4096

 maximum and minimum number of plane-waves per node :      2120     2001

 maximum number of plane-waves:      4138
 maximum index in each direction: 
   IXMAX=   11   IYMAX=   11   IZMAX=   11
   IXMIN=  -11   IYMIN=  -11   IZMIN=  -11


 parallel 3D FFT for wavefunctions:
    minimum data exchange during FFTs selected (reduces bandwidth)
 parallel 3D FFT for charge:
    minimum data exchange during FFTs selected (reduces bandwidth)


 total amount of memory used by VASP MPI-rank0   414273. kBytes
=======================================================================

   base      :      30000. kBytes
   nonl-proj :     151874. kBytes
   fftplans  :      12481. kBytes
   grid      :       9393. kBytes
   one-center:        108. kBytes
   wavefun   :     210417. kBytes
 
     INWAV:  cpu time    0.0001: real time    0.0001
 Broyden mixing: mesh for mixing (old mesh)
   NGX = 23   NGY = 23   NGZ = 23
  (NGX  = 96   NGY  = 96   NGZ  = 96)
  gives a total of  12167 points

 initial charge density was supplied:
 charge density of overlapping atoms calculated
 number of electron     112.0000000 magnetization 
 keeping initial charge density in first step


--------------------------------------------------------------------------------------------------------


 Maximum index for augmentation-charges        25323 (set IRDMAX)


--------------------------------------------------------------------------------------------------------


 First call to EWALD:  gamma=   0.356
 Maximum number of real-space cells 3x 3x 3
 Maximum number of reciprocal cells 3x 3x 3

[...]
  ---------------------------------------------------
  free energy    TOTEN  =     14552.56306177 eV

  energy without entropy =    14552.56484688  energy(sigma->0) =    14552.56395432


--------------------------------------------------------------------------------------------------------




--------------------------------------- Iteration      1(  65)  ---------------------------------------


    POTLOK:  cpu time    0.0930: real time    0.0936
    SETDIJ:  cpu time    0.6629: real time    0.6670
    TRIAL :  cpu time   20.2528: real time   20.4268
    CORREC:  cpu time    7.5876: real time    7.6485
    CHARGE:  cpu time    2.3070: real time    2.3226
    --------------------------------------------
      LOOP:  cpu time   30.9044: real time   31.1612

 eigenvalue-minimisations  :     0
 total energy-change (2. order) : 0.6556511E-06  (-0.3531857E-09)
 number of electron     112.0000001 magnetization 
 augmentation part       25.7122959 magnetization 

 Free energy of the ion-electron system (eV)
  ---------------------------------------------------
  alpha Z        PSCENC =       831.59034783
  Ewald energy   TEWEN  =      6386.39935108
  -Hartree energ DENC   =     -4552.97916967
  -exchange      EXHF   =         0.00000000
  -V(xc)+E(xc)   XCENC  =       580.73124469
  PAW double counting   = 237739630.44198999******************
  entropy T*S    EENTRO =        -0.00178512
  eigenvalues    EBANDS =      -931.93608907
  atomic energy  EATOM  =     11870.63976582
  ---------------------------------------------------
  free energy    TOTEN  =     14552.56306242 eV

  energy without entropy =    14552.56484754  energy(sigma->0) =    14552.56395498


--------------------------------------------------------------------------------------------------------




--------------------------------------- Iteration      1(  66)  ---------------------------------------


    POTLOK:  cpu time    0.0941: real time    0.0947
    SETDIJ:  cpu time    0.6641: real time    0.6679
    TRIAL :  cpu time   19.9367: real time   20.1055
    CORREC:  cpu time    7.5776: real time    7.6370
    CHARGE:  cpu time    2.2937: real time    2.3080
    --------------------------------------------
      LOOP:  cpu time   30.5699: real time   30.8178

 eigenvalue-minimisations  :     0
 total energy-change (2. order) :-0.4768372E-06  (-0.5173634E-10)
 number of electron     112.0000001 magnetization 
 augmentation part       25.7122959 magnetization 

 Free energy of the ion-electron system (eV)
  ---------------------------------------------------
  alpha Z        PSCENC =       831.59034783
  Ewald energy   TEWEN  =      6386.39935108
  -Hartree energ DENC   =     -4552.97918143
  -exchange      EXHF   =         0.00000000
  -V(xc)+E(xc)   XCENC  =       580.73124476
  PAW double counting   = 237739641.93663722******************
  entropy T*S    EENTRO =        -0.00178512
  eigenvalues    EBANDS =      -931.93607550
  atomic energy  EATOM  =     11870.63976582
  ---------------------------------------------------
  free energy    TOTEN  =     14552.56306194 eV

  energy without entropy =    14552.56484706  energy(sigma->0) =    14552.56395450


--------------------------------------------------------------------------------------------------------




--------------------------------------- Iteration      1(  67)  ---------------------------------------


    POTLOK:  cpu time    0.0943: real time    0.0949
    SETDIJ:  cpu time    0.6632: real time    0.6672
    TRIAL :  cpu time   20.1920: real time   20.3628
    CORREC:  cpu time    6.8562: real time    6.9101
    CHARGE:  cpu time    2.2893: real time    2.3038
    --------------------------------------------
      LOOP:  cpu time   30.0957: real time   30.3417

 eigenvalue-minimisations  :     0
 total energy-change (2. order) : 0.3576279E-06  ( 0.3970585E-10)
 number of electron     112.0000001 magnetization 
 augmentation part       25.7122943 magnetization 

 Free energy of the ion-electron system (eV)
  ---------------------------------------------------
  alpha Z        PSCENC =       831.59034783
  Ewald energy   TEWEN  =      6386.39935108
  -Hartree energ DENC   =     -4552.97918312
  -exchange      EXHF   =         0.00000000
  -V(xc)+E(xc)   XCENC  =       580.73124477
  PAW double counting   = 237739643.63782054******************
  entropy T*S    EENTRO =        -0.00178513
  eigenvalues    EBANDS =      -931.93607342
  atomic energy  EATOM  =     11870.63976582
  ---------------------------------------------------
  free energy    TOTEN  =     14552.56306230 eV

  energy without entropy =    14552.56484743  energy(sigma->0) =    14552.56395487


--------------------------------------------------------------------------------------------------------




--------------------------------------- Iteration      1(  68)  ---------------------------------------


    POTLOK:  cpu time    0.0940: real time    0.0946
    SETDIJ:  cpu time    0.6651: real time    0.6694
    TRIAL :  cpu time   20.0408: real time   20.2097
    CORREC:  cpu time    7.5982: real time    7.6575
    CHARGE:  cpu time    2.2754: real time    2.2902
    --------------------------------------------
      LOOP:  cpu time   30.6755: real time   30.9244

 eigenvalue-minimisations  :     0
 total energy-change (2. order) :-0.3278255E-06  (-0.2359015E-10)
 number of electron     112.0000001 magnetization 
 augmentation part       25.7122943 magnetization 

 Free energy of the ion-electron system (eV)
  ---------------------------------------------------
  alpha Z        PSCENC =       831.59034783
  Ewald energy   TEWEN  =      6386.39935108
  -Hartree energ DENC   =     -4552.97929830
  -exchange      EXHF   =         0.00000000
  -V(xc)+E(xc)   XCENC  =       580.73124536
  PAW double counting   = 237739763.76185232******************
  entropy T*S    EENTRO =        -0.00178513
  eigenvalues    EBANDS =      -931.93593936
  atomic energy  EATOM  =     11870.63976582
  ---------------------------------------------------
  free energy    TOTEN  =     14552.56306197 eV

  energy without entropy =    14552.56484711  energy(sigma->0) =    14552.56395454


--------------------------------------------------------------------------------------------------------




--------------------------------------- Iteration      1(  69)  ---------------------------------------


    POTLOK:  cpu time    0.0937: real time    0.0943
    SETDIJ:  cpu time    0.6605: real time    0.6645
    TRIAL :  cpu time   20.1698: real time   20.3399
    CORREC:  cpu time    7.6220: real time    7.6815
    CHARGE:  cpu time    2.3441: real time    2.3596
    --------------------------------------------
      LOOP:  cpu time   30.8928: real time   31.1430

 eigenvalue-minimisations  :     0
 total energy-change (2. order) :-0.3278255E-06  (-0.1518615E-10)
 number of electron     112.0000001 magnetization 
 augmentation part       25.7122943 magnetization 

 Free energy of the ion-electron system (eV)
  ---------------------------------------------------
  alpha Z        PSCENC =       831.59034783
  Ewald energy   TEWEN  =      6386.39935108
  -Hartree energ DENC   =     -4552.97929937
  -exchange      EXHF   =         0.00000000
  -V(xc)+E(xc)   XCENC  =       580.73124537
  PAW double counting   = 237739764.64329627******************
  entropy T*S    EENTRO =        -0.00178513
  eigenvalues    EBANDS =      -931.93593762
  atomic energy  EATOM  =     11870.63976582
  ---------------------------------------------------
  free energy    TOTEN  =     14552.56306165 eV

  energy without entropy =    14552.56484678  energy(sigma->0) =    14552.56395421


--------------------------------------------------------------------------------------------------------




--------------------------------------- Iteration      1(  70)  ---------------------------------------


    POTLOK:  cpu time    0.0902: real time    0.0907
    SETDIJ:  cpu time    0.6625: real time    0.6667
    TRIAL :  cpu time   20.0575: real time   20.2265
    CORREC:  cpu time    6.8980: real time    6.9508
    CHARGE:  cpu time    2.2836: real time    2.2986
    --------------------------------------------
      LOOP:  cpu time   29.9967: real time   30.2389

 eigenvalue-minimisations  :     0
 total energy-change (2. order) : 0.7748604E-06  ( 0.1290049E-10)
 number of electron     112.0000001 magnetization 
 augmentation part       25.7122931 magnetization 

 Free energy of the ion-electron system (eV)
  ---------------------------------------------------
  alpha Z        PSCENC =       831.59034783
  Ewald energy   TEWEN  =      6386.39935108
  -Hartree energ DENC   =     -4552.97930004
  -exchange      EXHF   =         0.00000000
  -V(xc)+E(xc)   XCENC  =       580.73124537
  PAW double counting   = 237739765.20986801******************
  entropy T*S    EENTRO =        -0.00178514
  eigenvalues    EBANDS =      -931.93593711
  atomic energy  EATOM  =     11870.63976582
  ---------------------------------------------------
  free energy    TOTEN  =     14552.56306242 eV

  energy without entropy =    14552.56484756  energy(sigma->0) =    14552.56395499


--------------------------------------------------------------------------------------------------------




--------------------------------------- Iteration      1(  71)  ---------------------------------------


    POTLOK:  cpu time    0.0938: real time    0.0944
    SETDIJ:  cpu time    0.6607: real time    0.6650
    TRIAL :  cpu time   20.1527: real time   20.3223
    CORREC:  cpu time    7.5861: real time    7.6445
    CHARGE:  cpu time    2.2798: real time    2.2940
    --------------------------------------------
      LOOP:  cpu time   30.7753: real time   31.0233

 eigenvalue-minimisations  :     0
 total energy-change (2. order) :-0.4470348E-06  (-0.5103668E-11)
 number of electron     112.0000001 magnetization 
 augmentation part       25.7122931 magnetization 

 Free energy of the ion-electron system (eV)
  ---------------------------------------------------
  alpha Z        PSCENC =       831.59034783
  Ewald energy   TEWEN  =      6386.39935108
  -Hartree energ DENC   =     -4552.97940025
  -exchange      EXHF   =         0.00000000
  -V(xc)+E(xc)   XCENC  =       580.73124592
  PAW double counting   = 237739853.10329697******************
  entropy T*S    EENTRO =        -0.00178514
  eigenvalues    EBANDS =      -931.93582313
  atomic energy  EATOM  =     11870.63976582
  ---------------------------------------------------
  free energy    TOTEN  =     14552.56306197 eV

  energy without entropy =    14552.56484712  energy(sigma->0) =    14552.56395454


--------------------------------------------------------------------------------------------------------




--------------------------------------- Iteration      1(  72)  ---------------------------------------


    POTLOK:  cpu time    0.0941: real time    0.0947
    SETDIJ:  cpu time    0.6588: real time    0.6627
    TRIAL :  cpu time   20.1442: real time   20.3173
    CORREC:  cpu time    7.6097: real time    7.6711
    CHARGE:  cpu time    2.2621: real time    2.2763
    --------------------------------------------
      LOOP:  cpu time   30.7702: real time   31.0252

 eigenvalue-minimisations  :     0
 total energy-change (2. order) : 0.8940697E-07  (-0.2937400E-11)
 number of electron     112.0000001 magnetization 
 augmentation part       25.7122931 magnetization 

 Free energy of the ion-electron system (eV)
  ---------------------------------------------------
  alpha Z        PSCENC =       831.59034783
  Ewald energy   TEWEN  =      6386.39935108
  -Hartree energ DENC   =     -4552.97940053
  -exchange      EXHF   =         0.00000000
  -V(xc)+E(xc)   XCENC  =       580.73124592
  PAW double counting   = 237739853.31442997******************
  entropy T*S    EENTRO =        -0.00178514
  eigenvalues    EBANDS =      -931.93582325
  atomic energy  EATOM  =     11870.63976582
  ---------------------------------------------------
  free energy    TOTEN  =     14552.56306206 eV

  energy without entropy =    14552.56484720  energy(sigma->0) =    14552.56395463


--------------------------------------------------------------------------------------------------------




--------------------------------------- Iteration      1(  73)  ---------------------------------------


    POTLOK:  cpu time    0.0926: real time    0.0931
    SETDIJ:  cpu time    0.6648: real time    0.6688
    TRIAL :  cpu time   20.0515: real time   20.2239
    CORREC:  cpu time    7.5675: real time    7.6289
    CHARGE:  cpu time    2.2907: real time    2.3050
    --------------------------------------------
      LOOP:  cpu time   30.6686: real time   30.9228

 eigenvalue-minimisations  :     0
 total energy-change (2. order) :-0.8940697E-07  (-0.3620956E-11)
 number of electron     112.0000001 magnetization 
 augmentation part       25.7122931 magnetization 

 Free energy of the ion-electron system (eV)
  ---------------------------------------------------
  alpha Z        PSCENC =       831.59034783
  Ewald energy   TEWEN  =      6386.39935108
  -Hartree energ DENC   =     -4552.97940069
  -exchange      EXHF   =         0.00000000
  -V(xc)+E(xc)   XCENC  =       580.73124592
  PAW double counting   = 237739853.43587166******************
  entropy T*S    EENTRO =        -0.00178514
  eigenvalues    EBANDS =      -931.93582319
  atomic energy  EATOM  =     11870.63976582
  ---------------------------------------------------
  free energy    TOTEN  =     14552.56306197 eV

  energy without entropy =    14552.56484712  energy(sigma->0) =    14552.56395454


--------------------------------------------------------------------------------------------------------




--------------------------------------- Iteration      1(  74)  ---------------------------------------


    POTLOK:  cpu time    0.0948: real time    0.0953
    SETDIJ:  cpu time    0.6695: real time    0.6742
    TRIAL :  cpu time   20.2956: real time   20.4615
    CORREC:  cpu time    6.8814: real time    6.9328
    CHARGE:  cpu time    2.2673: real time    2.2817
    --------------------------------------------
      LOOP:  cpu time   30.2100: real time   30.4486

 eigenvalue-minimisations  :     0
 total energy-change (2. order) : 0.7152557E-06  ( 0.5537854E-11)
 number of electron     112.0000001 magnetization 
 augmentation part       25.7122923 magnetization 

 Free energy of the ion-electron system (eV)
  ---------------------------------------------------
  alpha Z        PSCENC =       831.59034783
  Ewald energy   TEWEN  =      6386.39935108
  -Hartree energ DENC   =     -4552.97940088
  -exchange      EXHF   =         0.00000000
  -V(xc)+E(xc)   XCENC  =       580.73124592
  PAW double counting   = 237739853.58528352******************
  entropy T*S    EENTRO =        -0.00178515
  eigenvalues    EBANDS =      -931.93582283
  atomic energy  EATOM  =     11870.63976582
  ---------------------------------------------------
  free energy    TOTEN  =     14552.56306269 eV

  energy without entropy =    14552.56484784  energy(sigma->0) =    14552.56395526


--------------------------------------------------------------------------------------------------------




--------------------------------------- Iteration      1(  75)  ---------------------------------------


    POTLOK:  cpu time    0.0935: real time    0.0942
    SETDIJ:  cpu time    0.6591: real time    0.6629
    TRIAL :  cpu time   20.2837: real time   20.4543
    CORREC:  cpu time    7.6113: real time    7.6699
    CHARGE:  cpu time    2.2646: real time    2.2791
    --------------------------------------------
      LOOP:  cpu time   30.9150: real time   31.1636

 eigenvalue-minimisations  :     0
 total energy-change (2. order) :-0.4172325E-06  (-0.6016518E-11)
 number of electron     112.0000001 magnetization 
 augmentation part       25.7122923 magnetization 

 Free energy of the ion-electron system (eV)
  ---------------------------------------------------
  alpha Z        PSCENC =       831.59034783
  Ewald energy   TEWEN  =      6386.39935108
  -Hartree energ DENC   =     -4552.97947875
  -exchange      EXHF   =         0.00000000
  -V(xc)+E(xc)   XCENC  =       580.73124630
  PAW double counting   = 237739915.45079732******************
  entropy T*S    EENTRO =        -0.00178515
  eigenvalues    EBANDS =      -931.93573540
  atomic energy  EATOM  =     11870.63976582
  ---------------------------------------------------
  free energy    TOTEN  =     14552.56306227 eV

  energy without entropy =    14552.56484742  energy(sigma->0) =    14552.56395485


--------------------------------------------------------------------------------------------------------




--------------------------------------- Iteration      1(  76)  ---------------------------------------


    POTLOK:  cpu time    0.0956: real time    0.0962
    SETDIJ:  cpu time    0.6684: real time    0.6728
    TRIAL :  cpu time   20.4093: real time   20.5771
    CORREC:  cpu time    6.8531: real time    6.9025
    CHARGE:  cpu time    2.3081: real time    2.3225
    --------------------------------------------
      LOOP:  cpu time   30.3373: real time   30.5744

 eigenvalue-minimisations  :     0
 total energy-change (2. order) : 0.5960464E-07  ( 0.6201871E-11)
 number of electron     112.0000001 magnetization 
 augmentation part       25.7122916 magnetization 

 Free energy of the ion-electron system (eV)
  ---------------------------------------------------
  alpha Z        PSCENC =       831.59034783
  Ewald energy   TEWEN  =      6386.39935108
  -Hartree energ DENC   =     -4552.97947915
  -exchange      EXHF   =         0.00000000
  -V(xc)+E(xc)   XCENC  =       580.73124630
  PAW double counting   = 237739915.72079080******************
  entropy T*S    EENTRO =        -0.00178516
  eigenvalues    EBANDS =      -931.93573457
  atomic energy  EATOM  =     11870.63976582
  ---------------------------------------------------
  free energy    TOTEN  =     14552.56306233 eV

  energy without entropy =    14552.56484749  energy(sigma->0) =    14552.56395491


--------------------------------------------------------------------------------------------------------




--------------------------------------- Iteration      1(  77)  ---------------------------------------


    POTLOK:  cpu time    0.0932: real time    0.0937
    SETDIJ:  cpu time    0.6593: real time    0.6630
    TRIAL :  cpu time   20.5280: real time   20.6879
    CORREC:  cpu time    7.6859: real time    7.7404
    CHARGE:  cpu time    2.3166: real time    2.3299
    --------------------------------------------
      LOOP:  cpu time   31.2857: real time   31.5182

 eigenvalue-minimisations  :     0
 total energy-change (2. order) :-0.1788139E-06  (-0.3001079E-11)
 number of electron     112.0000001 magnetization 
 augmentation part       25.7122916 magnetization 

 Free energy of the ion-electron system (eV)
  ---------------------------------------------------
  alpha Z        PSCENC =       831.59034783
  Ewald energy   TEWEN  =      6386.39935108
  -Hartree energ DENC   =     -4552.97955027
  -exchange      EXHF   =         0.00000000
  -V(xc)+E(xc)   XCENC  =       580.73124667
  PAW double counting   = 237739964.79057792******************
  entropy T*S    EENTRO =        -0.00178516
  eigenvalues    EBANDS =      -931.93565588
  atomic energy  EATOM  =     11870.63976582
  ---------------------------------------------------
  free energy    TOTEN  =     14552.56306215 eV

  energy without entropy =    14552.56484731  energy(sigma->0) =    14552.56395473


--------------------------------------------------------------------------------------------------------




--------------------------------------- Iteration      1(  78)  ---------------------------------------


    POTLOK:  cpu time    0.0926: real time    0.0931
    SETDIJ:  cpu time    0.6627: real time    0.6666
