 vasp.6.2.0 18Jan21 (build Jan 05 2022 15:41:44) complex                        
  
 executed on             LinuxIFC date 2025.05.07  16:33:16
 running on   24 total cores
 distrk:  each k-point on   12 cores,    2 groups
 distr:  one band on NCORE=   2 cores,    6 groups


--------------------------------------------------------------------------------------------------------


 INCAR:
   SYSTEM = routine with relax: pwdword
   ICHARG = 2
   NPAR = 6
   KPAR = 2
   NCORE = 2
   ADDGRID = T
   PREC = Acc
   ENCUT = 600
   METAGGA = R2SCAN
   LASPH = .TRUE.
   LMIXTAU = .FALSE.
   ALGO = A
   EDIFF = 1E-9
   NELM = 100
   NELMIN = 6
   IALGO = 38
   LREAL = F
   NSW = 0
   ISIF = -1
   ISMEAR = 0
   SIGMA = 0.02

 POTCAR:    PAW_PBE B 06Sep2000                   
 POTCAR:    PAW_PBE Mo_sv 02Feb2006               
 POTCAR:    PAW_PBE Si 05Jan2001                  
 -----------------------------------------------------------------------------
|                                                                             |
|           W    W    AA    RRRRR   N    N  II  N    N   GGGG   !!!           |
|           W    W   A  A   R    R  NN   N  II  NN   N  G    G  !!!           |
|           W    W  A    A  R    R  N N  N  II  N N  N  G       !!!           |
|           W WW W  AAAAAA  RRRRR   N  N N  II  N  N N  G  GGG   !            |
|           WW  WW  A    A  R   R   N   NN  II  N   NN  G    G                |
|           W    W  A    A  R    R  N    N  II  N    N   GGGG   !!!           |
|                                                                             |
|     For optimal performance we recommend to set                             |
|       NCORE = 2 up to number-of-cores-per-socket                            |
|     NCORE specifies how many cores store one orbital (NPAR=cpu/NCORE).      |
|     This setting can greatly improve the performance of VASP for DFT.       |
|     The default, NCORE=1 might be grossly inefficient on modern             |
|     multi-core architectures or massively parallel machines. Do your        |
|     own testing! More info at https://www.vasp.at/wiki/index.php/NCORE      |
|     Unfortunately you need to use the default for GW and RPA                |
|     calculations (for HF NCORE is supported but not extensively tested      |
|     yet).                                                                   |
|                                                                             |
 -----------------------------------------------------------------------------

 POTCAR:    PAW_PBE B 06Sep2000                   
   VRHFIN =B: s2p1                                                                                  
   LEXCH  = PE                                                                                      
   EATOM  =    71.1703 eV,    5.2309 Ry                                                             
                                                                                                    
   TITEL  = PAW_PBE B 06Sep2000                                                                     
   LULTRA =        F    use ultrasoft PP ?                                                          
   IUNSCR =        1    unscreen: 0-lin 1-nonlin 2-no                                               
   RPACOR =    1.200    partial core radius                                                         
   POMASS =   10.811; ZVAL   =    3.000    mass and valenz                                          
   RCORE  =    1.700    outmost cutoff radius                                                       
   RWIGS  =    1.710; RWIGS  =    0.905    wigner-seitz radius (au A)                               
   ENMAX  =  318.614; ENMIN  =  238.960 eV                                                          
   ICORE  =        2    local potential                                                             
   LCOR   =        T    correct aug charges                                                         
   LPAW   =        T    paw PP                                                                      
   EAUG   =  535.514                                                                                
   DEXC   =    0.000                                                                                
   RMAX   =    1.732    core radius for proj-oper                                                   
   RAUG   =    1.300    factor for augmentation sphere                                              
   RDEP   =    1.757    radius for radial grids                                                     
   RDEPT  =    1.436    core radius for aug-charge                                                  
                                                                                                    
   Atomic configuration                                                                             
    4 entries                                                                                       
     n  l   j            E        occ.                                                              
     1  0  0.50      -180.5896   2.0000                                                             
     2  0  0.50        -9.4431   2.0000                                                             
     2  1  0.50        -3.6068   1.0000                                                             
     3  2  1.50        -4.0817   0.0000                                                             
   Description                                                                                      
     l       E           TYP  RCUT    TYP  RCUT                                                     
     0     -9.4430752     23  1.500                                                                 
     0      0.8675899     23  1.500                                                                 
     1     -3.6067955     23  1.700                                                                 
     1      6.1086146     23  1.700                                                                 
     2     -4.0817478      7  1.700                                                                 
  local pseudopotential read in
  partial core-charges read in
  partial kinetic energy density read in
  atomic valenz-charges read in
  non local Contribution for L=           0  read in
    real space projection operators read in
  non local Contribution for L=           0  read in
    real space projection operators read in
  non local Contribution for L=           1  read in
    real space projection operators read in
  non local Contribution for L=           1  read in
    real space projection operators read in
    PAW grid and wavefunctions read in
 
   number of l-projection  operators is LMAX  =           4
   number of lm-projection operators is LMMAX =           8
 
 POTCAR:    PAW_PBE Mo_sv 02Feb2006               
   VRHFIN =Mo: 4p5s4d                                                                               
   LEXCH  = PE                                                                                      
   EATOM  =  1862.2866 eV,  136.8742 Ry                                                             
                                                                                                    
   TITEL  = PAW_PBE Mo_sv 02Feb2006                                                                 
   LULTRA =        F    use ultrasoft PP ?                                                          
   IUNSCR =        1    unscreen: 0-lin 1-nonlin 2-no                                               
   RPACOR =    2.200    partial core radius                                                         
   POMASS =   95.940; ZVAL   =   14.000    mass and valenz                                          
   RCORE  =    2.500    outmost cutoff radius                                                       
   RWIGS  =    2.750; RWIGS  =    1.455    wigner-seitz radius (au A)                               
   ENMAX  =  242.676; ENMIN  =  182.007 eV                                                          
   ICORE  =        3    local potential                                                             
   LCOR   =        T    correct aug charges                                                         
   LPAW   =        T    paw PP                                                                      
   EAUG   =  446.014                                                                                
   DEXC   =    0.000                                                                                
   RMAX   =    2.563    core radius for proj-oper                                                   
   RAUG   =    1.300    factor for augmentation sphere                                              
   RDEP   =    2.641    radius for radial grids                                                     
   RDEPT  =    2.031    core radius for aug-charge                                                  
                                                                                                    
   Atomic configuration                                                                             
   11 entries                                                                                       
     n  l   j            E        occ.                                                              
     1  0  0.50    -19819.0341   2.0000                                                             
     2  0  0.50     -2799.0127   2.0000                                                             
     2  1  1.50     -2502.0276   6.0000                                                             
     3  0  0.50      -476.4449   2.0000                                                             
     3  1  1.50      -379.1496   6.0000                                                             
     3  2  2.50      -220.9367  10.0000                                                             
     4  0  0.50       -64.3378   2.0000                                                             
     5  0  0.50        -4.0862   1.0000                                                             
     4  1  1.50       -38.4773   6.0000                                                             
     4  2  2.50        -3.7535   5.0000                                                             
     4  3  2.50        -1.3606   0.0000                                                             
   Description                                                                                      
     l       E           TYP  RCUT    TYP  RCUT                                                     
     0    -64.3377829     23  2.100                                                                 
     0     -4.0861640     23  2.400                                                                 
     1    -38.4772993     23  2.100                                                                 
     1     13.6058260     23  2.100                                                                 
     2     -3.7534941     23  2.400                                                                 
     2     -5.1140767     23  2.400                                                                 
     3     -4.0817478     23  2.500                                                                 
  local pseudopotential read in
  partial core-charges read in
  partial kinetic energy density read in
  atomic valenz-charges read in
  non local Contribution for L=           0  read in
    real space projection operators read in
  non local Contribution for L=           0  read in
    real space projection operators read in
  non local Contribution for L=           1  read in
    real space projection operators read in
  non local Contribution for L=           1  read in
    real space projection operators read in
  non local Contribution for L=           2  read in
    real space projection operators read in
  non local Contribution for L=           2  read in
    real space projection operators read in
    PAW grid and wavefunctions read in
 
   number of l-projection  operators is LMAX  =           6
   number of lm-projection operators is LMMAX =          18
 
 POTCAR:    PAW_PBE Si 05Jan2001                  
   VRHFIN =Si: s2p2                                                                                 
   LEXCH  = PE                                                                                      
   EATOM  =   103.0669 eV,    7.5752 Ry                                                             
                                                                                                    
   TITEL  = PAW_PBE Si 05Jan2001                                                                    
   LULTRA =        F    use ultrasoft PP ?                                                          
   IUNSCR =        1    unscreen: 0-lin 1-nonlin 2-no                                               
   RPACOR =    1.500    partial core radius                                                         
   POMASS =   28.085; ZVAL   =    4.000    mass and valenz                                          
   RCORE  =    1.900    outmost cutoff radius                                                       
   RWIGS  =    2.480; RWIGS  =    1.312    wigner-seitz radius (au A)                               
   ENMAX  =  245.345; ENMIN  =  184.009 eV                                                          
   ICORE  =        2    local potential                                                             
   LCOR   =        T    correct aug charges                                                         
   LPAW   =        T    paw PP                                                                      
   EAUG   =  322.069                                                                                
   DEXC   =    0.000                                                                                
   RMAX   =    1.950    core radius for proj-oper                                                   
   RAUG   =    1.300    factor for augmentation sphere                                              
   RDEP   =    1.993    radius for radial grids                                                     
   RDEPT  =    1.837    core radius for aug-charge                                                  
                                                                                                    
   Atomic configuration                                                                             
    6 entries                                                                                       
     n  l   j            E        occ.                                                              
     1  0  0.50     -1785.8828   2.0000                                                             
     2  0  0.50      -139.4969   2.0000                                                             
     2  1  1.50       -95.5546   6.0000                                                             
     3  0  0.50       -10.8127   2.0000                                                             
     3  1  0.50        -4.0811   2.0000                                                             
     3  2  1.50        -4.0817   0.0000                                                             
   Description                                                                                      
     l       E           TYP  RCUT    TYP  RCUT                                                     
     0    -10.8127223     23  1.900                                                                 
     0     -7.6451159     23  1.900                                                                 
     1     -4.0811372     23  1.900                                                                 
     1      2.4879257     23  1.900                                                                 
     2     -4.0817478      7  1.900                                                                 
  local pseudopotential read in
  partial core-charges read in
  partial kinetic energy density read in
  atomic valenz-charges read in
  non local Contribution for L=           0  read in
    real space projection operators read in
  non local Contribution for L=           0  read in
    real space projection operators read in
  non local Contribution for L=           1  read in
    real space projection operators read in
  non local Contribution for L=           1  read in
    real space projection operators read in
    PAW grid and wavefunctions read in
 
   number of l-projection  operators is LMAX  =           4
   number of lm-projection operators is LMMAX =           8
 
  PAW_PBE B 06Sep2000                   :
 energy of atom  1       EATOM=  -71.1703
 kinetic energy error for atom=    0.0007 (will be added to EATOM!!)
  PAW_PBE Mo_sv 02Feb2006               :
 energy of atom  2       EATOM=-1862.2866
 kinetic energy error for atom=    0.0041 (will be added to EATOM!!)
  PAW_PBE Si 05Jan2001                  :
 energy of atom  3       EATOM= -103.0669
 kinetic energy error for atom=    0.0003 (will be added to EATOM!!)
 
 
 POSCAR: EA87
  positions in direct lattice
  No initial velocities read in

 METAGGA = R2SCA    LMAXTAU =  6    LMIXTAU =  F

 exchange correlation table for  LEXCH =        8
   RHO(1)=    0.500       N(1)  =     2000
   RHO(2)=  100.500       N(2)  =     4000
 


--------------------------------------------------------------------------------------------------------


 ion  position               nearest neighbor table
   1  0.500  0.500  0.500-   5 2.33   7 2.33   8 2.33   6 2.33
   2  0.500  0.000  0.000-   6 2.33   8 2.33   5 2.33   7 2.33
   3  0.000  0.000  0.500-   5 2.33   7 2.33   6 2.33   8 2.33
   4  0.000  0.500  0.000-   6 2.33   8 2.33   7 2.33   5 2.33
   5  0.750  0.250  0.500-   9 2.19  10 2.19   1 2.33   3 2.33   4 2.33   2 2.33   8 3.29   6 3.29
                             8 3.29   6 3.29
   6  0.250  0.250  0.000-   2 2.33   4 2.33   1 2.33   3 2.33   7 3.29   5 3.29   7 3.29   5 3.29

   7  0.250  0.750  0.500-   9 2.19  10 2.19   1 2.33   3 2.33   2 2.33   4 2.33   8 3.29   6 3.29
                             6 3.29   8 3.29
   8  0.750  0.750  0.000-   2 2.33   4 2.33   3 2.33   1 2.33   7 3.29   5 3.29   5 3.29   7 3.29

   9  0.000  0.500  0.500-   5 2.19   7 2.19
  10  0.500  0.000  0.500-   5 2.19   7 2.19
 
  LATTYP: Found a body centered tetragonal cell.
 ALAT       =     6.5775938199
 C/A-ratio  =     1.3341816354
  
  Lattice vectors:
  
 A1 = (   5.6408458749,   0.0000000000,  -3.0110456138)
 A2 = (  -2.0290282253,   5.2632866771,  -3.0110456138)
 A3 = (   0.0000000000,   0.0000000000,   6.3941800000)


Analysis of symmetry for initial positions (statically):
=====================================================================
 Subroutine PRICEL returns following result:
 
  LATTYP: Found a simple tetragonal cell.
 ALAT       =     4.6510524443
 C/A-ratio  =     0.9434106565
  
  Lattice vectors:
  
 A1 = (  -3.8349370501,   2.6316433385,   0.0000000000)
 A2 = (   1.8059088248,   2.6316433385,   3.3831343862)
 A3 = (   1.8059088248,   2.6316433385,  -3.0110456138)
 
   2 primitive cells build up your supercell.
 

 Routine SETGRP: Setting up the symmetry group for a 
 body centered tetragonal supercell.


 Subroutine GETGRP returns: Found 16 space group operations
 (whereof 16 operations were pure point group operations)
 out of a pool of 16 trial point group operations.


The static configuration has the point symmetry D_4h.


Analysis of symmetry for dynamics (positions and initial velocities):
=====================================================================
 Subroutine PRICEL returns following result:
 
  LATTYP: Found a simple tetragonal cell.
 ALAT       =     4.6510524443
 C/A-ratio  =     0.9434106565
  
  Lattice vectors:
  
 A1 = (  -3.8349370501,   2.6316433385,   0.0000000000)
 A2 = (   1.8059088248,   2.6316433385,   3.3831343862)
 A3 = (   1.8059088248,   2.6316433385,  -3.0110456138)
 
   2 primitive cells build up your supercell.
 

 Routine SETGRP: Setting up the symmetry group for a 
 body centered tetragonal supercell.


 Subroutine GETGRP returns: Found 16 space group operations
 (whereof 16 operations were pure point group operations)
 out of a pool of 16 trial point group operations.


The dynamic configuration has the point symmetry D_4h.


 Subroutine INISYM returns: Found 16 space group operations
 (whereof 16 operations are pure point group operations),
 and found     2 'primitive' translations


----------------------------------------------------------------------------------------

                                     Primitive cell                                     

  volume of cell :      94.9196

  direct lattice vectors                    reciprocal lattice vectors
    -3.834937050  2.631643339  0.000000000    -0.177278377  0.121653486  0.000000000
     1.805908825  2.631643339  3.383134386     0.083481115  0.121652056  0.156392219
     1.805908825  2.631643339 -3.011045614     0.093797261  0.136685161 -0.156392219

  length of vectors
     4.651052444  4.651069944  4.387852440     0.215005101  0.215004292  0.227901921

  position of ions in fractional coordinates (direct lattice)
     0.000000000  0.500000000  0.500000000
     0.500000000  0.000000000  0.500000000
     0.500000000  0.500000000  0.500000000
     0.000000000  0.000000000  0.500000000
     0.500000000  0.500000000  1.000000000

  ion indices of the primitive-cell ions
   primitive index   ion index
                 1           1
                 2           2
                 3           5
                 4           6
                 5           9

----------------------------------------------------------------------------------------

 
 
 KPOINTS: EA                                      

Automatic generation of k-mesh.
 Grid dimensions read from file:
 generate k-points for:    7    7    8

 Generating k-lattice:

  Cartesian coordinates                     Fractional coordinates (reciprocal lattice)
     0.025325482  0.009763124  0.000000000     0.142857143 -0.000000000  0.000000000
     0.000000000  0.027142193  0.000000000     0.000000000  0.142857143  0.000000000
     0.010435139  0.015206507  0.019549027     0.000000000  0.000000000  0.125000000

  Length of vectors
     0.027142193  0.027142193  0.026875536

  Shift w.r.t. Gamma in fractional coordinates (k-lattice)
     0.000000000  0.000000000  0.000000000

 -----------------------------------------------------------------------------
|                                                                             |
|           W    W    AA    RRRRR   N    N  II  N    N   GGGG   !!!           |
|           W    W   A  A   R    R  NN   N  II  NN   N  G    G  !!!           |
|           W    W  A    A  R    R  N N  N  II  N N  N  G       !!!           |
|           W WW W  AAAAAA  RRRRR   N  N N  II  N  N N  G  GGG   !            |
|           WW  WW  A    A  R   R   N   NN  II  N   NN  G    G                |
|           W    W  A    A  R    R  N    N  II  N    N   GGGG   !!!           |
|                                                                             |
|     Your reciprocal lattice and k-lattice belong to different lattice       |
|     classes:                                                                |
|                                                                             |
|        The reciprocal lattice is body-centered tetragonal,                  |
|        whereas your k-lattice is base-centered monoclinic.                  |
|                                                                             |
|     Results are often still useful ...                                      |
|                                                                             |
 -----------------------------------------------------------------------------

 WARNING: IBZKPT: internal override: KBLOWUP is changed to .FALSE.
      ... skipping the blow-up phase ...

 
 Subroutine IBZKPT returns following result:
 ===========================================
 
 Found    116 irreducible k-points:
 
 Following reciprocal coordinates:
            Coordinates               Weight
  0.000000  0.000000  0.000000      1.000000
  0.142857  0.000000  0.000000      4.000000
  0.285714  0.000000  0.000000      4.000000
  0.428571 -0.000000  0.000000      4.000000
  0.142857  0.142857  0.000000      2.000000
  0.285714  0.142857  0.000000      4.000000
  0.428571  0.142857  0.000000      4.000000
 -0.428571  0.142857  0.000000      4.000000
 -0.285714  0.142857  0.000000      4.000000
 -0.142857  0.142857  0.000000      2.000000
  0.285714  0.285714  0.000000      2.000000
  0.428571  0.285714  0.000000      4.000000
 -0.428571  0.285714  0.000000      4.000000
 -0.285714  0.285714  0.000000      2.000000
  0.428571  0.428571  0.000000      2.000000
 -0.428571  0.428571  0.000000      2.000000
  0.000000  0.000000  0.125000      2.000000
  0.142857  0.000000  0.125000      4.000000
  0.285714  0.000000  0.125000      4.000000
  0.428571  0.000000  0.125000      4.000000
 -0.428571  0.000000  0.125000      4.000000
 -0.285714  0.000000  0.125000      4.000000
 -0.142857  0.000000  0.125000      4.000000
  0.142857  0.142857  0.125000      2.000000
  0.285714  0.142857  0.125000      4.000000
  0.428571  0.142857  0.125000      4.000000
 -0.428571  0.142857  0.125000      4.000000
 -0.285714  0.142857  0.125000      4.000000
 -0.142857  0.142857  0.125000      4.000000
  0.285714  0.285714  0.125000      2.000000
  0.428571  0.285714  0.125000      4.000000
 -0.428571  0.285714  0.125000      4.000000
 -0.285714  0.285714  0.125000      4.000000
 -0.142857  0.285714  0.125000      4.000000
  0.428571  0.428571  0.125000      2.000000
 -0.428571  0.428571  0.125000      4.000000
 -0.285714  0.428571  0.125000      4.000000
 -0.142857  0.428571  0.125000      4.000000
 -0.428571 -0.428571  0.125000      2.000000
 -0.285714 -0.428571  0.125000      4.000000
 -0.142857 -0.428571  0.125000      4.000000
 -0.285714 -0.285714  0.125000      2.000000
 -0.142857 -0.285714  0.125000      4.000000
 -0.142857 -0.142857  0.125000      2.000000
  0.000000  0.000000  0.250000      2.000000
  0.142857  0.000000  0.250000      4.000000
  0.285714  0.000000  0.250000      4.000000
  0.428571  0.000000  0.250000      4.000000
 -0.428571  0.000000  0.250000      4.000000
 -0.285714  0.000000  0.250000      4.000000
 -0.142857  0.000000  0.250000      4.000000
  0.142857  0.142857  0.250000      2.000000
  0.285714  0.142857  0.250000      4.000000
  0.428571  0.142857  0.250000      4.000000
 -0.428571  0.142857  0.250000      4.000000
 -0.285714  0.142857  0.250000      4.000000
 -0.142857  0.142857  0.250000      4.000000
  0.285714  0.285714  0.250000      2.000000
  0.428571  0.285714  0.250000      4.000000
 -0.428571  0.285714  0.250000      4.000000
 -0.285714  0.285714  0.250000      4.000000
 -0.142857  0.285714  0.250000      4.000000
  0.428571  0.428571  0.250000      2.000000
 -0.428571  0.428571  0.250000      4.000000
 -0.285714  0.428571  0.250000      4.000000
 -0.142857  0.428571  0.250000      4.000000
 -0.428571 -0.428571  0.250000      2.000000
 -0.285714 -0.428571  0.250000      4.000000
 -0.142857 -0.428571  0.250000      4.000000
 -0.285714 -0.285714  0.250000      2.000000
 -0.142857 -0.285714  0.250000      4.000000
 -0.142857 -0.142857  0.250000      2.000000
  0.000000  0.000000  0.375000      2.000000
  0.142857  0.000000  0.375000      4.000000
  0.285714  0.000000  0.375000      4.000000
  0.428571  0.000000  0.375000      4.000000
 -0.428571  0.000000  0.375000      4.000000
 -0.285714  0.000000  0.375000      4.000000
 -0.142857  0.000000  0.375000      4.000000
  0.142857  0.142857  0.375000      2.000000
  0.285714  0.142857  0.375000      4.000000
  0.428571  0.142857  0.375000      4.000000
 -0.428571  0.142857  0.375000      4.000000
 -0.285714  0.142857  0.375000      4.000000
 -0.142857  0.142857  0.375000      4.000000
  0.285714  0.285714  0.375000      2.000000
  0.428571  0.285714  0.375000      4.000000
 -0.428571  0.285714  0.375000      4.000000
 -0.285714  0.285714  0.375000      4.000000
 -0.142857  0.285714  0.375000      4.000000
  0.428571  0.428571  0.375000      2.000000
 -0.428571  0.428571  0.375000      4.000000
 -0.285714  0.428571  0.375000      4.000000
 -0.142857  0.428571  0.375000      4.000000
 -0.428571 -0.428571  0.375000      2.000000
 -0.285714 -0.428571  0.375000      4.000000
 -0.142857 -0.428571  0.375000      4.000000
 -0.285714 -0.285714  0.375000      2.000000
 -0.142857 -0.285714  0.375000      4.000000
 -0.142857 -0.142857  0.375000      2.000000
  0.000000  0.000000  0.500000      1.000000
  0.142857  0.000000  0.500000      4.000000
  0.285714  0.000000  0.500000      4.000000
  0.428571  0.000000  0.500000      4.000000
  0.142857  0.142857  0.500000      2.000000
  0.285714  0.142857  0.500000      4.000000
  0.428571  0.142857  0.500000      4.000000
 -0.428571  0.142857  0.500000      4.000000
 -0.285714  0.142857  0.500000      4.000000
 -0.142857  0.142857  0.500000      2.000000
  0.285714  0.285714  0.500000      2.000000
  0.428571  0.285714  0.500000      4.000000
 -0.428571  0.285714  0.500000      4.000000
 -0.285714  0.285714  0.500000      2.000000
  0.428571  0.428571  0.500000      2.000000
 -0.428571  0.428571  0.500000      2.000000
 
 Following cartesian coordinates:
            Coordinates               Weight
  0.000000  0.000000  0.000000      1.000000
  0.025325  0.009763  0.000000      4.000000
  0.050651  0.019526  0.000000      4.000000
  0.075976  0.029289  0.000000      4.000000
  0.025325  0.036905  0.000000      2.000000
  0.050651  0.046668  0.000000      4.000000
  0.075976  0.056432  0.000000      4.000000
 -0.075976 -0.002147  0.000000      4.000000
 -0.050651  0.007616  0.000000      4.000000
 -0.025325  0.017379  0.000000      2.000000
  0.050651  0.073811  0.000000      2.000000
  0.075976  0.083574  0.000000      4.000000
 -0.075976  0.024995  0.000000      4.000000
 -0.050651  0.034758  0.000000      2.000000
  0.075976  0.110716  0.000000      2.000000
 -0.075976  0.052137  0.000000      2.000000
  0.010435  0.015207  0.019549      2.000000
  0.035761  0.024970  0.019549      4.000000
  0.061086  0.034733  0.019549      4.000000
  0.086412  0.044496  0.019549      4.000000
 -0.065541 -0.014083  0.019549      4.000000
 -0.040216 -0.004320  0.019549      4.000000
 -0.014890  0.005443  0.019549      4.000000
  0.035761  0.052112  0.019549      2.000000
  0.061086  0.061875  0.019549      4.000000
  0.086412  0.071638  0.019549      4.000000
 -0.065541  0.013059  0.019549      4.000000
 -0.040216  0.022822  0.019549      4.000000
 -0.014890  0.032586  0.019549      4.000000
  0.061086  0.089017  0.019549      2.000000
  0.086412  0.098780  0.019549      4.000000
 -0.065541  0.040202  0.019549      4.000000
 -0.040216  0.049965  0.019549      4.000000
 -0.014890  0.059728  0.019549      4.000000
  0.086412  0.125922  0.019549      2.000000
 -0.065541  0.067344  0.019549      4.000000
 -0.040216  0.077107  0.019549      4.000000
 -0.014890  0.086870  0.019549      4.000000
 -0.065541 -0.095509  0.019549      2.000000
 -0.040216 -0.085746  0.019549      4.000000
 -0.014890 -0.075983  0.019549      4.000000
 -0.040216 -0.058604  0.019549      2.000000
 -0.014890 -0.048841  0.019549      4.000000
 -0.014890 -0.021699  0.019549      2.000000
  0.020870  0.030413  0.039098      2.000000
  0.046196  0.040176  0.039098      4.000000
  0.071521  0.049939  0.039098      4.000000
  0.096847  0.059702  0.039098      4.000000
 -0.055106  0.001124  0.039098      4.000000
 -0.029781  0.010887  0.039098      4.000000
 -0.004455  0.020650  0.039098      4.000000
  0.046196  0.067318  0.039098      2.000000
  0.071521  0.077081  0.039098      4.000000
  0.096847  0.086845  0.039098      4.000000
 -0.055106  0.028266  0.039098      4.000000
 -0.029781  0.038029  0.039098      4.000000
 -0.004455  0.047792  0.039098      4.000000
  0.071521  0.104224  0.039098      2.000000
  0.096847  0.113987  0.039098      4.000000
 -0.055106  0.055408  0.039098      4.000000
 -0.029781  0.065171  0.039098      4.000000
 -0.004455  0.074934  0.039098      4.000000
  0.096847  0.141129  0.039098      2.000000
 -0.055106  0.082550  0.039098      4.000000
 -0.029781  0.092313  0.039098      4.000000
 -0.004455  0.102076  0.039098      4.000000
 -0.055106 -0.080303  0.039098      2.000000
 -0.029781 -0.070540  0.039098      4.000000
 -0.004455 -0.060777  0.039098      4.000000
 -0.029781 -0.043398  0.039098      2.000000
 -0.004455 -0.033634  0.039098      4.000000
 -0.004455 -0.006492  0.039098      2.000000
  0.031305  0.045620  0.058647      2.000000
  0.056631  0.055383  0.058647      4.000000
  0.081956  0.065146  0.058647      4.000000
  0.107282  0.074909  0.058647      4.000000
 -0.044671  0.016330  0.058647      4.000000
 -0.019346  0.026093  0.058647      4.000000
  0.005980  0.035856  0.058647      4.000000
  0.056631  0.082525  0.058647      2.000000
  0.081956  0.092288  0.058647      4.000000
  0.107282  0.102051  0.058647      4.000000
 -0.044671  0.043472  0.058647      4.000000
 -0.019346  0.053235  0.058647      4.000000
  0.005980  0.062999  0.058647      4.000000
  0.081956  0.119430  0.058647      2.000000
  0.107282  0.129193  0.058647      4.000000
 -0.044671  0.070615  0.058647      4.000000
 -0.019346  0.080378  0.058647      4.000000
  0.005980  0.090141  0.058647      4.000000
  0.107282  0.156335  0.058647      2.000000
 -0.044671  0.097757  0.058647      4.000000
 -0.019346  0.107520  0.058647      4.000000
  0.005980  0.117283  0.058647      4.000000
 -0.044671 -0.065096  0.058647      2.000000
 -0.019346 -0.055333  0.058647      4.000000
  0.005980 -0.045570  0.058647      4.000000
 -0.019346 -0.028191  0.058647      2.000000
  0.005980 -0.018428  0.058647      4.000000
  0.005980  0.008714  0.058647      2.000000
  0.041741  0.060826  0.078196      1.000000
  0.067066  0.070589  0.078196      4.000000
  0.092392  0.080352  0.078196      4.000000
  0.117717  0.090115  0.078196      4.000000
  0.067066  0.097731  0.078196      2.000000
  0.092392  0.107494  0.078196      4.000000
  0.117717  0.117258  0.078196      4.000000
 -0.034236  0.058679  0.078196      4.000000
 -0.008910  0.068442  0.078196      4.000000
  0.016415  0.078205  0.078196      2.000000
  0.092392  0.134637  0.078196      2.000000
  0.117717  0.144400  0.078196      4.000000
 -0.034236  0.085821  0.078196      4.000000
 -0.008910  0.095584  0.078196      2.000000
  0.117717  0.171542  0.078196      2.000000
 -0.034236  0.112963  0.078196      2.000000
 


--------------------------------------------------------------------------------------------------------




 Dimension of arrays:
   k-points           NKPTS =    116   k-points in BZ     NKDIM =    116   number of bands    NBANDS=     48
   number of dos      NEDOS =    301   number of ions     NIONS =     10
   non local maximal  LDIM  =      6   non local SUM 2l+1 LMDIM =     18
   total plane-waves  NPLWV = 157464
   max r-space proj   IRMAX =      1   max aug-charges    IRDMAX= 290354
   dimension x,y,z NGX =    54 NGY =   54 NGZ =   54
   dimension x,y,z NGXF=   108 NGYF=  108 NGZF=  108
   support grid    NGXF=   216 NGYF=  216 NGZF=  216
   ions per type =               4   4   2
   NGX,Y,Z   is equivalent  to a cutoff of  14.04, 14.04, 14.04 a.u.
   NGXF,Y,Z  is equivalent  to a cutoff of  28.08, 28.08, 28.08 a.u.

 SYSTEM =  routine with relax: pwdword             
 POSCAR =  EA87                                    

 Startparameter for this run:
   NWRITE =      2    write-flag & timer
   PREC   = acc       normal or accurate (medium, high low for compatibility)
   ISTART =      0    job   : 0-new  1-cont  2-samecut
   ICHARG =      2    charge: 1-file 2-atom 10-const
   ISPIN  =      1    spin polarized calculation?
   LNONCOLLINEAR =      F non collinear calculations
   LSORBIT =      F    spin-orbit coupling
   INIWAV =      1    electr: 0-lowe 1-rand  2-diag
   LASPH  =      T    aspherical Exc in radial PAW
   METAGGA=      F    non-selfconsistent MetaGGA calc.

 Electronic Relaxation 1
   ENCUT  =  600.0 eV  44.10 Ry    6.64 a.u.  12.77 12.77 12.77*2*pi/ulx,y,z
   ENINI  =  600.0     initial cutoff
   ENAUG  =  535.5 eV  augmentation charge cutoff
   NELM   =    100;   NELMIN=  6; NELMDL= -5     # of ELM steps 
   EDIFF  = 0.1E-08   stopping-criterion for ELM
   LREAL  =      F    real-space projection
   NLSPLINE    = F    spline interpolate recip. space projectors
   LCOMPAT=      F    compatible to vasp.4.4
   GGA_COMPAT  = T    GGA compatible to vasp.4.4-vasp.4.6
   LMAXPAW     = -100 max onsite density
   LMAXMIX     =    2 max onsite mixed and CHGCAR
   VOSKOWN=      0    Vosko Wilk Nusair interpolation
   ROPT   =    0.00000   0.00000   0.00000
 Ionic relaxation
   EDIFFG = 0.1E-07   stopping-criterion for IOM
   NSW    =      0    number of steps for IOM
   NBLOCK =      1;   KBLOCK =      1    inner block; outer block 
   IBRION =     -1    ionic relax: 0-MD 1-quasi-New 2-CG
   NFREE  =      0    steps in history (QN), initial steepest desc. (CG)
   ISIF   =     -1    stress and relaxation
   IWAVPR =     10    prediction:  0-non 1-charg 2-wave 3-comb
   ISYM   =      2    0-nonsym 1-usesym 2-fastsym
   LCORR  =      T    Harris-Foulkes like correction to forces

   POTIM  = 0.5000    time-step for ionic-motion
   TEIN   =    0.0    initial temperature
   TEBEG  =    0.0;   TEEND  =   0.0 temperature during run
   SMASS  =  -3.00    Nose mass-parameter (am)
   estimated Nose-frequenzy (Omega)   =  0.10E-29 period in steps = 0.13E+47 mass=  -0.934E-27a.u.
   SCALEE = 1.0000    scale energy and forces
   NPACO  =    256;   APACO  = 16.0  distance and # of slots for P.C.
   PSTRESS=    0.0 pullay stress

  Mass of Ions in am
   POMASS =  10.81 95.94 28.09
  Ionic Valenz
   ZVAL   =   3.00 14.00  4.00
  Atomic Wigner-Seitz radii
   RWIGS  =  -1.00 -1.00 -1.00
  virtual crystal weights 
   VCA    =   1.00  1.00  1.00
   NELECT =      76.0000    total number of electrons
   NUPDOWN=      -1.0000    fix difference up-down

 DOS related values:
   EMIN   =  10.00;   EMAX   =-10.00  energy-range for DOS
   EFERMI =   0.00
   ISMEAR =     0;   SIGMA  =   0.02  broadening in eV -4-tet -1-fermi 0-gaus

 Electronic relaxation 2 (details)
   IALGO  =     58    algorithm
   LDIAG  =      T    sub-space diagonalisation (order eigenvalues)
   LSUBROT=      F    optimize rotation matrix (better conditioning)
   TURBO    =      0    0=normal 1=particle mesh
   IRESTART =      0    0=no restart 2=restart with 2 vectors
   NREBOOT  =      0    no. of reboots
   NMIN     =      0    reboot dimension
   EREF     =   0.00    reference energy to select bands
   IMIX   =      4    mixing-type and parameters
     AMIX     =   0.40;   BMIX     =  1.00
     AMIX_MAG =   1.60;   BMIX_MAG =  1.00
     AMIN     =   0.10
     WC   =   100.;   INIMIX=   1;  MIXPRE=   1;  MAXMIX= -45

 Intra band minimization:
   WEIMIN = 0.0000     energy-eigenvalue tresh-hold
   EBREAK =  0.52E-11  absolut break condition
   DEPER  =   0.30     relativ break condition  

   TIME   =   0.40     timestep for ELM

  volume/ion in A,a.u.               =      18.98       128.11
  Fermi-wavevector in a.u.,A,eV,Ry     =   1.206565  2.280077 19.807343  1.455799
  Thomas-Fermi vector in A             =   2.342228
 
 Write flags
   LWAVE        =      T    write WAVECAR
   LDOWNSAMPLE  =      F    k-point downsampling of WAVECAR
   LCHARG       =      T    write CHGCAR
   LVTOT        =      F    write LOCPOT, total local potential
   LVHAR        =      F    write LOCPOT, Hartree potential only
   LELF         =      F    write electronic localiz. function (ELF)
   LORBIT       =      0    0 simple, 1 ext, 2 COOP (PROOUT), +10 PAW based schemes


 Dipole corrections
   LMONO  =      F    monopole corrections only (constant potential shift)
   LDIPOL =      F    correct potential (dipole corrections)
   IDIPOL =      0    1-x, 2-y, 3-z, 4-all directions 
   EPSILON=  1.0000000 bulk dielectric constant

 Exchange correlation treatment:
   GGA     =    --    GGA type
   LEXCH   =     8    internal setting for exchange type
   VOSKOWN=      0    Vosko Wilk Nusair interpolation
   LHFCALC =     F    Hartree Fock is set to
   LHFONE  =     F    Hartree Fock one center treatment
   AEXX    =    0.0000 exact exchange contribution

 Linear response parameters
   LEPSILON=     F    determine dielectric tensor
   LRPA    =     F    only Hartree local field effects (RPA)
   LNABLA  =     F    use nabla operator in PAW spheres
   LVEL    =     F    velocity operator in full k-point grid
   LINTERFAST=   F  fast interpolation
   KINTER  =     0    interpolate to denser k-point grid
   CSHIFT  =0.1000    complex shift for real part using Kramers Kronig
   OMEGAMAX=  -1.0    maximum frequency
   DEG_THRESHOLD= 0.2000000E-02 threshold for treating states as degnerate
   RTIME   =   -0.100 relaxation time in fs
  (WPLASMAI=    0.000 imaginary part of plasma frequency in eV, 0.658/RTIME)
   DFIELD  = 0.0000000 0.0000000 0.0000000 field for delta impulse in time
 
 Orbital magnetization related:
   ORBITALMAG=     F  switch on orbital magnetization
   LCHIMAG   =     F  perturbation theory with respect to B field
   DQ        =  0.001000  dq finite difference perturbation B field
   LLRAUG    =     F  two centre corrections for induced B field



--------------------------------------------------------------------------------------------------------


 Static calculation
 charge density and potential will be updated during run
 non-spin polarized calculation
 Conjugate gradient for all bands (Freysoldt, et al. PRB 79, 241103 (2009))
 preconditioned conjugated gradient                                        
 perform sub-space diagonalisation
    before iterative eigenvector-optimisation
 modified Broyden-mixing scheme, WC =      100.0
 initial mixing is a Kerker type mixing with AMIX =  0.4000 and BMIX =      1.0000
 Hartree-type preconditioning will be used
 using additional bands           10
 reciprocal scheme for non local part
 use partial core corrections
 no Harris-corrections to forces 
 use gradient corrections 
 use of overlap-Matrix (Vanderbilt PP)
 Gauss-broadening in eV      SIGMA  =   0.02


--------------------------------------------------------------------------------------------------------


  energy-cutoff  :      600.00
  volume of cell :      189.84
      direct lattice vectors                 reciprocal lattice vectors
     5.640845875  0.000000000 -3.011045614     0.177278377  0.068341865  0.000000000
    -2.029028225  5.263286677 -3.011045614     0.000000000  0.189995351  0.000000000
     0.000000000  0.000000000  6.394180000     0.083481115  0.121652056  0.156392219

  length of vectors
     6.394180000  6.394180000  6.394180000     0.189995351  0.189995351  0.215004292


 
 k-points in units of 2pi/SCALE and weight: EA                                      
   0.00000000  0.00000000  0.00000000       0.003
   0.02532548  0.00976312  0.00000000       0.010
   0.05065096  0.01952625  0.00000000       0.010
   0.07597645  0.02928937  0.00000000       0.010
   0.02532548  0.03690532  0.00000000       0.005
   0.05065096  0.04666844  0.00000000       0.010
   0.07597645  0.05643156  0.00000000       0.010
  -0.07597645 -0.00214718  0.00000000       0.010
  -0.05065096  0.00761595  0.00000000       0.010
  -0.02532548  0.01737907  0.00000000       0.005
   0.05065096  0.07381063  0.00000000       0.005
   0.07597645  0.08357376  0.00000000       0.010
  -0.07597645  0.02499502  0.00000000       0.010
  -0.05065096  0.03475814  0.00000000       0.005
   0.07597645  0.11071595  0.00000000       0.005
  -0.07597645  0.05213721  0.00000000       0.005
   0.01043514  0.01520651  0.01954903       0.005
   0.03576062  0.02496963  0.01954903       0.010
   0.06108610  0.03473275  0.01954903       0.010
   0.08641159  0.04449588  0.01954903       0.010
  -0.06554131 -0.01408286  0.01954903       0.010
  -0.04021583 -0.00431974  0.01954903       0.010
  -0.01489034  0.00544338  0.01954903       0.010
   0.03576062  0.05211182  0.01954903       0.005
   0.06108610  0.06187495  0.01954903       0.010
   0.08641159  0.07163807  0.01954903       0.010
  -0.06554131  0.01305933  0.01954903       0.010
  -0.04021583  0.02282245  0.01954903       0.010
  -0.01489034  0.03258558  0.01954903       0.010
   0.06108610  0.08901714  0.01954903       0.005
   0.08641159  0.09878026  0.01954903       0.010
  -0.06554131  0.04020152  0.01954903       0.010
  -0.04021583  0.04996465  0.01954903       0.010
  -0.01489034  0.05972777  0.01954903       0.010
   0.08641159  0.12592246  0.01954903       0.005
  -0.06554131  0.06734372  0.01954903       0.010
  -0.04021583  0.07710684  0.01954903       0.010
  -0.01489034  0.08686996  0.01954903       0.010
  -0.06554131 -0.09550944  0.01954903       0.005
  -0.04021583 -0.08574632  0.01954903       0.010
  -0.01489034 -0.07598320  0.01954903       0.010
  -0.04021583 -0.05860413  0.01954903       0.005
  -0.01489034 -0.04884100  0.01954903       0.010
  -0.01489034 -0.02169881  0.01954903       0.005
   0.02087028  0.03041301  0.03909805       0.005
   0.04619576  0.04017614  0.03909805       0.010
   0.07152124  0.04993926  0.03909805       0.010
   0.09684673  0.05970238  0.03909805       0.010
  -0.05510617  0.00112364  0.03909805       0.010
  -0.02978069  0.01088677  0.03909805       0.010
  -0.00445520  0.02064989  0.03909805       0.010
   0.04619576  0.06731833  0.03909805       0.005
   0.07152124  0.07708145  0.03909805       0.010
   0.09684673  0.08684458  0.03909805       0.010
  -0.05510617  0.02826584  0.03909805       0.010
  -0.02978069  0.03802896  0.03909805       0.010
  -0.00445520  0.04779208  0.03909805       0.010
   0.07152124  0.10422365  0.03909805       0.005
   0.09684673  0.11398677  0.03909805       0.010
  -0.05510617  0.05540803  0.03909805       0.010
  -0.02978069  0.06517115  0.03909805       0.010
  -0.00445520  0.07493428  0.03909805       0.010
   0.09684673  0.14112896  0.03909805       0.005
  -0.05510617  0.08255022  0.03909805       0.010
  -0.02978069  0.09231335  0.03909805       0.010
  -0.00445520  0.10207647  0.03909805       0.010
  -0.05510617 -0.08030294  0.03909805       0.005
  -0.02978069 -0.07053981  0.03909805       0.010
  -0.00445520 -0.06077669  0.03909805       0.010
  -0.02978069 -0.04339762  0.03909805       0.005
  -0.00445520 -0.03363450  0.03909805       0.010
  -0.00445520 -0.00649230  0.03909805       0.005
   0.03130542  0.04561952  0.05864708       0.005
   0.05663090  0.05538264  0.05864708       0.010
   0.08195638  0.06514577  0.05864708       0.010
   0.10728187  0.07490889  0.05864708       0.010
  -0.04467103  0.01633015  0.05864708       0.010
  -0.01934555  0.02609327  0.05864708       0.010
   0.00597994  0.03585640  0.05864708       0.010
   0.05663090  0.08252484  0.05864708       0.005
   0.08195638  0.09228796  0.05864708       0.010
   0.10728187  0.10205108  0.05864708       0.010
  -0.04467103  0.04347234  0.05864708       0.010
  -0.01934555  0.05323547  0.05864708       0.010
   0.00597994  0.06299859  0.05864708       0.010
   0.08195638  0.11943015  0.05864708       0.005
   0.10728187  0.12919328  0.05864708       0.010
  -0.04467103  0.07061454  0.05864708       0.010
  -0.01934555  0.08037766  0.05864708       0.010
   0.00597994  0.09014078  0.05864708       0.010
   0.10728187  0.15633547  0.05864708       0.005
  -0.04467103  0.09775673  0.05864708       0.010
  -0.01934555  0.10751985  0.05864708       0.010
   0.00597994  0.11728298  0.05864708       0.010
  -0.04467103 -0.06509643  0.05864708       0.005
  -0.01934555 -0.05533331  0.05864708       0.010
   0.00597994 -0.04557018  0.05864708       0.010
  -0.01934555 -0.02819111  0.05864708       0.005
   0.00597994 -0.01842799  0.05864708       0.010
   0.00597994  0.00871420  0.05864708       0.005
   0.04174056  0.06082603  0.07819611       0.003
   0.06706604  0.07058915  0.07819611       0.010
   0.09239152  0.08035228  0.07819611       0.010
   0.11771700  0.09011540  0.07819611       0.010
   0.06706604  0.09773134  0.07819611       0.005
   0.09239152  0.10749447  0.07819611       0.010
   0.11771700  0.11725759  0.07819611       0.010
  -0.03423589  0.05867885  0.07819611       0.010
  -0.00891041  0.06844197  0.07819611       0.010
   0.01641508  0.07820510  0.07819611       0.005
   0.09239152  0.13463666  0.07819611       0.005
   0.11771700  0.14439978  0.07819611       0.010
  -0.03423589  0.08582104  0.07819611       0.010
  -0.00891041  0.09558417  0.07819611       0.005
   0.11771700  0.17154198  0.07819611       0.005
  -0.03423589  0.11296324  0.07819611       0.005
 
 k-points in reciprocal lattice and weights: EA                                      
   0.00000000  0.00000000  0.00000000       0.003
   0.14285714  0.00000000  0.00000000       0.010
   0.28571429  0.00000000  0.00000000       0.010
   0.42857143 -0.00000000  0.00000000       0.010
   0.14285714  0.14285714  0.00000000       0.005
   0.28571429  0.14285714  0.00000000       0.010
   0.42857143  0.14285714  0.00000000       0.010
  -0.42857143  0.14285714  0.00000000       0.010
  -0.28571429  0.14285714  0.00000000       0.010
  -0.14285714  0.14285714  0.00000000       0.005
   0.28571429  0.28571429  0.00000000       0.005
   0.42857143  0.28571429  0.00000000       0.010
  -0.42857143  0.28571429  0.00000000       0.010
  -0.28571429  0.28571429  0.00000000       0.005
   0.42857143  0.42857143  0.00000000       0.005
  -0.42857143  0.42857143  0.00000000       0.005
   0.00000000  0.00000000  0.12500000       0.005
   0.14285714  0.00000000  0.12500000       0.010
   0.28571429  0.00000000  0.12500000       0.010
   0.42857143  0.00000000  0.12500000       0.010
  -0.42857143  0.00000000  0.12500000       0.010
  -0.28571429  0.00000000  0.12500000       0.010
  -0.14285714  0.00000000  0.12500000       0.010
   0.14285714  0.14285714  0.12500000       0.005
   0.28571429  0.14285714  0.12500000       0.010
   0.42857143  0.14285714  0.12500000       0.010
  -0.42857143  0.14285714  0.12500000       0.010
  -0.28571429  0.14285714  0.12500000       0.010
  -0.14285714  0.14285714  0.12500000       0.010
   0.28571429  0.28571429  0.12500000       0.005
   0.42857143  0.28571429  0.12500000       0.010
  -0.42857143  0.28571429  0.12500000       0.010
  -0.28571429  0.28571429  0.12500000       0.010
  -0.14285714  0.28571429  0.12500000       0.010
   0.42857143  0.42857143  0.12500000       0.005
  -0.42857143  0.42857143  0.12500000       0.010
  -0.28571429  0.42857143  0.12500000       0.010
  -0.14285714  0.42857143  0.12500000       0.010
  -0.42857143 -0.42857143  0.12500000       0.005
  -0.28571429 -0.42857143  0.12500000       0.010
  -0.14285714 -0.42857143  0.12500000       0.010
  -0.28571429 -0.28571429  0.12500000       0.005
  -0.14285714 -0.28571429  0.12500000       0.010
  -0.14285714 -0.14285714  0.12500000       0.005
   0.00000000  0.00000000  0.25000000       0.005
   0.14285714  0.00000000  0.25000000       0.010
   0.28571429  0.00000000  0.25000000       0.010
   0.42857143  0.00000000  0.25000000       0.010
  -0.42857143  0.00000000  0.25000000       0.010
  -0.28571429  0.00000000  0.25000000       0.010
  -0.14285714  0.00000000  0.25000000       0.010
   0.14285714  0.14285714  0.25000000       0.005
   0.28571429  0.14285714  0.25000000       0.010
   0.42857143  0.14285714  0.25000000       0.010
  -0.42857143  0.14285714  0.25000000       0.010
  -0.28571429  0.14285714  0.25000000       0.010
  -0.14285714  0.14285714  0.25000000       0.010
   0.28571429  0.28571429  0.25000000       0.005
   0.42857143  0.28571429  0.25000000       0.010
  -0.42857143  0.28571429  0.25000000       0.010
  -0.28571429  0.28571429  0.25000000       0.010
  -0.14285714  0.28571429  0.25000000       0.010
   0.42857143  0.42857143  0.25000000       0.005
  -0.42857143  0.42857143  0.25000000       0.010
  -0.28571429  0.42857143  0.25000000       0.010
  -0.14285714  0.42857143  0.25000000       0.010
  -0.42857143 -0.42857143  0.25000000       0.005
  -0.28571429 -0.42857143  0.25000000       0.010
  -0.14285714 -0.42857143  0.25000000       0.010
  -0.28571429 -0.28571429  0.25000000       0.005
  -0.14285714 -0.28571429  0.25000000       0.010
  -0.14285714 -0.14285714  0.25000000       0.005
   0.00000000  0.00000000  0.37500000       0.005
   0.14285714  0.00000000  0.37500000       0.010
   0.28571429  0.00000000  0.37500000       0.010
   0.42857143  0.00000000  0.37500000       0.010
  -0.42857143  0.00000000  0.37500000       0.010
  -0.28571429  0.00000000  0.37500000       0.010
  -0.14285714  0.00000000  0.37500000       0.010
   0.14285714  0.14285714  0.37500000       0.005
   0.28571429  0.14285714  0.37500000       0.010
   0.42857143  0.14285714  0.37500000       0.010
  -0.42857143  0.14285714  0.37500000       0.010
  -0.28571429  0.14285714  0.37500000       0.010
  -0.14285714  0.14285714  0.37500000       0.010
   0.28571429  0.28571429  0.37500000       0.005
   0.42857143  0.28571429  0.37500000       0.010
  -0.42857143  0.28571429  0.37500000       0.010
  -0.28571429  0.28571429  0.37500000       0.010
  -0.14285714  0.28571429  0.37500000       0.010
   0.42857143  0.42857143  0.37500000       0.005
  -0.42857143  0.42857143  0.37500000       0.010
  -0.28571429  0.42857143  0.37500000       0.010
  -0.14285714  0.42857143  0.37500000       0.010
  -0.42857143 -0.42857143  0.37500000       0.005
  -0.28571429 -0.42857143  0.37500000       0.010
  -0.14285714 -0.42857143  0.37500000       0.010
  -0.28571429 -0.28571429  0.37500000       0.005
  -0.14285714 -0.28571429  0.37500000       0.010
  -0.14285714 -0.14285714  0.37500000       0.005
   0.00000000  0.00000000  0.50000000       0.003
   0.14285714  0.00000000  0.50000000       0.010
   0.28571429  0.00000000  0.50000000       0.010
   0.42857143  0.00000000  0.50000000       0.010
   0.14285714  0.14285714  0.50000000       0.005
   0.28571429  0.14285714  0.50000000       0.010
   0.42857143  0.14285714  0.50000000       0.010
  -0.42857143  0.14285714  0.50000000       0.010
  -0.28571429  0.14285714  0.50000000       0.010
  -0.14285714  0.14285714  0.50000000       0.005
   0.28571429  0.28571429  0.50000000       0.005
   0.42857143  0.28571429  0.50000000       0.010
  -0.42857143  0.28571429  0.50000000       0.010
  -0.28571429  0.28571429  0.50000000       0.005
   0.42857143  0.42857143  0.50000000       0.005
  -0.42857143  0.42857143  0.50000000       0.005
 
 position of ions in fractional coordinates (direct lattice) 
   0.50000000  0.50000000  0.50000000
   0.50000000  0.00000000  0.00000000
   0.00000000  0.00000000  0.50000000
   0.00000000  0.50000000  0.00000000
   0.75000000  0.25000000  0.50000000
   0.25000000  0.25000000  0.00000000
   0.25000000  0.75000000  0.50000000
   0.75000000  0.75000000  0.00000000
   0.00000000  0.50000000  0.50000000
   0.50000000  0.00000000  0.50000000
 
 position of ions in cartesian coordinates  (Angst):
   1.80590882  2.63164334  0.18604439
   2.82042294  0.00000000 -1.50552281
   0.00000000  0.00000000  3.19709000
  -1.01451411  2.63164334 -1.50552281
   3.72337735  1.31582167  0.18604439
   0.90295441  1.31582167 -1.50552281
  -0.11155970  3.94746501  0.18604439
   2.70886324  3.94746501 -4.51656842
  -1.01451411  2.63164334  1.69156719
   2.82042294  0.00000000  1.69156719
 


--------------------------------------------------------------------------------------------------------


 k-point   1 :   0.0000 0.0000 0.0000  plane waves:    6397
 k-point   2 :   0.1429 0.0000 0.0000  plane waves:    6338
 k-point   3 :   0.2857 0.0000 0.0000  plane waves:    6331
 k-point   4 :   0.4286-0.0000 0.0000  plane waves:    6327
 k-point   5 :   0.1429 0.1429 0.0000  plane waves:    6323
 k-point   6 :   0.2857 0.1429 0.0000  plane waves:    6330
 k-point   7 :   0.4286 0.1429 0.0000  plane waves:    6334
 k-point   8 :  -0.4286 0.1429 0.0000  plane waves:    6340
 k-point   9 :  -0.2857 0.1429 0.0000  plane waves:    6324
 k-point  10 :  -0.1429 0.1429 0.0000  plane waves:    6337
 k-point  11 :   0.2857 0.2857 0.0000  plane waves:    6333
 k-point  12 :   0.4286 0.2857 0.0000  plane waves:    6342
 k-point  13 :  -0.4286 0.2857 0.0000  plane waves:    6350
 k-point  14 :  -0.2857 0.2857 0.0000  plane waves:    6319
 k-point  15 :   0.4286 0.4286 0.0000  plane waves:    6347
 k-point  16 :  -0.4286 0.4286 0.0000  plane waves:    6358
 k-point  17 :   0.0000 0.0000 0.1250  plane waves:    6341
 k-point  18 :   0.1429 0.0000 0.1250  plane waves:    6321
 k-point  19 :   0.2857 0.0000 0.1250  plane waves:    6341
 k-point  20 :   0.4286 0.0000 0.1250  plane waves:    6335
 k-point  21 :  -0.4286 0.0000 0.1250  plane waves:    6330
 k-point  22 :  -0.2857 0.0000 0.1250  plane waves:    6329
 k-point  23 :  -0.1429 0.0000 0.1250  plane waves:    6341
 k-point  24 :   0.1429 0.1429 0.1250  plane waves:    6346
 k-point  25 :   0.2857 0.1429 0.1250  plane waves:    6330
 k-point  26 :   0.4286 0.1429 0.1250  plane waves:    6334
 k-point  27 :  -0.4286 0.1429 0.1250  plane waves:    6340
 k-point  28 :  -0.2857 0.1429 0.1250  plane waves:    6325
 k-point  29 :  -0.1429 0.1429 0.1250  plane waves:    6333
 k-point  30 :   0.2857 0.2857 0.1250  plane waves:    6320
 k-point  31 :   0.4286 0.2857 0.1250  plane waves:    6343
 k-point  32 :  -0.4286 0.2857 0.1250  plane waves:    6343
 k-point  33 :  -0.2857 0.2857 0.1250  plane waves:    6332
 k-point  34 :  -0.1429 0.2857 0.1250  plane waves:    6340
 k-point  35 :   0.4286 0.4286 0.1250  plane waves:    6357
 k-point  36 :  -0.4286 0.4286 0.1250  plane waves:    6356
 k-point  37 :  -0.2857 0.4286 0.1250  plane waves:    6343
 k-point  38 :  -0.1429 0.4286 0.1250  plane waves:    6332
 k-point  39 :  -0.4286-0.4286 0.1250  plane waves:    6351
 k-point  40 :  -0.2857-0.4286 0.1250  plane waves:    6338
 k-point  41 :  -0.1429-0.4286 0.1250  plane waves:    6321
 k-point  42 :  -0.2857-0.2857 0.1250  plane waves:    6331
 k-point  43 :  -0.1429-0.2857 0.1250  plane waves:    6334
 k-point  44 :  -0.1429-0.1429 0.1250  plane waves:    6324
 k-point  45 :   0.0000 0.0000 0.2500  plane waves:    6309
 k-point  46 :   0.1429 0.0000 0.2500  plane waves:    6338
 k-point  47 :   0.2857 0.0000 0.2500  plane waves:    6343
 k-point  48 :   0.4286 0.0000 0.2500  plane waves:    6342
 k-point  49 :  -0.4286 0.0000 0.2500  plane waves:    6330
 k-point  50 :  -0.2857 0.0000 0.2500  plane waves:    6332
 k-point  51 :  -0.1429 0.0000 0.2500  plane waves:    6324
 k-point  52 :   0.1429 0.1429 0.2500  plane waves:    6342
 k-point  53 :   0.2857 0.1429 0.2500  plane waves:    6328
 k-point  54 :   0.4286 0.1429 0.2500  plane waves:    6330
 k-point  55 :  -0.4286 0.1429 0.2500  plane waves:    6328
 k-point  56 :  -0.2857 0.1429 0.2500  plane waves:    6337
 k-point  57 :  -0.1429 0.1429 0.2500  plane waves:    6328
 k-point  58 :   0.2857 0.2857 0.2500  plane waves:    6319
 k-point  59 :   0.4286 0.2857 0.2500  plane waves:    6342
 k-point  60 :  -0.4286 0.2857 0.2500  plane waves:    6344
 k-point  61 :  -0.2857 0.2857 0.2500  plane waves:    6332
 k-point  62 :  -0.1429 0.2857 0.2500  plane waves:    6332
 k-point  63 :   0.4286 0.4286 0.2500  plane waves:    6346
 k-point  64 :  -0.4286 0.4286 0.2500  plane waves:    6347
 k-point  65 :  -0.2857 0.4286 0.2500  plane waves:    6329
 k-point  66 :  -0.1429 0.4286 0.2500  plane waves:    6339
 k-point  67 :  -0.4286-0.4286 0.2500  plane waves:    6336
 k-point  68 :  -0.2857-0.4286 0.2500  plane waves:    6320
 k-point  69 :  -0.1429-0.4286 0.2500  plane waves:    6326
 k-point  70 :  -0.2857-0.2857 0.2500  plane waves:    6344
 k-point  71 :  -0.1429-0.2857 0.2500  plane waves:    6339
 k-point  72 :  -0.1429-0.1429 0.2500  plane waves:    6340
 k-point  73 :   0.0000 0.0000 0.3750  plane waves:    6346
 k-point  74 :   0.1429 0.0000 0.3750  plane waves:    6351
 k-point  75 :   0.2857 0.0000 0.3750  plane waves:    6341
 k-point  76 :   0.4286 0.0000 0.3750  plane waves:    6347
 k-point  77 :  -0.4286 0.0000 0.3750  plane waves:    6337
 k-point  78 :  -0.2857 0.0000 0.3750  plane waves:    6330
 k-point  79 :  -0.1429 0.0000 0.3750  plane waves:    6333
 k-point  80 :   0.1429 0.1429 0.3750  plane waves:    6344
 k-point  81 :   0.2857 0.1429 0.3750  plane waves:    6329
 k-point  82 :   0.4286 0.1429 0.3750  plane waves:    6333
 k-point  83 :  -0.4286 0.1429 0.3750  plane waves:    6328
 k-point  84 :  -0.2857 0.1429 0.3750  plane waves:    6325
 k-point  85 :  -0.1429 0.1429 0.3750  plane waves:    6354
 k-point  86 :   0.2857 0.2857 0.3750  plane waves:    6341
 k-point  87 :   0.4286 0.2857 0.3750  plane waves:    6340
 k-point  88 :  -0.4286 0.2857 0.3750  plane waves:    6329
 k-point  89 :  -0.2857 0.2857 0.3750  plane waves:    6342
 k-point  90 :  -0.1429 0.2857 0.3750  plane waves:    6342
 k-point  91 :   0.4286 0.4286 0.3750  plane waves:    6344
 k-point  92 :  -0.4286 0.4286 0.3750  plane waves:    6335
 k-point  93 :  -0.2857 0.4286 0.3750  plane waves:    6334
 k-point  94 :  -0.1429 0.4286 0.3750  plane waves:    6338
 k-point  95 :  -0.4286-0.4286 0.3750  plane waves:    6325
 k-point  96 :  -0.2857-0.4286 0.3750  plane waves:    6336
 k-point  97 :  -0.1429-0.4286 0.3750  plane waves:    6333
 k-point  98 :  -0.2857-0.2857 0.3750  plane waves:    6325
 k-point  99 :  -0.1429-0.2857 0.3750  plane waves:    6334
 k-point 100 :  -0.1429-0.1429 0.3750  plane waves:    6347
 k-point 101 :   0.0000 0.0000 0.5000  plane waves:    6350
 k-point 102 :   0.1429 0.0000 0.5000  plane waves:    6354
 k-point 103 :   0.2857 0.0000 0.5000  plane waves:    6347
 k-point 104 :   0.4286 0.0000 0.5000  plane waves:    6321
 k-point 105 :   0.1429 0.1429 0.5000  plane waves:    6342
 k-point 106 :   0.2857 0.1429 0.5000  plane waves:    6339
 k-point 107 :   0.4286 0.1429 0.5000  plane waves:    6324
 k-point 108 :  -0.4286 0.1429 0.5000  plane waves:    6331
 k-point 109 :  -0.2857 0.1429 0.5000  plane waves:    6341
 k-point 110 :  -0.1429 0.1429 0.5000  plane waves:    6376
 k-point 111 :   0.2857 0.2857 0.5000  plane waves:    6333
 k-point 112 :   0.4286 0.2857 0.5000  plane waves:    6329
 k-point 113 :  -0.4286 0.2857 0.5000  plane waves:    6335
 k-point 114 :  -0.2857 0.2857 0.5000  plane waves:    6362
 k-point 115 :   0.4286 0.4286 0.5000  plane waves:    6322
 k-point 116 :  -0.4286 0.4286 0.5000  plane waves:    6316

 maximum and minimum number of plane-waves per node :      3206     3140

 maximum number of plane-waves:      6397
 maximum index in each direction: 
   IXMAX=   13   IYMAX=   13   IZMAX=   12
   IXMIN=  -13   IYMIN=  -13   IZMIN=  -13


 parallel 3D FFT for wavefunctions:
    minimum data exchange during FFTs selected (reduces bandwidth)
 parallel 3D FFT for charge:
    minimum data exchange during FFTs selected (reduces bandwidth)


 total amount of memory used by VASP MPI-rank0   367092. kBytes
=======================================================================

   base      :      30000. kBytes
   nonl-proj :     160769. kBytes
   fftplans  :      17766. kBytes
   grid      :      13358. kBytes
   one-center:         77. kBytes
   wavefun   :     145122. kBytes
 
     INWAV:  cpu time    0.0001: real time    0.0001
 Broyden mixing: mesh for mixing (old mesh)
   NGX = 25   NGY = 25   NGZ = 25
  (NGX  =108   NGY  =108   NGZ  =108)
  gives a total of  15625 points

 initial charge density was supplied:
 charge density of overlapping atoms calculated
 number of electron      76.0000000 magnetization 
 keeping initial charge density in first step


--------------------------------------------------------------------------------------------------------


 Maximum index for augmentation-charges        23444 (set IRDMAX)


--------------------------------------------------------------------------------------------------------


 First call to EWALD:  gamma=   0.308
 Maximum number of real-space cells 3x 3x 3
 Maximum number of reciprocal cells 3x 3x 3

    FEWALD:  cpu time    0.0616: real time    0.0620


--------------------------------------- Iteration      1(   1)  ---------------------------------------


    POTLOK:  cpu time    0.2247: real time    0.2262
    SETDIJ:  cpu time    0.6584: real time    0.6618
    TRIAL :  cpu time   23.7781: real time   23.9638
    CORREC:  cpu time    0.0017: real time    0.0018
    --------------------------------------------
      LOOP:  cpu time   24.7091: real time   24.9028

 eigenvalue-minimisations  : 12528
 total energy-change (2. order) : 0.6160011E+03  (-0.4881375E+04)
 number of electron      76.0000000 magnetization 
 augmentation part       76.0000000 magnetization 

 Free energy of the ion-electron system (eV)
  ---------------------------------------------------
  alpha Z        PSCENC =       254.25155990
  Ewald energy   TEWEN  =     -5154.80068305
  -Hartree energ DENC   =     -2440.32189268
  -exchange      EXHF   =         0.00000000
  -V(xc)+E(xc)   XCENC  =       322.57057271
  PAW double counting   =      6278.15209018    -6244.81064237
  entropy T*S    EENTRO =        -0.00054588
  eigenvalues    EBANDS =      -338.98100299
  atomic energy  EATOM  =      7939.94160518
  ---------------------------------------------------
  free energy    TOTEN  =       616.00106101 eV

  energy without entropy =      616.00160689  energy(sigma->0) =      616.00133395


--------------------------------------------------------------------------------------------------------




--------------------------------------- Iteration      1(   2)  ---------------------------------------


    TRIAL :  cpu time   23.5083: real time   24.1327
    CORREC:  cpu time    0.0017: real time    0.0017
    --------------------------------------------
      LOOP:  cpu time   23.5126: real time   24.1373

 eigenvalue-minimisations  : 12708
 total energy-change (2. order) :-0.7561357E+03  (-0.7346879E+03)
 number of electron      76.0000000 magnetization 
 augmentation part       76.0000000 magnetization 

 Free energy of the ion-electron system (eV)
  ---------------------------------------------------
  alpha Z        PSCENC =       254.25155990
  Ewald energy   TEWEN  =     -5154.80068305
  -Hartree energ DENC   =     -2440.32189268
  -exchange      EXHF   =         0.00000000
  -V(xc)+E(xc)   XCENC  =       322.57057271
  PAW double counting   =      6278.15209018    -6244.81064237
  entropy T*S    EENTRO =        -0.00142844
  eigenvalues    EBANDS =     -1095.11586105
  atomic energy  EATOM  =      7939.94160518
  ---------------------------------------------------
  free energy    TOTEN  =      -140.13467961 eV

  energy without entropy =     -140.13325117  energy(sigma->0) =     -140.13396539


--------------------------------------------------------------------------------------------------------




--------------------------------------- Iteration      1(   3)  ---------------------------------------


    TRIAL :  cpu time   27.0790: real time   27.6748
    CORREC:  cpu time    0.0016: real time    0.0016
    --------------------------------------------
      LOOP:  cpu time   27.0831: real time   27.6793

 eigenvalue-minimisations  : 15324
 total energy-change (2. order) :-0.3320173E+02  (-0.3249498E+02)
 number of electron      76.0000000 magnetization 
 augmentation part       76.0000000 magnetization 

 Free energy of the ion-electron system (eV)
  ---------------------------------------------------
  alpha Z        PSCENC =       254.25155990
  Ewald energy   TEWEN  =     -5154.80068305
  -Hartree energ DENC   =     -2440.32189268
  -exchange      EXHF   =         0.00000000
  -V(xc)+E(xc)   XCENC  =       322.57057271
  PAW double counting   =      6278.15209018    -6244.81064237
  entropy T*S    EENTRO =        -0.00105891
  eigenvalues    EBANDS =     -1128.31796540
  atomic energy  EATOM  =      7939.94160518
  ---------------------------------------------------
  free energy    TOTEN  =      -173.33641444 eV

  energy without entropy =     -173.33535553  energy(sigma->0) =     -173.33588498


--------------------------------------------------------------------------------------------------------




--------------------------------------- Iteration      1(   4)  ---------------------------------------


    TRIAL :  cpu time   25.2145: real time   25.7570
    CORREC:  cpu time    0.0016: real time    0.0016
    --------------------------------------------
      LOOP:  cpu time   25.2180: real time   25.7617

 eigenvalue-minimisations  : 13872
 total energy-change (2. order) :-0.7225836E+00  (-0.7171143E+00)
 number of electron      76.0000000 magnetization 
 augmentation part       76.0000000 magnetization 

 Free energy of the ion-electron system (eV)
  ---------------------------------------------------
  alpha Z        PSCENC =       254.25155990
  Ewald energy   TEWEN  =     -5154.80068305
  -Hartree energ DENC   =     -2440.32189268
  -exchange      EXHF   =         0.00000000
  -V(xc)+E(xc)   XCENC  =       322.57057271
  PAW double counting   =      6278.15209018    -6244.81064237
  entropy T*S    EENTRO =        -0.00081640
  eigenvalues    EBANDS =     -1129.04079149
  atomic energy  EATOM  =      7939.94160518
  ---------------------------------------------------
  free energy    TOTEN  =      -174.05899801 eV

  energy without entropy =     -174.05818161  energy(sigma->0) =     -174.05858981


--------------------------------------------------------------------------------------------------------




--------------------------------------- Iteration      1(   5)  ---------------------------------------


    TRIAL :  cpu time   26.8371: real time   27.4795
    CORREC:  cpu time    0.0015: real time    0.0015
    CHARGE:  cpu time    1.8435: real time    1.8575
    --------------------------------------------
      LOOP:  cpu time   28.6844: real time   29.3414

 eigenvalue-minimisations  : 15816
 total energy-change (2. order) :-0.2321014E-01  (-0.2318488E-01)
 number of electron      76.0000001 magnetization 
 augmentation part        7.6553680 magnetization 

 Free energy of the ion-electron system (eV)
  ---------------------------------------------------
  alpha Z        PSCENC =       254.25155990
  Ewald energy   TEWEN  =     -5154.80068305
  -Hartree energ DENC   =     -2440.32189268
  -exchange      EXHF   =         0.00000000
  -V(xc)+E(xc)   XCENC  =       322.57057271
  PAW double counting   =      6278.15209018    -6244.81064237
  entropy T*S    EENTRO =        -0.00082042
  eigenvalues    EBANDS =     -1129.06399760
  atomic energy  EATOM  =      7939.94160518
  ---------------------------------------------------
  free energy    TOTEN  =      -174.08220815 eV

  energy without entropy =     -174.08138773  energy(sigma->0) =     -174.08179794


--------------------------------------------------------------------------------------------------------




--------------------------------------- Iteration      1(   6)  ---------------------------------------


    POTLOK:  cpu time    0.1666: real time    0.1678
    SETDIJ:  cpu time    0.5960: real time    0.5997
    TRIAL :  cpu time   21.6584: real time   25.4810
    CORREC:  cpu time    6.8477: real time    6.8975
    CHARGE:  cpu time    1.8286: real time    1.8388
    --------------------------------------------
      LOOP:  cpu time   31.1066: real time   34.9946

 eigenvalue-minimisations  :     0
 total energy-change (2. order) : 0.6561397E+02  (-0.2267748E+02)
 number of electron      76.0000000 magnetization 
 augmentation part        9.1580671 magnetization 

 Free energy of the ion-electron system (eV)
  ---------------------------------------------------
  alpha Z        PSCENC =       254.25155990
  Ewald energy   TEWEN  =     -5154.80068305
  -Hartree energ DENC   =     -2162.18628008
  -exchange      EXHF   =         0.00000000
  -V(xc)+E(xc)   XCENC  =       319.76898184
  PAW double counting   =      8382.45912026    -8380.02683088
  entropy T*S    EENTRO =        -0.00141475
  eigenvalues    EBANDS =     -1307.87489451
  atomic energy  EATOM  =      7939.94160518
  ---------------------------------------------------
  free energy    TOTEN  =      -108.46824176 eV

  energy without entropy =     -108.46682702  energy(sigma->0) =     -108.46753439


--------------------------------------------------------------------------------------------------------




--------------------------------------- Iteration      1(   7)  ---------------------------------------


    POTLOK:  cpu time    0.1471: real time    0.1478
    SETDIJ:  cpu time    0.6259: real time    0.6292
    TRIAL :  cpu time   20.7776: real time   20.9454
    CORREC:  cpu time    8.1755: real time    8.3683
    CHARGE:  cpu time    2.1890: real time    2.2021
    --------------------------------------------
      LOOP:  cpu time   31.9273: real time   32.3064

 eigenvalue-minimisations  :     0
 total energy-change (2. order) :-0.2517568E+02  (-0.4005707E+01)
 number of electron      76.0000000 magnetization 
 augmentation part        9.2369786 magnetization 

 Free energy of the ion-electron system (eV)
  ---------------------------------------------------
  alpha Z        PSCENC =       254.25155990
  Ewald energy   TEWEN  =     -5154.80068305
  -Hartree energ DENC   =     -2323.77005626
  -exchange      EXHF   =         0.00000000
  -V(xc)+E(xc)   XCENC  =       326.93748349
  PAW double counting   =      8171.46626359    -8158.16519990
  entropy T*S    EENTRO =        -0.00217352
  eigenvalues    EBANDS =     -1189.50348373
  atomic energy  EATOM  =      7939.94160518
  ---------------------------------------------------
  free energy    TOTEN  =      -133.64392552 eV

  energy without entropy =     -133.64175200  energy(sigma->0) =     -133.64283876


--------------------------------------------------------------------------------------------------------




--------------------------------------- Iteration      1(   8)  ---------------------------------------


    POTLOK:  cpu time    0.1495: real time    0.1503
    SETDIJ:  cpu time    0.6242: real time    0.6275
    TRIAL :  cpu time   20.8515: real time   21.1175
    CORREC:  cpu time    8.0998: real time    8.1872
    CHARGE:  cpu time    2.2311: real time    2.2443
    --------------------------------------------
      LOOP:  cpu time   31.9592: real time   32.3306

 eigenvalue-minimisations  :     0
 total energy-change (2. order) :-0.4003712E+01  (-0.1229281E+01)
 number of electron      76.0000000 magnetization 
 augmentation part        9.1934577 magnetization 

 Free energy of the ion-electron system (eV)
  ---------------------------------------------------
  alpha Z        PSCENC =       254.25155990
  Ewald energy   TEWEN  =     -5154.80068305
  -Hartree energ DENC   =     -2365.11899403
  -exchange      EXHF   =         0.00000000
  -V(xc)+E(xc)   XCENC  =       328.52108680
  PAW double counting   =      8031.05065422    -8014.10481387
  entropy T*S    EENTRO =        -0.00176865
  eigenvalues    EBANDS =     -1157.38587897
  atomic energy  EATOM  =      7939.94160518
  ---------------------------------------------------
  free energy    TOTEN  =      -137.64763734 eV

  energy without entropy =     -137.64586869  energy(sigma->0) =     -137.64675302


--------------------------------------------------------------------------------------------------------




--------------------------------------- Iteration      1(   9)  ---------------------------------------


    POTLOK:  cpu time    0.1526: real time    0.1536
    SETDIJ:  cpu time    0.6251: real time    0.6283
    TRIAL :  cpu time   21.4072: real time   21.7168
    CORREC:  cpu time    7.4453: real time    7.6352
    CHARGE:  cpu time    2.3754: real time    2.3894
    --------------------------------------------
      LOOP:  cpu time   32.0104: real time   32.5287

 eigenvalue-minimisations  :     0
 total energy-change (2. order) :-0.1224215E+01  (-0.4844776E+00)
 number of electron      76.0000000 magnetization 
 augmentation part        9.1709704 magnetization 

 Free energy of the ion-electron system (eV)
  ---------------------------------------------------
  alpha Z        PSCENC =       254.25155990
  Ewald energy   TEWEN  =     -5154.80068305
  -Hartree energ DENC   =     -2372.32049107
  -exchange      EXHF   =         0.00000000
  -V(xc)+E(xc)   XCENC  =       328.71338384
  PAW double counting   =      7932.85107062    -7914.21117545
  entropy T*S    EENTRO =        -0.00189199
  eigenvalues    EBANDS =     -1153.29535358
  atomic energy  EATOM  =      7939.94160518
  ---------------------------------------------------
  free energy    TOTEN  =      -138.87185225 eV

  energy without entropy =     -138.86996026  energy(sigma->0) =     -138.87090625


--------------------------------------------------------------------------------------------------------




--------------------------------------- Iteration      1(  10)  ---------------------------------------


    POTLOK:  cpu time    0.2091: real time    0.2101
    SETDIJ:  cpu time    0.5564: real time    0.5593
    TRIAL :  cpu time   20.9207: real time   21.2408
    CORREC:  cpu time    7.8636: real time    7.9623
    CHARGE:  cpu time    2.1884: real time    2.2001
    --------------------------------------------
      LOOP:  cpu time   31.7400: real time   32.1748

 eigenvalue-minimisations  :     0
 total energy-change (2. order) :-0.4845717E+00  (-0.2076792E+00)
 number of electron      76.0000000 magnetization 
 augmentation part        9.1568501 magnetization 

 Free energy of the ion-electron system (eV)
  ---------------------------------------------------
  alpha Z        PSCENC =       254.25155990
  Ewald energy   TEWEN  =     -5154.80068305
  -Hartree energ DENC   =     -2372.42745071
  -exchange      EXHF   =         0.00000000
  -V(xc)+E(xc)   XCENC  =       328.76271015
  PAW double counting   =      7899.37038829    -7879.57826500
  entropy T*S    EENTRO =        -0.00201428
  eigenvalues    EBANDS =     -1154.87439671
  atomic energy  EATOM  =      7939.94160518
  ---------------------------------------------------
  free energy    TOTEN  =      -139.35642393 eV

  energy without entropy =     -139.35440965  energy(sigma->0) =     -139.35541679


--------------------------------------------------------------------------------------------------------




--------------------------------------- Iteration      1(  11)  ---------------------------------------


    POTLOK:  cpu time    0.1496: real time    0.1504
    SETDIJ:  cpu time    0.6272: real time    0.6304
    TRIAL :  cpu time   22.4705: real time   22.7600
    CORREC:  cpu time    7.1422: real time    7.1926
    CHARGE:  cpu time    1.8956: real time    1.9072
    --------------------------------------------
      LOOP:  cpu time   32.2866: real time   32.6424

 eigenvalue-minimisations  :     0
 total energy-change (2. order) :-0.2075389E+00  (-0.8984238E-01)
 number of electron      76.0000000 magnetization 
 augmentation part        9.1608268 magnetization 

 Free energy of the ion-electron system (eV)
  ---------------------------------------------------
  alpha Z        PSCENC =       254.25155990
  Ewald energy   TEWEN  =     -5154.80068305
[...]
     16     -30.7074      2.00000
     17      -3.7449      2.00000
     18      -3.4650      2.00000
     19      -1.9630      2.00000
     20      -1.7425      2.00000
     21      -1.6465      2.00000
     22      -1.2752      2.00000
     23       1.0896      2.00000
     24       1.5273      2.00000
     25       1.5778      2.00000
     26       1.6889      2.00000
     27       1.9143      2.00000
     28       2.0029      2.00000
     29       2.2440      2.00000
     30       2.6603      2.00000
     31       2.7670      2.00000
     32       2.8616      2.00000
     33       2.9437      2.00000
     34       3.5408      2.00000
     35       3.5612      2.00000
     36       3.8589      2.00000
     37       4.3374      2.00000
     38       4.6574      2.00000
     39       4.7439      1.92147
     40       5.0697      0.00000
     41       5.1191      0.00000
     42       5.2713      0.00000
     43       6.9026      0.00000
     44       6.9310      0.00000
     45       7.4326      0.00000
     46       7.5185      0.00000
     47       7.5330      0.00000
     48       7.6398      0.00000

 k-point   108 :      -0.4286    0.1429    0.5000
  band No.  band energies     occupation 
      1     -58.3141      2.00000
      2     -58.3141      2.00000
      3     -57.3978      2.00000
      4     -57.3968      2.00000
      5     -31.7600      2.00000
      6     -31.7569      2.00000
      7     -31.5772      2.00000
      8     -31.5747      2.00000
      9     -31.5699      2.00000
     10     -31.5673      2.00000
     11     -31.2222      2.00000
     12     -31.2058      2.00000
     13     -30.7177      2.00000
     14     -30.7158      2.00000
     15     -30.7092      2.00000
     16     -30.7074      2.00000
     17      -3.7407      2.00000
     18      -3.4074      2.00000
     19      -1.9543      2.00000
     20      -1.7105      2.00000
     21      -1.7092      2.00000
     22      -1.3306      2.00000
     23       1.0925      2.00000
     24       1.2383      2.00000
     25       1.5891      2.00000
     26       1.6918      2.00000
     27       1.9891      2.00000
     28       2.1105      2.00000
     29       2.2370      2.00000
     30       2.6460      2.00000
     31       2.6897      2.00000
     32       2.8065      2.00000
     33       2.8157      2.00000
     34       3.5968      2.00000
     35       3.8774      2.00000
     36       4.0390      2.00000
     37       4.3121      2.00000
     38       4.4787      2.00000
     39       5.0014      0.00000
     40       5.0774      0.00000
     41       5.2962      0.00000
     42       5.4207      0.00000
     43       6.7533      0.00000
     44       7.0069      0.00000
     45       7.1047      0.00000
     46       7.1435      0.00000
     47       7.3108      0.00000
     48       7.3347      0.00000

 k-point   109 :      -0.2857    0.1429    0.5000
  band No.  band energies     occupation 
      1     -58.3141      2.00000
      2     -58.3141      2.00000
      3     -57.3980      2.00000
      4     -57.3967      2.00000
      5     -31.7605      2.00000
      6     -31.7564      2.00000
      7     -31.5738      2.00000
      8     -31.5716      2.00000
      9     -31.5696      2.00000
     10     -31.5674      2.00000
     11     -31.2258      2.00000
     12     -31.2022      2.00000
     13     -30.7175      2.00000
     14     -30.7162      2.00000
     15     -30.7127      2.00000
     16     -30.7114      2.00000
     17      -3.9129      2.00000
     18      -2.9714      2.00000
     19      -1.9686      2.00000
     20      -1.9347      2.00000
     21      -1.6462      2.00000
     22      -1.3091      2.00000
     23       0.9496      2.00000
     24       1.2579      2.00000
     25       1.3370      2.00000
     26       1.5835      2.00000
     27       2.2191      2.00000
     28       2.3532      2.00000
     29       2.3671      2.00000
     30       2.5002      2.00000
     31       2.7345      2.00000
     32       2.7650      2.00000
     33       2.8478      2.00000
     34       3.3929      2.00000
     35       3.5901      2.00000
     36       3.8499      2.00000
     37       4.1999      2.00000
     38       4.5303      2.00000
     39       4.8033      0.01452
     40       5.1957      0.00000
     41       5.3161      0.00000
     42       6.0739      0.00000
     43       6.4465      0.00000
     44       6.8116      0.00000
     45       7.1258      0.00000
     46       7.4226      0.00000
     47       7.6058      0.00000
     48       7.6598      0.00000

 k-point   110 :      -0.1429    0.1429    0.5000
  band No.  band energies     occupation 
      1     -58.3141      2.00000
      2     -58.3140      2.00000
      3     -57.3981      2.00000
      4     -57.3967      2.00000
      5     -31.7606      2.00000
      6     -31.7562      2.00000
      7     -31.5696      2.00000
      8     -31.5688      2.00000
      9     -31.5683      2.00000
     10     -31.5673      2.00000
     11     -31.2272      2.00000
     12     -31.2010      2.00000
     13     -30.7178      2.00000
     14     -30.7172      2.00000
     15     -30.7166      2.00000
     16     -30.7161      2.00000
     17      -4.0071      2.00000
     18      -2.5473      2.00000
     19      -2.1338      2.00000
     20      -1.9417      2.00000
     21      -1.6281      2.00000
     22      -1.3221      2.00000
     23       0.8462      2.00000
     24       1.0285      2.00000
     25       1.5265      2.00000
     26       1.6404      2.00000
     27       2.0176      2.00000
     28       2.3803      2.00000
     29       2.5760      2.00000
     30       2.7120      2.00000
     31       2.7490      2.00000
     32       2.8304      2.00000
     33       2.8794      2.00000
     34       2.9501      2.00000
     35       3.4775      2.00000
     36       3.6657      2.00000
     37       3.9297      2.00000
     38       4.4119      2.00000
     39       4.6360      2.00000
     40       5.0262      0.00000
     41       5.4330      0.00000
     42       6.2835      0.00000
     43       6.5793      0.00000
     44       6.7816      0.00000
     45       7.2195      0.00000
     46       7.7724      0.00000
     47       7.9126      0.00000
     48       8.1550      0.00000

 k-point   111 :       0.2857    0.2857    0.5000
  band No.  band energies     occupation 
      1     -58.3142      2.00000
      2     -58.3141      2.00000
      3     -57.3975      2.00000
      4     -57.3971      2.00000
      5     -31.7593      2.00000
      6     -31.7577      2.00000
      7     -31.5747      2.00000
      8     -31.5742      2.00000
      9     -31.5711      2.00000
     10     -31.5708      2.00000
     11     -31.2170      2.00000
     12     -31.2110      2.00000
     13     -30.7137      2.00000
     14     -30.7132      2.00000
     15     -30.7109      2.00000
     16     -30.7103      2.00000
     17      -3.8674      2.00000
     18      -3.3113      2.00000
     19      -2.0492      2.00000
     20      -1.8207      2.00000
     21      -1.5725      2.00000
     22      -1.0964      2.00000
     23       1.0774      2.00000
     24       1.0965      2.00000
     25       1.5979      2.00000
     26       1.6351      2.00000
     27       1.8082      2.00000
     28       2.0744      2.00000
     29       2.4384      2.00000
     30       2.5113      2.00000
     31       2.6730      2.00000
     32       2.9491      2.00000
     33       3.0065      2.00000
     34       3.5949      2.00000
     35       3.7965      2.00000
     36       3.9844      2.00000
     37       4.3217      2.00000
     38       4.6965      2.00000
     39       4.8460      0.00000
     40       4.9728      0.00000
     41       5.1906      0.00000
     42       5.1968      0.00000
     43       7.0452      0.00000
     44       7.2149      0.00000
     45       7.3639      0.00000
     46       7.4254      0.00000
     47       7.5403      0.00000
     48       7.7743      0.00000

 k-point   112 :       0.4286    0.2857    0.5000
  band No.  band energies     occupation 
      1     -58.3142      2.00000
      2     -58.3141      2.00000
      3     -57.3978      2.00000
      4     -57.3968      2.00000
      5     -31.7602      2.00000
      6     -31.7568      2.00000
      7     -31.5782      2.00000
      8     -31.5750      2.00000
      9     -31.5738      2.00000
     10     -31.5705      2.00000
     11     -31.2222      2.00000
     12     -31.2057      2.00000
     13     -30.7137      2.00000
     14     -30.7103      2.00000
     15     -30.7100      2.00000
     16     -30.7065      2.00000
     17      -3.6788      2.00000
     18      -3.5411      2.00000
     19      -2.0597      2.00000
     20      -1.9046      2.00000
     21      -1.4078      2.00000
     22      -1.1153      2.00000
     23       0.7524      2.00000
     24       1.0020      2.00000
     25       1.3032      2.00000
     26       1.8946      2.00000
     27       1.9731      2.00000
     28       2.0334      2.00000
     29       2.2392      2.00000
     30       2.2996      2.00000
     31       2.5396      2.00000
     32       2.9276      2.00000
     33       3.3992      2.00000
     34       3.8943      2.00000
     35       4.1255      2.00000
     36       4.5006      2.00000
     37       4.5930      2.00000
     38       4.7023      2.00000
     39       5.0352      0.00000
     40       5.0698      0.00000
     41       5.3527      0.00000
     42       5.4326      0.00000
     43       6.6816      0.00000
     44       6.7327      0.00000
     45       6.8462      0.00000
     46       6.9012      0.00000
     47       7.2289      0.00000
     48       7.3319      0.00000

 k-point   113 :      -0.4286    0.2857    0.5000
  band No.  band energies     occupation 
      1     -58.3142      2.00000
      2     -58.3141      2.00000
      3     -57.3980      2.00000
      4     -57.3966      2.00000
      5     -31.7608      2.00000
      6     -31.7562      2.00000
      7     -31.5783      2.00000
      8     -31.5750      2.00000
      9     -31.5737      2.00000
     10     -31.5705      2.00000
     11     -31.2258      2.00000
     12     -31.2021      2.00000
     13     -30.7137      2.00000
     14     -30.7103      2.00000
     15     -30.7099      2.00000
     16     -30.7066      2.00000
     17      -3.7216      2.00000
     18      -3.4095      2.00000
     19      -2.0958      2.00000
     20      -1.8846      2.00000
     21      -1.4545      2.00000
     22      -1.1590      2.00000
     23       0.7385      2.00000
     24       0.9794      2.00000
     25       1.0002      2.00000
     26       1.8543      2.00000
     27       2.1189      2.00000
     28       2.1444      2.00000
     29       2.2790      2.00000
     30       2.3318      2.00000
     31       2.5003      2.00000
     32       2.9321      2.00000
     33       3.3891      2.00000
     34       3.9202      2.00000
     35       3.9783      2.00000
     36       4.5673      2.00000
     37       4.6467      2.00000
     38       5.0077      0.00000
     39       5.0258      0.00000
     40       5.2794      0.00000
     41       5.4426      0.00000
     42       5.8731      0.00000
     43       6.4352      0.00000
     44       6.4436      0.00000
     45       6.4761      0.00000
     46       6.5627      0.00000
     47       7.1431      0.00000
     48       7.2856      0.00000

 k-point   114 :      -0.2857    0.2857    0.5000
  band No.  band energies     occupation 
      1     -58.3142      2.00000
      2     -58.3141      2.00000
      3     -57.3981      2.00000
      4     -57.3966      2.00000
      5     -31.7609      2.00000
      6     -31.7561      2.00000
      7     -31.5748      2.00000
      8     -31.5744      2.00000
      9     -31.5711      2.00000
     10     -31.5706      2.00000
     11     -31.2271      2.00000
     12     -31.2009      2.00000
     13     -30.7136      2.00000
     14     -30.7130      2.00000
     15     -30.7110      2.00000
     16     -30.7105      2.00000
     17      -3.8389      2.00000
     18      -3.1347      2.00000
     19      -2.0793      2.00000
     20      -1.7956      2.00000
     21      -1.7105      2.00000
     22      -1.1978      2.00000
     23       0.8577      2.00000
     24       1.0518      2.00000
     25       1.0869      2.00000
     26       1.5467      2.00000
     27       2.2397      2.00000
     28       2.3506      2.00000
     29       2.4578      2.00000
     30       2.4955      2.00000
     31       2.5078      2.00000
     32       2.9437      2.00000
     33       2.9547      2.00000
     34       3.8136      2.00000
     35       3.8510      2.00000
     36       4.0317      2.00000
     37       4.3168      2.00000
     38       4.8676      0.00000
     39       4.9791      0.00000
     40       5.3281      0.00000
     41       5.4190      0.00000
     42       6.3044      0.00000
     43       6.4039      0.00000
     44       6.4634      0.00000
     45       6.6465      0.00000
     46       6.8787      0.00000
     47       7.1793      0.00000
     48       7.7365      0.00000

 k-point   115 :       0.4286    0.4286    0.5000
  band No.  band energies     occupation 
      1     -58.3142      2.00000
      2     -58.3142      2.00000
      3     -57.3980      2.00000
      4     -57.3966      2.00000
      5     -31.7610      2.00000
      6     -31.7562      2.00000
      7     -31.5789      2.00000
      8     -31.5788      2.00000
      9     -31.5733      2.00000
     10     -31.5733      2.00000
     11     -31.2257      2.00000
     12     -31.2020      2.00000
     13     -30.7103      2.00000
     14     -30.7103      2.00000
     15     -30.7062      2.00000
     16     -30.7060      2.00000
     17      -3.6288      2.00000
     18      -3.5673      2.00000
     19      -2.1484      2.00000
     20      -1.9892      2.00000
     21      -1.1456      2.00000
     22      -1.0435      2.00000
     23       0.4241      2.00000
     24       0.6706      2.00000
     25       0.9858      2.00000
     26       2.0262      2.00000
     27       2.0777      2.00000
     28       2.1716      2.00000
     29       2.1837      2.00000
     30       2.2019      2.00000
     31       2.3568      2.00000
     32       2.9694      2.00000
     33       3.9444      2.00000
     34       4.0474      2.00000
     35       4.0799      2.00000
     36       4.8971      0.00000
     37       5.0511      0.00000
     38       5.2299      0.00000
     39       5.3318      0.00000
     40       5.3748      0.00000
     41       5.4736      0.00000
     42       5.7285      0.00000
     43       6.0324      0.00000
     44       6.1371      0.00000
     45       6.3179      0.00000
     46       6.3220      0.00000
     47       7.4310      0.00000
     48       7.6577      0.00000

 k-point   116 :      -0.4286    0.4286    0.5000
  band No.  band energies     occupation 
      1     -58.3142      2.00000
      2     -58.3142      2.00000
      3     -57.3981      2.00000
      4     -57.3965      2.00000
      5     -31.7612      2.00000
      6     -31.7560      2.00000
      7     -31.5789      2.00000
      8     -31.5789      2.00000
      9     -31.5733      2.00000
     10     -31.5732      2.00000
     11     -31.2270      2.00000
     12     -31.2007      2.00000
     13     -30.7104      2.00000
     14     -30.7102      2.00000
     15     -30.7061      2.00000
     16     -30.7061      2.00000
     17      -3.6912      2.00000
     18      -3.4604      2.00000
     19      -2.1740      2.00000
     20      -1.9822      2.00000
     21      -1.1623      2.00000
     22      -1.0600      2.00000
     23       0.4160      2.00000
     24       0.6690      2.00000
     25       0.8627      2.00000
     26       2.0358      2.00000
     27       2.0442      2.00000
     28       2.1417      2.00000
     29       2.2905      2.00000
     30       2.2955      2.00000
     31       2.3371      2.00000
     32       2.9734      2.00000
     33       3.9517      2.00000
     34       4.0019      2.00000
     35       4.0889      2.00000
     36       4.8843      0.00000
     37       5.0402      0.00000
     38       5.3182      0.00000
     39       5.3997      0.00000
     40       5.4550      0.00000
     41       5.5243      0.00000
     42       5.8871      0.00000
     43       6.0853      0.00000
     44       6.1226      0.00000
     45       6.1307      0.00000
     46       6.1538      0.00000
     47       7.4496      0.00000
     48       7.6777      0.00000


--------------------------------------------------------------------------------------------------------


 soft charge-density along one line, spin component           1
         0         1         2         3         4         5         6         7         8         9
 total charge-density along one line
 
 pseudopotential strength for first ion, spin component:           1
  6.194   9.407   0.000   0.000  -0.000   0.000   0.000  -0.000
  9.407  14.280   0.000   0.000  -0.000   0.000   0.000  -0.000
  0.000   0.000  -2.107   0.004  -0.003  -3.549   0.004  -0.004
  0.000   0.000   0.004  -2.108   0.003   0.004  -3.550   0.003
 -0.000  -0.000  -0.003   0.003  -2.105  -0.004   0.003  -3.546
  0.000   0.000  -3.549   0.004  -0.004  -5.769   0.004  -0.004
  0.000   0.000   0.004  -3.550   0.003   0.004  -5.771   0.003
 -0.000  -0.000  -0.004   0.003  -3.546  -0.004   0.003  -5.765
 total augmentation occupancy for first ion, spin component:           1
  2.914  -0.566  -0.000   0.000   0.000  -0.000   0.000   0.000
 -0.566   0.117  -0.000  -0.000   0.000  -0.000  -0.000  -0.000
  0.000   0.000   1.749   0.513  -0.292  -0.403  -0.114   0.065
  0.000  -0.000   0.513   1.621   0.352  -0.114  -0.374  -0.079
  0.000  -0.000  -0.292   0.352   1.974   0.065  -0.079  -0.453
 -0.000  -0.000  -0.403  -0.114   0.065   0.095   0.026  -0.015
 -0.000  -0.000  -0.114  -0.374  -0.079   0.026   0.088   0.018
  0.000  -0.000   0.065  -0.079  -0.453  -0.015   0.018   0.107


------------------------ aborting loop because EDIFF is reached ----------------------------------------




--------------------------------------------------------------------------------------------------------



  FREE ENERGIE OF THE ION-ELECTRON SYSTEM (eV)
  ---------------------------------------------------
  free  energy   TOTEN  =      -139.76904371 eV

  energy  without entropy=     -139.76744425  energy(sigma->0) =     -139.76824398
 


--------------------------------------------------------------------------------------------------------


    POTLOK:  cpu time    0.9828: real time    0.9895


--------------------------------------------------------------------------------------------------------


 writing wavefunctions
     LOOP+:  cpu time 1439.5973: real time 1460.2377
    4ORBIT:  cpu time    0.0000: real time    0.0000

 total amount of memory used by VASP MPI-rank0   367092. kBytes
=======================================================================

   base      :      30000. kBytes
   nonl-proj :     160769. kBytes
   fftplans  :      17766. kBytes
   grid      :      13358. kBytes
   one-center:         77. kBytes
   wavefun   :     145122. kBytes
 
  
  
 General timing and accounting informations for this job:
 ========================================================
  
                  Total CPU time used (sec):     1447.669
                            User time (sec):     1405.711
                          System time (sec):       41.958
                         Elapsed time (sec):     1475.065
  
                   Maximum memory used (kb):      559428.
                   Average memory used (kb):          N/A
  
                          Minor page faults:      6289602
                          Major page faults:           28
                 Voluntary context switches:        12909
