<?xml version="1.0" encoding="ISO-8859-1"?>
<modeling>
 <generator>
  <i name="program" type="string">vasp </i>
  <i name="version" type="string">6.2.0  </i>
  <i name="subversion" type="string">18Jan21 (build Jan 05 2022 15:41:44) complex                          parallel </i>
  <i name="platform" type="string">LinuxIFC </i>
  <i name="date" type="string">2025 05 07 </i>
  <i name="time" type="string">20:48:59 </i>
 </generator>
 <incar>
  <i type="string" name="SYSTEM">routine with relax: pwdword</i>
  <i type="string" name="PREC">Acc</i>
  <i type="int" name="IALGO">    38</i>
  <i type="string" name="ALGO">A</i>
  <i type="logical" name="ADDGRID"> T  </i>
  <i type="int" name="ICHARG">     2</i>
  <i type="int" name="NELM">   100</i>
  <i type="int" name="NELMIN">     6</i>
  <i name="EDIFF">      0.00000000</i>
  <i type="int" name="NSW">     0</i>
  <i type="int" name="ISIF">    -1</i>
  <i name="ENCUT">    600.00000000</i>
  <i type="logical" name="LREAL"> F  </i>
  <i type="int" name="ISMEAR">     0</i>
  <i name="SIGMA">      0.02000000</i>
  <i type="logical" name="LASPH"> T  </i>
  <i type="string" name="METAGGA">R2SCAN</i>
  <i type="logical" name="LMIXTAU"> F  </i>
 </incar>
 <primitive_cell>
  <structure name="primitive_cell" >
   <crystal>
    <varray name="basis" >
     <v>       4.87398783       0.00000000      -2.69813812 </v>
     <v>      -1.69331161       4.57038873      -2.69813812 </v>
     <v>       0.00000000       0.00000000       5.57097000 </v>
    </varray>
    <i name="volume">    124.09903408 </i>
    <varray name="rec_basis" >
     <v>       0.20517080       0.07601500       0.00000000 </v>
     <v>       0.00000000       0.21879977       0.00000000 </v>
     <v>       0.09936854       0.14278500       0.17950195 </v>
    </varray>
   </crystal>
   <varray name="positions" >
    <v>       0.50000000       0.00000000       0.50000000 </v>
    <v>       0.00000000       0.50000000       0.50000000 </v>
    <v>       0.25674000       0.24326000       0.50000000 </v>
    <v>       0.25000000       0.75000000       0.50000000 </v>
    <v>       0.74326000       0.75674000       0.50000000 </v>
    <v>       0.75000000       0.25000000       0.50000000 </v>
    <v>       0.24326000       0.74326000       0.98651000 </v>
    <v>       0.75674000       0.25674000       0.01349000 </v>
    <v>       0.25000000       0.25000000       0.00000000 </v>
    <v>       0.75000000       0.75000000       0.00000000 </v>
   </varray>
  </structure>
  <varray name="primitive_index" >
   <v type="int" >        1 </v>
   <v type="int" >        2 </v>
   <v type="int" >        3 </v>
   <v type="int" >        4 </v>
   <v type="int" >        5 </v>
   <v type="int" >        6 </v>
   <v type="int" >        7 </v>
   <v type="int" >        8 </v>
   <v type="int" >        9 </v>
   <v type="int" >       10 </v>
  </varray>
 </primitive_cell>
 <kpoints>
  <generation param="Gamma">
   <v type="int" name="divisions">       8        8        9 </v>
   <v name="usershift">      0.00000000       0.00000000       0.00000000 </v>
   <v name="genvec1">      0.12500000       0.00000000       0.00000000 </v>
   <v name="genvec2">      0.00000000       0.12500000       0.00000000 </v>
   <v name="genvec3">      0.00000000      -0.00000000       0.11111111 </v>
   <v name="shift">      0.00000000       0.00000000       0.00000000 </v>
  </generation>
  <varray name="kpointlist" >
   <v>       0.00000000       0.00000000       0.00000000 </v>
   <v>       0.12500000       0.00000000       0.00000000 </v>
   <v>       0.25000000       0.00000000       0.00000000 </v>
   <v>       0.37500000       0.00000000       0.00000000 </v>
   <v>       0.50000000       0.00000000       0.00000000 </v>
   <v>       0.12500000       0.12500000       0.00000000 </v>
   <v>       0.25000000       0.12500000       0.00000000 </v>
   <v>       0.37500000       0.12500000       0.00000000 </v>
   <v>       0.50000000       0.12500000       0.00000000 </v>
   <v>      -0.37500000       0.12500000       0.00000000 </v>
   <v>      -0.25000000       0.12500000       0.00000000 </v>
   <v>      -0.12500000       0.12500000       0.00000000 </v>
   <v>       0.25000000       0.25000000       0.00000000 </v>
   <v>       0.37500000       0.25000000       0.00000000 </v>
   <v>       0.50000000       0.25000000       0.00000000 </v>
   <v>      -0.37500000       0.25000000       0.00000000 </v>
   <v>      -0.25000000       0.25000000       0.00000000 </v>
   <v>       0.37500000       0.37500000       0.00000000 </v>
   <v>       0.50000000       0.37500000       0.00000000 </v>
   <v>      -0.37500000       0.37500000       0.00000000 </v>
   <v>       0.50000000       0.50000000       0.00000000 </v>
   <v>      -0.00000000       0.00000000       0.11111111 </v>
   <v>       0.12500000       0.00000000       0.11111111 </v>
   <v>       0.25000000      -0.00000000       0.11111111 </v>
   <v>       0.37500000      -0.00000000       0.11111111 </v>
   <v>       0.50000000      -0.00000000       0.11111111 </v>
   <v>      -0.37500000       0.00000000       0.11111111 </v>
   <v>      -0.25000000       0.00000000       0.11111111 </v>
   <v>      -0.12500000       0.00000000       0.11111111 </v>
   <v>       0.12500000       0.12500000       0.11111111 </v>
   <v>       0.25000000       0.12500000       0.11111111 </v>
   <v>       0.37500000       0.12500000       0.11111111 </v>
   <v>       0.50000000       0.12500000       0.11111111 </v>
   <v>      -0.37500000       0.12500000       0.11111111 </v>
   <v>      -0.25000000       0.12500000       0.11111111 </v>
   <v>      -0.12500000       0.12500000       0.11111111 </v>
   <v>       0.25000000       0.25000000       0.11111111 </v>
   <v>       0.37500000       0.25000000       0.11111111 </v>
   <v>       0.50000000       0.25000000       0.11111111 </v>
   <v>      -0.37500000       0.25000000       0.11111111 </v>
   <v>      -0.25000000       0.25000000       0.11111111 </v>
   <v>      -0.12500000       0.25000000       0.11111111 </v>
   <v>       0.37500000       0.37500000       0.11111111 </v>
   <v>       0.50000000       0.37500000       0.11111111 </v>
   <v>      -0.37500000       0.37500000       0.11111111 </v>
   <v>      -0.25000000       0.37500000       0.11111111 </v>
   <v>      -0.12500000       0.37500000       0.11111111 </v>
   <v>       0.50000000       0.50000000       0.11111111 </v>
   <v>      -0.37500000       0.50000000       0.11111111 </v>
   <v>      -0.25000000       0.50000000       0.11111111 </v>
   <v>      -0.12500000       0.50000000       0.11111111 </v>
   <v>      -0.37500000      -0.37500000       0.11111111 </v>
   <v>      -0.25000000      -0.37500000       0.11111111 </v>
   <v>      -0.12500000      -0.37500000       0.11111111 </v>
   <v>      -0.25000000      -0.25000000       0.11111111 </v>
   <v>      -0.12500000      -0.25000000       0.11111111 </v>
   <v>      -0.12500000      -0.12500000       0.11111111 </v>
   <v>      -0.00000000       0.00000000       0.22222222 </v>
   <v>       0.12500000       0.00000000       0.22222222 </v>
   <v>       0.25000000       0.00000000       0.22222222 </v>
   <v>       0.37500000       0.00000000       0.22222222 </v>
   <v>       0.50000000       0.00000000       0.22222222 </v>
   <v>      -0.37500000       0.00000000       0.22222222 </v>
   <v>      -0.25000000       0.00000000       0.22222222 </v>
   <v>      -0.12500000       0.00000000       0.22222222 </v>
   <v>       0.12500000       0.12500000       0.22222222 </v>
   <v>       0.25000000       0.12500000       0.22222222 </v>
   <v>       0.37500000       0.12500000       0.22222222 </v>
   <v>       0.50000000       0.12500000       0.22222222 </v>
   <v>      -0.37500000       0.12500000       0.22222222 </v>
   <v>      -0.25000000       0.12500000       0.22222222 </v>
   <v>      -0.12500000       0.12500000       0.22222222 </v>
   <v>       0.25000000       0.25000000       0.22222222 </v>
   <v>       0.37500000       0.25000000       0.22222222 </v>
   <v>       0.50000000       0.25000000       0.22222222 </v>
   <v>      -0.37500000       0.25000000       0.22222222 </v>
   <v>      -0.25000000       0.25000000       0.22222222 </v>
   <v>      -0.12500000       0.25000000       0.22222222 </v>
   <v>       0.37500000       0.37500000       0.22222222 </v>
   <v>       0.50000000       0.37500000       0.22222222 </v>
   <v>      -0.37500000       0.37500000       0.22222222 </v>
   <v>      -0.25000000       0.37500000       0.22222222 </v>
   <v>      -0.12500000       0.37500000       0.22222222 </v>
   <v>       0.50000000       0.50000000       0.22222222 </v>
   <v>      -0.37500000       0.50000000       0.22222222 </v>
   <v>      -0.25000000       0.50000000       0.22222222 </v>
   <v>      -0.12500000       0.50000000       0.22222222 </v>
   <v>      -0.37500000      -0.37500000       0.22222222 </v>
   <v>      -0.25000000      -0.37500000       0.22222222 </v>
   <v>      -0.12500000      -0.37500000       0.22222222 </v>
   <v>      -0.25000000      -0.25000000       0.22222222 </v>
   <v>      -0.12500000      -0.25000000       0.22222222 </v>
   <v>      -0.12500000      -0.12500000       0.22222222 </v>
   <v>      -0.00000000       0.00000000       0.33333333 </v>
   <v>       0.12500000       0.00000000       0.33333333 </v>
   <v>       0.25000000       0.00000000       0.33333333 </v>
   <v>       0.37500000      -0.00000000       0.33333333 </v>
   <v>       0.50000000       0.00000000       0.33333333 </v>
   <v>      -0.37500000       0.00000000       0.33333333 </v>
   <v>      -0.25000000       0.00000000       0.33333333 </v>
   <v>      -0.12500000       0.00000000       0.33333333 </v>
   <v>       0.12500000       0.12500000       0.33333333 </v>
   <v>       0.25000000       0.12500000       0.33333333 </v>
   <v>       0.37500000       0.12500000       0.33333333 </v>
   <v>       0.50000000       0.12500000       0.33333333 </v>
   <v>      -0.37500000       0.12500000       0.33333333 </v>
   <v>      -0.25000000       0.12500000       0.33333333 </v>
   <v>      -0.12500000       0.12500000       0.33333333 </v>
   <v>       0.25000000       0.25000000       0.33333333 </v>
   <v>       0.37500000       0.25000000       0.33333333 </v>
   <v>       0.50000000       0.25000000       0.33333333 </v>
   <v>      -0.37500000       0.25000000       0.33333333 </v>
   <v>      -0.25000000       0.25000000       0.33333333 </v>
   <v>      -0.12500000       0.25000000       0.33333333 </v>
   <v>       0.37500000       0.37500000       0.33333333 </v>
   <v>       0.50000000       0.37500000       0.33333333 </v>
   <v>      -0.37500000       0.37500000       0.33333333 </v>
   <v>      -0.25000000       0.37500000       0.33333333 </v>
   <v>      -0.12500000       0.37500000       0.33333333 </v>
   <v>       0.50000000       0.50000000       0.33333333 </v>
   <v>      -0.37500000       0.50000000       0.33333333 </v>
   <v>      -0.25000000       0.50000000       0.33333333 </v>
   <v>      -0.12500000       0.50000000       0.33333333 </v>
   <v>      -0.37500000      -0.37500000       0.33333333 </v>
   <v>      -0.25000000      -0.37500000       0.33333333 </v>
   <v>      -0.12500000      -0.37500000       0.33333333 </v>
   <v>      -0.25000000      -0.25000000       0.33333333 </v>
   <v>      -0.12500000      -0.25000000       0.33333333 </v>
   <v>      -0.12500000      -0.12500000       0.33333333 </v>
   <v>      -0.00000000       0.00000000       0.44444444 </v>
   <v>       0.12500000       0.00000000       0.44444444 </v>
   <v>       0.25000000       0.00000000       0.44444444 </v>
   <v>       0.37500000       0.00000000       0.44444444 </v>
   <v>       0.50000000       0.00000000       0.44444444 </v>
   <v>      -0.37500000       0.00000000       0.44444444 </v>
   <v>      -0.25000000       0.00000000       0.44444444 </v>
   <v>      -0.12500000       0.00000000       0.44444444 </v>
   <v>       0.12500000       0.12500000       0.44444444 </v>
   <v>       0.25000000       0.12500000       0.44444444 </v>
   <v>       0.37500000       0.12500000       0.44444444 </v>
   <v>       0.50000000       0.12500000       0.44444444 </v>
   <v>      -0.37500000       0.12500000       0.44444444 </v>
   <v>      -0.25000000       0.12500000       0.44444444 </v>
   <v>      -0.12500000       0.12500000       0.44444444 </v>
   <v>       0.25000000       0.25000000       0.44444444 </v>
   <v>       0.37500000       0.25000000       0.44444444 </v>
   <v>       0.50000000       0.25000000       0.44444444 </v>
   <v>      -0.37500000       0.25000000       0.44444444 </v>
   <v>      -0.25000000       0.25000000       0.44444444 </v>
   <v>      -0.12500000       0.25000000       0.44444444 </v>
   <v>       0.37500000       0.37500000       0.44444444 </v>
   <v>       0.50000000       0.37500000       0.44444444 </v>
   <v>      -0.37500000       0.37500000       0.44444444 </v>
   <v>      -0.25000000       0.37500000       0.44444444 </v>
   <v>      -0.12500000       0.37500000       0.44444444 </v>
   <v>       0.50000000       0.50000000       0.44444444 </v>
   <v>      -0.37500000       0.50000000       0.44444444 </v>
   <v>      -0.25000000       0.50000000       0.44444444 </v>
   <v>      -0.12500000       0.50000000       0.44444444 </v>
   <v>      -0.37500000      -0.37500000       0.44444444 </v>
   <v>      -0.25000000      -0.37500000       0.44444444 </v>
   <v>      -0.12500000      -0.37500000       0.44444444 </v>
   <v>      -0.25000000      -0.25000000       0.44444444 </v>
   <v>      -0.12500000      -0.25000000       0.44444444 </v>
   <v>      -0.12500000      -0.12500000       0.44444444 </v>
  </varray>
  <varray name="weights" >
   <v>       0.00173611 </v>
   <v>       0.00694444 </v>
   <v>       0.00694444 </v>
   <v>       0.00694444 </v>
   <v>       0.00347222 </v>
   <v>       0.00347222 </v>
   <v>       0.00694444 </v>
   <v>       0.00694444 </v>
   <v>       0.00694444 </v>
   <v>       0.00694444 </v>
   <v>       0.00694444 </v>
   <v>       0.00347222 </v>
   <v>       0.00347222 </v>
   <v>       0.00694444 </v>
   <v>       0.00694444 </v>
   <v>       0.00694444 </v>
   <v>       0.00347222 </v>
   <v>       0.00347222 </v>
   <v>       0.00694444 </v>
   <v>       0.00347222 </v>
   <v>       0.00173611 </v>
   <v>       0.00347222 </v>
   <v>       0.00694444 </v>
   <v>       0.00694444 </v>
   <v>       0.00694444 </v>
   <v>       0.00694444 </v>
   <v>       0.00694444 </v>
   <v>       0.00694444 </v>
   <v>       0.00694444 </v>
   <v>       0.00347222 </v>
   <v>       0.00694444 </v>
   <v>       0.00694444 </v>
   <v>       0.00694444 </v>
   <v>       0.00694444 </v>
   <v>       0.00694444 </v>
   <v>       0.00694444 </v>
   <v>       0.00347222 </v>
   <v>       0.00694444 </v>
   <v>       0.00694444 </v>
   <v>       0.00694444 </v>
   <v>       0.00694444 </v>
   <v>       0.00694444 </v>
   <v>       0.00347222 </v>
   <v>       0.00694444 </v>
   <v>       0.00694444 </v>
   <v>       0.00694444 </v>
   <v>       0.00694444 </v>
   <v>       0.00347222 </v>
   <v>       0.00694444 </v>
   <v>       0.00694444 </v>
   <v>       0.00694444 </v>
   <v>       0.00347222 </v>
   <v>       0.00694444 </v>
   <v>       0.00694444 </v>
   <v>       0.00347222 </v>
   <v>       0.00694444 </v>
   <v>       0.00347222 </v>
   <v>       0.00347222 </v>
   <v>       0.00694444 </v>
   <v>       0.00694444 </v>
   <v>       0.00694444 </v>
   <v>       0.00694444 </v>
   <v>       0.00694444 </v>
   <v>       0.00694444 </v>
   <v>       0.00694444 </v>
   <v>       0.00347222 </v>
   <v>       0.00694444 </v>
   <v>       0.00694444 </v>
   <v>       0.00694444 </v>
   <v>       0.00694444 </v>
   <v>       0.00694444 </v>
   <v>       0.00694444 </v>
   <v>       0.00347222 </v>
   <v>       0.00694444 </v>
   <v>       0.00694444 </v>
   <v>       0.00694444 </v>
   <v>       0.00694444 </v>
   <v>       0.00694444 </v>
   <v>       0.00347222 </v>
   <v>       0.00694444 </v>
   <v>       0.00694444 </v>
   <v>       0.00694444 </v>
   <v>       0.00694444 </v>
   <v>       0.00347222 </v>
   <v>       0.00694444 </v>
   <v>       0.00694444 </v>
   <v>       0.00694444 </v>
   <v>       0.00347222 </v>
   <v>       0.00694444 </v>
   <v>       0.00694444 </v>
   <v>       0.00347222 </v>
   <v>       0.00694444 </v>
   <v>       0.00347222 </v>
   <v>       0.00347222 </v>
   <v>       0.00694444 </v>
   <v>       0.00694444 </v>
   <v>       0.00694444 </v>
   <v>       0.00694444 </v>
   <v>       0.00694444 </v>
   <v>       0.00694444 </v>
   <v>       0.00694444 </v>
   <v>       0.00347222 </v>
   <v>       0.00694444 </v>
   <v>       0.00694444 </v>
   <v>       0.00694444 </v>
   <v>       0.00694444 </v>
   <v>       0.00694444 </v>
   <v>       0.00694444 </v>
   <v>       0.00347222 </v>
   <v>       0.00694444 </v>
   <v>       0.00694444 </v>
   <v>       0.00694444 </v>
   <v>       0.00694444 </v>
   <v>       0.00694444 </v>
   <v>       0.00347222 </v>
   <v>       0.00694444 </v>
   <v>       0.00694444 </v>
   <v>       0.00694444 </v>
   <v>       0.00694444 </v>
   <v>       0.00347222 </v>
   <v>       0.00694444 </v>
   <v>       0.00694444 </v>
   <v>       0.00694444 </v>
   <v>       0.00347222 </v>
   <v>       0.00694444 </v>
   <v>       0.00694444 </v>
   <v>       0.00347222 </v>
   <v>       0.00694444 </v>
   <v>       0.00347222 </v>
   <v>       0.00347222 </v>
   <v>       0.00694444 </v>
   <v>       0.00694444 </v>
   <v>       0.00694444 </v>
   <v>       0.00694444 </v>
   <v>       0.00694444 </v>
   <v>       0.00694444 </v>
   <v>       0.00694444 </v>
   <v>       0.00347222 </v>
   <v>       0.00694444 </v>
   <v>       0.00694444 </v>
   <v>       0.00694444 </v>
   <v>       0.00694444 </v>
   <v>       0.00694444 </v>
   <v>       0.00694444 </v>
   <v>       0.00347222 </v>
   <v>       0.00694444 </v>
   <v>       0.00694444 </v>
   <v>       0.00694444 </v>
   <v>       0.00694444 </v>
   <v>       0.00694444 </v>
   <v>       0.00347222 </v>
   <v>       0.00694444 </v>
   <v>       0.00694444 </v>
   <v>       0.00694444 </v>
   <v>       0.00694444 </v>
   <v>       0.00347222 </v>
   <v>       0.00694444 </v>
   <v>       0.00694444 </v>
   <v>       0.00694444 </v>
   <v>       0.00347222 </v>
   <v>       0.00694444 </v>
   <v>       0.00694444 </v>
   <v>       0.00347222 </v>
   <v>       0.00694444 </v>
   <v>       0.00347222 </v>
  </varray>
 </kpoints>
 <parameters>
  <separator name="general" >
   <i type="string" name="SYSTEM">routine with relax: pwdword</i>
   <i type="logical" name="LCOMPAT"> F  </i>
  </separator>
  <separator name="electronic" >
   <i type="string" name="PREC">acc</i>
   <i name="ENMAX">    600.00000000</i>
   <i name="ENAUG">    535.51400000</i>
   <i name="EDIFF">      0.00000000</i>
   <i type="int" name="IALGO">    58</i>
   <i type="int" name="IWAVPR">    10</i>
   <i type="int" name="NBANDS">    60</i>
   <i type="int" name="NBANDSLOW">    -1</i>
   <i type="int" name="NBANDSHIGH">    -1</i>
   <i name="NELECT">     98.00000000</i>
   <i type="int" name="TURBO">     0</i>
   <i type="int" name="IRESTART">     0</i>
   <i type="int" name="NREBOOT">     0</i>
   <i type="int" name="NMIN">     0</i>
   <i name="EREF">      0.00000000</i>
   <separator name="electronic smearing" >
    <i type="int" name="ISMEAR">     0</i>
    <i name="SIGMA">      0.02000000</i>
    <i name="KSPACING">      0.50000000</i>
    <i type="logical" name="KGAMMA"> T  </i>
    <i type="logical" name="KBLOWUP"> F  </i>
   </separator>
   <separator name="electronic projectors" >
    <i type="logical" name="LREAL"> F  </i>
    <v name="ROPT">      0.00000000      0.00000000      0.00000000</v>
    <i type="int" name="LMAXPAW">  -100</i>
    <i type="int" name="LMAXMIX">     2</i>
    <i type="logical" name="NLSPLINE"> F  </i>
   </separator>
   <separator name="electronic startup" >
    <i type="int" name="ISTART">     0</i>
    <i type="int" name="ICHARG">     2</i>
    <i type="int" name="INIWAV">     1</i>
   </separator>
   <separator name="electronic spin" >
    <i type="int" name="ISPIN">     1</i>
    <i type="logical" name="LNONCOLLINEAR"> F  </i>
    <v name="MAGMOM">      1.00000000      1.00000000      1.00000000      1.00000000      1.00000000      1.00000000      1.00000000      1.00000000      1.00000000      1.00000000</v>
    <i name="NUPDOWN">     -1.00000000</i>
    <i type="logical" name="LSORBIT"> F  </i>
    <v name="SAXIS">      0.00000000      0.00000000      1.00000000</v>
    <i type="logical" name="LSPIRAL"> F  </i>
    <v name="QSPIRAL">      0.00000000      0.00000000      0.00000000</v>
    <i type="logical" name="LZEROZ"> F  </i>
   </separator>
   <separator name="electronic exchange-correlation" >
    <i type="logical" name="LASPH"> T  </i>
    <i type="logical" name="LMETAGGA"> F  </i>
   </separator>
   <separator name="electronic convergence" >
    <i type="int" name="NELM">   100</i>
    <i type="int" name="NELMDL">    -5</i>
    <i type="int" name="NELMIN">     6</i>
    <i name="ENINI">    600.00000000</i>
    <separator name="electronic convergence detail" >
     <i type="logical" name="LDIAG"> T  </i>
     <i type="logical" name="LSUBROT"> F  </i>
     <i name="WEIMIN">      0.00000000</i>
     <i name="EBREAK">      0.00000000</i>
     <i name="DEPER">      0.30000000</i>
     <i type="int" name="NRMM">     4</i>
     <i name="TIME">      0.40000000</i>
    </separator>
   </separator>
   <separator name="electronic mixer" >
    <i name="AMIX">      0.40000000</i>
    <i name="BMIX">      1.00000000</i>
    <i name="AMIN">      0.10000000</i>
    <i name="AMIX_MAG">      1.60000000</i>
    <i name="BMIX_MAG">      1.00000000</i>
    <separator name="electronic mixer details" >
     <i type="int" name="IMIX">     4</i>
     <i type="logical" name="MIXFIRST"> F  </i>
     <i type="int" name="MAXMIX">   -45</i>
     <i name="WC">    100.00000000</i>
     <i type="int" name="INIMIX">     1</i>
     <i type="int" name="MIXPRE">     1</i>
     <i type="int" name="MREMOVE">     5</i>
    </separator>
   </separator>
   <separator name="electronic dipolcorrection" >
    <i type="logical" name="LDIPOL"> F  </i>
    <i type="logical" name="LMONO"> F  </i>
    <i type="int" name="IDIPOL">     0</i>
    <i name="EPSILON">      1.00000000</i>
    <v name="DIPOL">   -100.00000000   -100.00000000   -100.00000000</v>
    <i name="EFIELD">      0.00000000</i>
   </separator>
  </separator>
  <separator name="grids" >
   <i type="int" name="NGX">    48</i>
   <i type="int" name="NGY">    48</i>
   <i type="int" name="NGZ">    48</i>
   <i type="int" name="NGXF">    96</i>
   <i type="int" name="NGYF">    96</i>
   <i type="int" name="NGZF">    96</i>
   <i type="logical" name="ADDGRID"> T  </i>
  </separator>
  <separator name="ionic" >
   <i type="int" name="NSW">     0</i>
   <i type="int" name="IBRION">    -1</i>
   <i type="int" name="MDALGO">     0</i>
   <i type="int" name="ISIF">    -1</i>
   <i name="PSTRESS">      0.00000000</i>
   <i name="EDIFFG">      0.00000001</i>
   <i type="int" name="NFREE">     0</i>
   <i name="POTIM">      0.50000000</i>
   <i name="SMASS">     -3.00000000</i>
   <i name="SCALEE">      1.00000000</i>
  </separator>
  <separator name="ionic md" >
   <i name="TEBEG">      0.00010000</i>
   <i name="TEEND">      0.00010000</i>
   <i type="int" name="NBLOCK">     1</i>
   <i type="int" name="KBLOCK">     1</i>
   <i type="int" name="NPACO">   256</i>
   <i name="APACO">     16.00000000</i>
  </separator>
  <separator name="symmetry" >
   <i type="int" name="ISYM">     2</i>
   <i name="SYMPREC">      0.00001000</i>
  </separator>
  <separator name="dos" >
   <i type="int" name="LORBIT">     0</i>
   <v name="RWIGS">     -1.00000000     -1.00000000     -1.00000000</v>
   <i type="int" name="NEDOS">   301</i>
   <i name="EMIN">     10.00000000</i>
   <i name="EMAX">    -10.00000000</i>
   <i name="EFERMI">      0.00000000</i>
  </separator>
  <separator name="writing" >
   <i type="int" name="NWRITE">     2</i>
   <i type="logical" name="LWAVE"> T  </i>
   <i type="logical" name="LDOWNSAMPLE"> F  </i>
   <i type="logical" name="LCHARG"> T  </i>
   <i type="logical" name="LPARD"> F  </i>
   <i type="logical" name="LVTOT"> F  </i>
   <i type="logical" name="LVHAR"> F  </i>
   <i type="logical" name="LELF"> F  </i>
   <i type="logical" name="LOPTICS"> F  </i>
   <v name="STM">      0.00000000      0.00000000      0.00000000      0.00000000      0.00000000      0.00000000      0.00000000</v>
  </separator>
  <separator name="performance" >
   <i type="int" name="NPAR">     6</i>
   <i type="int" name="NSIM">     4</i>
   <i type="int" name="NBLK">    -1</i>
   <i type="logical" name="LPLANE"> T  </i>
   <i type="logical" name="LSCALAPACK"> T  </i>
   <i type="logical" name="LSCAAWARE"> F  </i>
   <i type="logical" name="LSCALU"> F  </i>
   <i type="logical" name="LASYNC"> F  </i>
   <i type="logical" name="LORBITALREAL"> F  </i>
  </separator>
  <separator name="miscellaneous" >
   <i type="int" name="IDIOT">     3</i>
   <i type="int" name="PHON_NSTRUCT">    -1</i>
   <i type="logical" name="LMUSIC"> F  </i>
   <v name="POMASS">     10.81100000     95.94000000     28.08500000</v>
   <v name="DARWINR">      0.00000000      0.00000000      0.00000000</v>
   <v name="DARWINV">      1.00000000      1.00000000      1.00000000</v>
   <i type="logical" name="LCORR"> T  </i>
  </separator>
  <i type="logical" name="GGA_COMPAT"> T  </i>
  <i type="logical" name="LBERRY"> F  </i>
  <i type="int" name="ICORELEVEL">     0</i>
  <i type="logical" name="LDAU"> F  </i>
  <i type="int" name="I_CONSTRAINED_M">     0</i>
  <separator name="electronic exchange-correlation" >
   <i type="string" name="GGA">--</i>
   <i type="int" name="VOSKOWN">     0</i>
   <i type="logical" name="LHFCALC"> F  </i>
   <i type="string" name="PRECFOCK"></i>
   <i type="logical" name="LSYMGRAD"> F  </i>
   <i type="logical" name="LHFONE"> F  </i>
   <i type="logical" name="LRHFCALC"> F  </i>
   <i type="logical" name="LTHOMAS"> F  </i>
   <i type="logical" name="LMODELHF"> F  </i>
   <i type="logical" name="LFOCKACE"> F  </i>
   <i name="ENCUT4O">     -1.00000000</i>
   <i type="int" name="EXXOEP">     0</i>
   <i type="int" name="FOURORBIT">     0</i>
   <i name="AEXX">      0.00000000</i>
   <i name="HFALPHA">      0.00000000</i>
   <i name="MCALPHA">      0.00000000</i>
   <i name="ALDAX">      1.00000000</i>
   <i name="AGGAX">      1.00000000</i>
   <i name="ALDAC">      1.00000000</i>
   <i name="AGGAC">      1.00000000</i>
   <i type="int" name="NKREDX">     1</i>
   <i type="int" name="NKREDY">     1</i>
   <i type="int" name="NKREDZ">     1</i>
   <i type="logical" name="SHIFTRED"> F  </i>
   <i type="logical" name="ODDONLY"> F  </i>
   <i type="logical" name="EVENONLY"> F  </i>
   <i type="int" name="LMAXFOCK">     0</i>
   <i type="int" name="NMAXFOCKAE">     0</i>
   <i type="logical" name="LFOCKAEDFT"> F  </i>
   <i name="HFSCREEN">      0.00000000</i>
   <i name="HFSCREENC">      0.00000000</i>
   <i type="int" name="NBANDSGWLOW">     0</i>
  </separator>
  <separator name="vdW DFT" >
   <i type="logical" name="LUSE_VDW"> F  </i>
   <i name="Zab_VDW">     -0.84910000</i>
   <i name="PARAM1">      0.12340000</i>
   <i name="PARAM2">      1.00000000</i>
   <i name="PARAM3">      0.00000000</i>
  </separator>
  <separator name="model GW" >
   <i type="int" name="MODEL_GW">     0</i>
   <i name="MODEL_EPS0">      7.44594204</i>
   <i name="MODEL_ALPHA">      1.00000000</i>
  </separator>
  <separator name="linear response parameters" >
   <i type="logical" name="LEPSILON"> F  </i>
   <i type="logical" name="LRPA"> F  </i>
   <i type="logical" name="LNABLA"> F  </i>
   <i type="logical" name="LVEL"> F  </i>
   <i type="int" name="KINTER">     0</i>
   <i name="CSHIFT">      0.10000000</i>
   <i name="OMEGAMAX">     -1.00000000</i>
   <i name="DEG_THRESHOLD">      0.00200000</i>
   <i name="RTIME">     -0.10000000</i>
   <i name="WPLASMAI">      0.00000000</i>
   <v name="DFIELD">      0.00000000      0.00000000      0.00000000</v>
   <v name="WPLASMA">      0.00000000      0.00000000      0.00000000      0.00000000      0.00000000      0.00000000      0.00000000      0.00000000      0.00000000</v>
  </separator>
  <separator name="orbital magnetization" >
   <i type="logical" name="NUCIND"> F  </i>
   <v name="MAGPOS">      0.00000000      0.00000000      0.00000000</v>
   <i type="logical" name="LNICSALL"> T  </i>
   <i type="logical" name="ORBITALMAG"> F  </i>
   <i type="logical" name="LMAGBLOCH"> F  </i>
   <i type="logical" name="LCHIMAG"> F  </i>
   <i type="logical" name="LGAUGE"> T  </i>
   <i type="int" name="MAGATOM">     0</i>
   <v name="MAGDIPOL">      0.00000000      0.00000000      0.00000000</v>
   <v name="AVECCONST">      0.00000000      0.00000000      0.00000000</v>
  </separator>
  <separator name="response functions" >
   <i type="logical" name="LFINITE_TEMPERATURE"> F  </i>
   <i type="logical" name="LADDER"> F  </i>
   <i type="logical" name="LRPAFORCE"> F  </i>
   <i type="logical" name="LFXC"> F  </i>
   <i type="logical" name="LHARTREE"> T  </i>
   <i type="int" name="IBSE">     0</i>
   <v type="int" name="KPOINT">    -1     0     0     0</v>
   <i type="logical" name="LTCTC"> F  </i>
   <i type="logical" name="LTCTE"> F  </i>
   <i type="logical" name="LTETE"> F  </i>
   <i type="logical" name="LTRIPLET"> F  </i>
   <i type="logical" name="LFXCEPS"> F  </i>
   <i type="logical" name="LFXHEG"> F  </i>
   <i type="int" name="NATURALO">     2</i>
   <i type="logical" name="LHOLEGF"> F  </i>
   <i type="logical" name="L2ORDER"> F  </i>
   <i type="logical" name="LDMP1"> F  </i>
   <i type="logical" name="LMP2LT"> F  </i>
   <i type="logical" name="LSMP2LT"> F  </i>
   <i type="logical" name="LGWLF"> F  </i>
   <i name="ENCUTGW">     -2.00000000</i>
   <i name="ENCUTGWSOFT">     -2.00000000</i>
   <i name="ENCUTLF">     -1.00000000</i>
   <i type="logical" name="LESF_SPLINES"> F  </i>
   <i type="int" name="LMAXMP2">    -1</i>
   <i name="SCISSOR">      0.00000000</i>
   <i type="int" name="NOMEGA">     0</i>
   <i type="int" name="NOMEGAR">     0</i>
   <i type="int" name="NBANDSGW">    -1</i>
   <i type="int" name="NBANDSO">    -1</i>
   <i type="int" name="NBANDSV">    -1</i>
   <i type="int" name="NELM">   100</i>
   <i type="int" name="NELMHF">     1</i>
   <i type="int" name="DIM">     3</i>
   <i type="int" name="IESPILON">     4</i>
   <i type="int" name="ANTIRES">     0</i>
   <i name="OMEGAMAX">    -30.00000000</i>
   <i name="OMEGAMIN">    -30.00000000</i>
   <i name="OMEGATL">   -200.00000000</i>
   <i type="int" name="OMEGAGRID">     0</i>
   <i name="CSHIFT">     -0.10000000</i>
   <i type="logical" name="LSELFENERGY"> F  </i>
   <i type="logical" name="LSPECTRAL"> F  </i>
   <i type="logical" name="LSPECTRALGW"> F  </i>
   <i type="logical" name="LSINGLES"> F  </i>
   <i type="logical" name="LFERMIGW"> F  </i>
   <i type="logical" name="ODDONLYGW"> F  </i>
   <i type="logical" name="EVENONLYGW"> F  </i>
   <i type="int" name="NKREDLFX">     1</i>
   <i type="int" name="NKREDLFY">     1</i>
   <i type="int" name="NKREDLFZ">     1</i>
   <i type="int" name="MAXMEM">  2800</i>
   <i type="int" name="TELESCOPE">     0</i>
   <i type="int" name="NTAUPAR">    -1</i>
   <i type="int" name="NOMEGAPAR">    -1</i>
   <i name="DAMP_NEWTON">      0.80000001</i>
   <i name="LAMBDA">      1.00000000</i>
  </separator>
  <separator name="External order field" >
   <i name="OFIELD_KAPPA">      0.00000000</i>
   <v name="OFIELD_K">      0.00000000      0.00000000      0.00000000</v>
   <i name="OFIELD_Q6_NEAR">      0.00000000</i>
   <i name="OFIELD_Q6_FAR">      0.00000000</i>
   <i name="OFIELD_A">      0.00000000</i>
  </separator>
 </parameters>
 <atominfo>
  <atoms>      10 </atoms>
  <types>       3 </types>
  <array name="atoms" >
   <dimension dim="1">ion</dimension>
   <field type="string">element</field>
   <field type="int">atomtype</field>
   <set>
    <rc><c>B </c><c>   1</c></rc>
    <rc><c>B </c><c>   1</c></rc>
    <rc><c>Mo</c><c>   2</c></rc>
    <rc><c>Mo</c><c>   2</c></rc>
    <rc><c>Mo</c><c>   2</c></rc>
    <rc><c>Mo</c><c>   2</c></rc>
    <rc><c>Mo</c><c>   2</c></rc>
    <rc><c>Mo</c><c>   2</c></rc>
    <rc><c>Si</c><c>   3</c></rc>
    <rc><c>Si</c><c>   3</c></rc>
   </set>
  </array>
  <array name="atomtypes" >
   <dimension dim="1">type</dimension>
   <field type="int">atomspertype</field>
   <field type="string">element</field>
   <field>mass</field>
   <field>valence</field>
   <field type="string">pseudopotential</field>
   <set>
    <rc><c>   2</c><c>B </c><c>     10.81100000</c><c>      3.00000000</c><c>  PAW_PBE B 06Sep2000                   </c></rc>
    <rc><c>   6</c><c>Mo</c><c>     95.94000000</c><c>     14.00000000</c><c>  PAW_PBE Mo_sv 02Feb2006               </c></rc>
    <rc><c>   2</c><c>Si</c><c>     28.08500000</c><c>      4.00000000</c><c>  PAW_PBE Si 05Jan2001                  </c></rc>
   </set>
  </array>
 </atominfo>
 <structure name="initialpos" >
  <crystal>
   <varray name="basis" >
    <v>       4.87398783       0.00000000      -2.69813812 </v>
    <v>      -1.69331161       4.57038873      -2.69813812 </v>
    <v>       0.00000000       0.00000000       5.57097000 </v>
   </varray>
   <i name="volume">    124.09903408 </i>
   <varray name="rec_basis" >
    <v>       0.20517080       0.07601500       0.00000000 </v>
    <v>       0.00000000       0.21879977       0.00000000 </v>
    <v>       0.09936854       0.14278500       0.17950195 </v>
   </varray>
  </crystal>
  <varray name="positions" >
   <v>       0.50000000       0.00000000       0.50000000 </v>
   <v>       0.00000000       0.50000000       0.50000000 </v>
   <v>       0.25674000       0.24326000       0.50000000 </v>
   <v>       0.25000000       0.75000000       0.50000000 </v>
   <v>       0.74326000       0.75674000       0.50000000 </v>
   <v>       0.75000000       0.25000000       0.50000000 </v>
   <v>       0.24326000       0.74326000       0.98651000 </v>
   <v>       0.75674000       0.25674000       0.01349000 </v>
   <v>       0.25000000       0.25000000       0.00000000 </v>
   <v>       0.75000000       0.75000000       0.00000000 </v>
  </varray>
 </structure>
 <calculation>
  <scstep>
   <time name="total">   22.35   22.56</time>
   <energy>
    <i name="alphaZ">    673.20786395 </i>
    <i name="ewald">  -9683.01905224 </i>
    <i name="hartreedc">  -2292.64040084 </i>
    <i name="XCdc">    473.56629743 </i>
    <i name="pawpsdc">   9166.97638771 </i>
    <i name="pawaedc">  -9126.13493418 </i>
    <i name="eentropy">     -0.00079092 </i>
    <i name="bandstr">    382.28317672 </i>
    <i name="atom">  11522.16744521 </i>
    <i name="e_fr_energy">   1116.40599286 </i>
    <i name="e_wo_entrp">   1116.40678377 </i>
    <i name="e_0_energy">   1116.40638832 </i>
   </energy>
  </scstep>
  <scstep>
   <time name="total">   22.85   23.06</time>
   <energy>
    <i name="e_fr_energy">   -179.22292682 </i>
    <i name="e_wo_entrp">   -179.22197630 </i>
    <i name="e_0_energy">   -179.22245156 </i>
   </energy>
  </scstep>
  <scstep>
   <time name="total">   24.91   25.13</time>
   <energy>
    <i name="e_fr_energy">   -231.28508310 </i>
    <i name="e_wo_entrp">   -231.28412394 </i>
    <i name="e_0_energy">   -231.28460352 </i>
   </energy>
  </scstep>
  <scstep>
   <time name="total">   23.28   23.50</time>
   <energy>
    <i name="e_fr_energy">   -232.04898476 </i>
    <i name="e_wo_entrp">   -232.04806350 </i>
    <i name="e_0_energy">   -232.04852413 </i>
   </energy>
  </scstep>
  <scstep>
   <time name="total">   26.24   26.48</time>
   <energy>
    <i name="e_fr_energy">   -232.06479463 </i>
    <i name="e_wo_entrp">   -232.06387251 </i>
    <i name="e_0_energy">   -232.06433357 </i>
   </energy>
  </scstep>
  <scstep>
   <time name="total">   25.88   26.10</time>
   <energy>
    <i name="e_fr_energy">   -157.23417931 </i>
    <i name="e_wo_entrp">   -157.23259078 </i>
    <i name="e_0_energy">   -157.23338504 </i>
   </energy>
  </scstep>
  <scstep>
   <time name="total">   25.74   25.96</time>
   <energy>
    <i name="e_fr_energy">   -178.72250659 </i>
    <i name="e_wo_entrp">   -178.72086717 </i>
    <i name="e_0_energy">   -178.72168688 </i>
   </energy>
  </scstep>
  <scstep>
   <time name="total">   25.61   25.82</time>
   <energy>
    <i name="e_fr_energy">   -182.27011020 </i>
    <i name="e_wo_entrp">   -182.26836720 </i>
    <i name="e_0_energy">   -182.26923870 </i>
   </energy>
  </scstep>
  <scstep>
   <time name="total">   26.09   26.31</time>
   <energy>
    <i name="e_fr_energy">   -183.21857397 </i>
    <i name="e_wo_entrp">   -183.21726667 </i>
    <i name="e_0_energy">   -183.21792032 </i>
   </energy>
  </scstep>
  <scstep>
   <time name="total">   25.99   26.20</time>
   <energy>
    <i name="e_fr_energy">   -183.53284416 </i>
    <i name="e_wo_entrp">   -183.53141091 </i>
    <i name="e_0_energy">   -183.53212753 </i>
   </energy>
  </scstep>
  <scstep>
   <time name="total">   25.93   26.15</time>
   <energy>
    <i name="e_fr_energy">   -183.63398876 </i>
    <i name="e_wo_entrp">   -183.63251741 </i>
    <i name="e_0_energy">   -183.63325308 </i>
   </energy>
  </scstep>
  <scstep>
   <time name="total">   25.96   26.18</time>
   <energy>
    <i name="e_fr_energy">   -183.66972854 </i>
    <i name="e_wo_entrp">   -183.66827858 </i>
    <i name="e_0_energy">   -183.66900356 </i>
   </energy>
  </scstep>
  <scstep>
   <time name="total">   25.60   25.83</time>
   <energy>
    <i name="e_fr_energy">   -183.68314461 </i>
    <i name="e_wo_entrp">   -183.68174742 </i>
    <i name="e_0_energy">   -183.68244602 </i>
   </energy>
  </scstep>
  <scstep>
   <time name="total">   25.76   25.98</time>
   <energy>
    <i name="e_fr_energy">   -183.69017878 </i>
    <i name="e_wo_entrp">   -183.68881122 </i>
    <i name="e_0_energy">   -183.68949500 </i>
   </energy>
  </scstep>
  <scstep>
   <time name="total">   25.97   26.19</time>
   <energy>
    <i name="e_fr_energy">   -183.69334377 </i>
    <i name="e_wo_entrp">   -183.69199555 </i>
    <i name="e_0_energy">   -183.69266966 </i>
   </energy>
  </scstep>
  <scstep>
   <time name="total">   25.87   26.09</time>
   <energy>
    <i name="e_fr_energy">   -183.69461929 </i>
    <i name="e_wo_entrp">   -183.69327170 </i>
    <i name="e_0_energy">   -183.69394550 </i>
   </energy>
  </scstep>
  <scstep>
   <time name="total">   25.73   25.95</time>
   <energy>
    <i name="e_fr_energy">   -183.69502595 </i>
    <i name="e_wo_entrp">   -183.69368262 </i>
    <i name="e_0_energy">   -183.69435428 </i>
   </energy>
  </scstep>
  <scstep>
   <time name="total">   25.62   25.84</time>
   <energy>
    <i name="e_fr_energy">   -183.69520267 </i>
    <i name="e_wo_entrp">   -183.69385903 </i>
    <i name="e_0_energy">   -183.69453085 </i>
   </energy>
  </scstep>
  <scstep>
   <time name="total">   26.18   26.40</time>
   <energy>
    <i name="e_fr_energy">   -183.69528478 </i>
    <i name="e_wo_entrp">   -183.69394155 </i>
    <i name="e_0_energy">   -183.69461317 </i>
   </energy>
  </scstep>
  <scstep>
   <time name="total">   26.62   26.84</time>
   <energy>
    <i name="e_fr_energy">   -183.69531573 </i>
    <i name="e_wo_entrp">   -183.69397220 </i>
    <i name="e_0_energy">   -183.69464397 </i>
   </energy>
  </scstep>
  <scstep>
   <time name="total">   26.30   26.52</time>
   <energy>
    <i name="e_fr_energy">   -183.69532802 </i>
    <i name="e_wo_entrp">   -183.69398401 </i>
    <i name="e_0_energy">   -183.69465601 </i>
   </energy>
  </scstep>
  <scstep>
   <time name="total">   26.15   26.37</time>
   <energy>
    <i name="e_fr_energy">   -183.69533393 </i>
    <i name="e_wo_entrp">   -183.69398950 </i>
    <i name="e_0_energy">   -183.69466172 </i>
   </energy>
  </scstep>
  <scstep>
   <time name="total">   26.62   26.84</time>
   <energy>
    <i name="e_fr_energy">   -183.69533631 </i>
    <i name="e_wo_entrp">   -183.69399164 </i>
    <i name="e_0_energy">   -183.69466398 </i>
   </energy>
  </scstep>
  <scstep>
   <time name="total">   25.79   26.00</time>
   <energy>
    <i name="e_fr_energy">   -183.69533730 </i>
    <i name="e_wo_entrp">   -183.69399245 </i>
    <i name="e_0_energy">   -183.69466487 </i>
   </energy>
  </scstep>
  <scstep>
   <time name="total">   26.35   26.56</time>
   <energy>
    <i name="e_fr_energy">   -183.69533764 </i>
    <i name="e_wo_entrp">   -183.69399276 </i>
    <i name="e_0_energy">   -183.69466520 </i>
   </energy>
  </scstep>
  <scstep>
   <time name="total">   25.82   26.03</time>
   <energy>
    <i name="e_fr_energy">   -183.69533775 </i>
    <i name="e_wo_entrp">   -183.69399284 </i>
    <i name="e_0_energy">   -183.69466530 </i>
   </energy>
  </scstep>
  <scstep>
   <time name="total">   25.89   26.11</time>
   <energy>
    <i name="e_fr_energy">   -183.69533779 </i>
    <i name="e_wo_entrp">   -183.69399287 </i>
    <i name="e_0_energy">   -183.69466533 </i>
   </energy>
  </scstep>
  <scstep>
   <time name="total">   26.13   26.34</time>
   <energy>
    <i name="e_fr_energy">   -183.69533782 </i>
    <i name="e_wo_entrp">   -183.69399294 </i>
    <i name="e_0_energy">   -183.69466538 </i>
   </energy>
  </scstep>
  <scstep>
   <time name="total">   26.27   26.49</time>
   <energy>
    <i name="e_fr_energy">   -183.69533784 </i>
    <i name="e_wo_entrp">   -183.69399294 </i>
    <i name="e_0_energy">   -183.69466539 </i>
   </energy>
  </scstep>
  <scstep>
   <time name="total">   25.97   26.18</time>
   <energy>
    <i name="e_fr_energy">   -183.69533784 </i>
    <i name="e_wo_entrp">   -183.69399295 </i>
    <i name="e_0_energy">   -183.69466540 </i>
   </energy>
  </scstep>
  <scstep>
   <time name="total">   26.33   26.55</time>
   <energy>
    <i name="e_fr_energy">   -183.69533784 </i>
    <i name="e_wo_entrp">   -183.69399296 </i>
    <i name="e_0_energy">   -183.69466540 </i>
   </energy>
  </scstep>
  <scstep>
   <time name="total">   25.98   26.20</time>
   <energy>
    <i name="e_fr_energy">   -183.69533785 </i>
    <i name="e_wo_entrp">   -183.69399297 </i>
    <i name="e_0_energy">   -183.69466541 </i>
   </energy>
  </scstep>
  <scstep>
   <time name="total">   25.42   25.63</time>
   <energy>
    <i name="e_fr_energy">   -183.69533785 </i>
    <i name="e_wo_entrp">   -183.69399298 </i>
    <i name="e_0_energy">   -183.69466541 </i>
   </energy>
  </scstep>
  <scstep>
   <time name="total">   25.73   25.94</time>
   <energy>
    <i name="e_fr_energy">   -183.69533785 </i>
    <i name="e_wo_entrp">   -183.69399299 </i>
    <i name="e_0_energy">   -183.69466542 </i>
   </energy>
  </scstep>
  <scstep>
   <time name="total">   25.14   25.35</time>
   <energy>
    <i name="e_fr_energy">   -183.69533785 </i>
    <i name="e_wo_entrp">   -183.69399299 </i>
    <i name="e_0_energy">   -183.69466542 </i>
   </energy>
  </scstep>
  <scstep>
   <time name="total">   29.80   30.05</time>
   <energy>
    <i name="alphaZ">    673.20786395 </i>
    <i name="ewald">  -9683.01905224 </i>
    <i name="hartreedc">  -2173.96775789 </i>
    <i name="XCdc">    483.31919609 </i>
    <i name="pawpsdc">  13687.40370137 </i>
    <i name="pawaedc"> -13668.49122856 </i>
    <i name="eentropy">     -0.00134486 </i>
    <i name="bandstr">  -1024.31416092 </i>
    <i name="atom">  11522.16744521 </i>
    <i name="e_fr_energy">   -183.69533785 </i>
    <i name="e_wo_entrp">   -183.69399299 </i>
    <i name="e_0_energy">   -183.69466542 </i>
   </energy>
  </scstep>
  <structure>
   <crystal>
    <varray name="basis" >
     <v>       4.87398783       0.00000000      -2.69813812 </v>
     <v>      -1.69331161       4.57038873      -2.69813812 </v>
     <v>       0.00000000       0.00000000       5.57097000 </v>
    </varray>
    <i name="volume">    124.09903408 </i>
    <varray name="rec_basis" >
     <v>       0.20517080       0.07601500       0.00000000 </v>
     <v>       0.00000000       0.21879977       0.00000000 </v>
     <v>       0.09936854       0.14278500       0.17950195 </v>
    </varray>
   </crystal>
   <varray name="positions" >
    <v>       0.50000000       0.00000000       0.50000000 </v>
    <v>       0.00000000       0.50000000       0.50000000 </v>
    <v>       0.25674000       0.24326000       0.50000000 </v>
    <v>       0.25000000       0.75000000       0.50000000 </v>
    <v>       0.74326000       0.75674000       0.50000000 </v>
    <v>       0.75000000       0.25000000       0.50000000 </v>
    <v>       0.24326000       0.74326000       0.98651000 </v>
    <v>       0.75674000       0.25674000       0.01349000 </v>
    <v>       0.25000000       0.25000000       0.00000000 </v>
    <v>       0.75000000       0.75000000       0.00000000 </v>
   </varray>
  </structure>
  <varray name="forces" >
   <v>       0.00000000       0.00000000       0.00000000 </v>
   <v>       0.00000000       0.00000000       0.00000000 </v>
   <v>       0.00000000       0.00000000       0.00000000 </v>
   <v>       0.00000000       0.00000000       0.00000000 </v>
   <v>       0.00000000       0.00000000       0.00000000 </v>
   <v>       0.00000000       0.00000000       0.00000000 </v>
   <v>       0.00000000       0.00000000       0.00000000 </v>
   <v>       0.00000000       0.00000000       0.00000000 </v>
   <v>       0.00000000       0.00000000       0.00000000 </v>
   <v>       0.00000000       0.00000000       0.00000000 </v>
  </varray>
  <varray name="stress" >
   <v>       0.00000000       0.00000000       0.00000000 </v>
   <v>       0.00000000       0.00000000       0.00000000 </v>
   <v>       0.00000000       0.00000000       0.00000000 </v>
  </varray>
  <energy>
   <i name="e_fr_energy">   -183.69533785 </i>
   <i name="e_wo_entrp">   -183.69399299 </i>
   <i name="e_0_energy">   -183.69466542 </i>
  </energy>
  <time name="totalsc">  931.36  939.33</time>
  <eigenvalues>
   <array>
    <dimension dim="1">band</dimension>
    <dimension dim="2">kpoint</dimension>
    <dimension dim="3">spin</dimension>
    <field>eigene</field>
    <field>occ</field>
    <set>
     <set comment="spin 1">
      <set comment="kpoint 1">
       <r>  -50.1625    1.0000 </r>
       <r>  -49.9646    1.0000 </r>
       <r>  -49.9500    1.0000 </r>
       <r>  -49.9476    1.0000 </r>
       <r>  -49.8588    1.0000 </r>
       <r>  -49.8418    1.0000 </r>
       <r>  -24.7764    1.0000 </r>
       <r>  -24.1989    1.0000 </r>
       <r>  -24.1442    1.0000 </r>
       <r>  -24.1412    1.0000 </r>
       <r>  -23.9060    1.0000 </r>
       <r>  -23.9040    1.0000 </r>
       <r>  -23.8156    1.0000 </r>
       <r>  -23.2916    1.0000 </r>
       <r>  -23.2751    1.0000 </r>
       <r>  -23.2741    1.0000 </r>
       <r>  -23.1311    1.0000 </r>
       <r>  -23.0771    1.0000 </r>
       <r>  -23.0166    1.0000 </r>
       <r>  -22.9953    1.0000 </r>
       <r>  -22.9928    1.0000 </r>
       <r>  -22.9541    1.0000 </r>
       <r>  -22.9104    1.0000 </r>
       <r>  -22.9084    1.0000 </r>
       <r>    0.8361    1.0000 </r>
       <r>    2.2276    1.0000 </r>
       <r>    3.1362    1.0000 </r>
       <r>    5.1134    1.0000 </r>
       <r>    5.1145    1.0000 </r>
       <r>    5.2716    1.0000 </r>
       <r>    7.9873    1.0000 </r>
       <r>    7.9889    1.0000 </r>
       <r>    8.0264    1.0000 </r>
       <r>    8.1372    1.0000 </r>
       <r>    8.3242    1.0000 </r>
       <r>    8.3608    1.0000 </r>
       <r>    9.7592    1.0000 </r>
       <r>    9.8624    1.0000 </r>
       <r>    9.8638    1.0000 </r>
       <r>   10.8954    1.0000 </r>
       <r>   10.9446    1.0000 </r>
       <r>   11.0883    1.0000 </r>
       <r>   11.0883    1.0000 </r>
       <r>   11.1782    1.0000 </r>
       <r>   11.1785    1.0000 </r>
       <r>   11.5386    1.0000 </r>
       <r>   11.5402    1.0000 </r>
       <r>   11.6241    1.0000 </r>
       <r>   12.9851    0.0000 </r>
       <r>   12.9856    0.0000 </r>
       <r>   13.2165    0.0000 </r>
       <r>   13.8732    0.0000 </r>
       <r>   14.0834    0.0000 </r>
       <r>   14.2142    0.0000 </r>
       <r>   14.4109    0.0000 </r>
       <r>   14.6935    0.0000 </r>
       <r>   14.6943    0.0000 </r>
       <r>   15.0504    0.0000 </r>
       <r>   15.7887    0.0000 </r>
       <r>   16.5853    0.0000 </r>
      </set>
      <set comment="kpoint 2">
       <r>  -50.1548    1.0000 </r>
       <r>  -49.9673    1.0000 </r>
       <r>  -49.9503    1.0000 </r>
       <r>  -49.9453    1.0000 </r>
       <r>  -49.8621    1.0000 </r>
       <r>  -49.8461    1.0000 </r>
       <r>  -24.7385    1.0000 </r>
       <r>  -24.1889    1.0000 </r>
       <r>  -24.1248    1.0000 </r>
       <r>  -24.1080    1.0000 </r>
       <r>  -23.8885    1.0000 </r>
       <r>  -23.8847    1.0000 </r>
       <r>  -23.7994    1.0000 </r>
       <r>  -23.3024    1.0000 </r>
       <r>  -23.2909    1.0000 </r>
       <r>  -23.2660    1.0000 </r>
       <r>  -23.1548    1.0000 </r>
       <r>  -23.1043    1.0000 </r>
       <r>  -23.0551    1.0000 </r>
       <r>  -23.0080    1.0000 </r>
       <r>  -23.0002    1.0000 </r>
       <r>  -22.9694    1.0000 </r>
       <r>  -22.9279    1.0000 </r>
       <r>  -22.9249    1.0000 </r>
       <r>    0.9837    1.0000 </r>
       <r>    2.3402    1.0000 </r>
       <r>    3.2137    1.0000 </r>
       <r>    4.9847    1.0000 </r>
       <r>    5.2763    1.0000 </r>
       <r>    5.3963    1.0000 </r>
       <r>    7.9554    1.0000 </r>
       <r>    8.0615    1.0000 </r>
       <r>    8.1038    1.0000 </r>
       <r>    8.1081    1.0000 </r>
       <r>    8.2966    1.0000 </r>
       <r>    8.3614    1.0000 </r>
       <r>    9.2931    1.0000 </r>
       <r>    9.5819    1.0000 </r>
       <r>    9.6396    1.0000 </r>
       <r>   10.7168    1.0000 </r>
       <r>   10.9181    1.0000 </r>
       <r>   10.9541    1.0000 </r>
       <r>   11.1243    1.0000 </r>
       <r>   11.2841    1.0000 </r>
       <r>   11.2915    1.0000 </r>
       <r>   11.3285    1.0000 </r>
       <r>   11.6560    1.0000 </r>
       <r>   11.8099    1.0000 </r>
       <r>   13.0206    0.0000 </r>
       <r>   13.1848    0.0000 </r>
       <r>   13.2981    0.0000 </r>
       <r>   13.3463    0.0000 </r>
       <r>   13.5555    0.0000 </r>
       <r>   13.9187    0.0000 </r>
       <r>   14.2256    0.0000 </r>
       <r>   14.7992    0.0000 </r>
       <r>   15.4932    0.0000 </r>
       <r>   15.7260    0.0000 </r>
       <r>   15.9647    0.0000 </r>
       <r>   16.3906    0.0000 </r>
      </set>
      <set comment="kpoint 3">
       <r>  -50.1327    1.0000 </r>
       <r>  -49.9871    1.0000 </r>
       <r>  -49.9415    1.0000 </r>
       <r>  -49.9361    1.0000 </r>
       <r>  -49.8713    1.0000 </r>
       <r>  -49.8584    1.0000 </r>
       <r>  -24.6352    1.0000 </r>
       <r>  -24.2111    1.0000 </r>
       <r>  -24.0264    1.0000 </r>
       <r>  -24.0106    1.0000 </r>
       <r>  -23.8368    1.0000 </r>
       <r>  -23.8305    1.0000 </r>
       <r>  -23.7530    1.0000 </r>
       <r>  -23.3457    1.0000 </r>
       <r>  -23.3415    1.0000 </r>
       <r>  -23.2450    1.0000 </r>
       <r>  -23.2359    1.0000 </r>
       <r>  -23.1862    1.0000 </r>
       <r>  -23.1827    1.0000 </r>
       <r>  -23.0160    1.0000 </r>
       <r>  -23.0137    1.0000 </r>
       <r>  -23.0000    1.0000 </r>
       <r>  -22.9647    1.0000 </r>
       <r>  -22.9586    1.0000 </r>
       <r>    1.4067    1.0000 </r>
       <r>    2.6608    1.0000 </r>
       <r>    3.3902    1.0000 </r>
       <r>    4.5175    1.0000 </r>
       <r>    5.7473    1.0000 </r>
       <r>    5.8828    1.0000 </r>
       <r>    7.7111    1.0000 </r>
       <r>    7.7769    1.0000 </r>
       <r>    8.2457    1.0000 </r>
       <r>    8.2960    1.0000 </r>
       <r>    8.3522    1.0000 </r>
       <r>    8.3542    1.0000 </r>
       <r>    8.7934    1.0000 </r>
       <r>    9.2102    1.0000 </r>
       <r>    9.2367    1.0000 </r>
       <r>    9.8844    1.0000 </r>
       <r>   10.3751    1.0000 </r>
       <r>   10.6355    1.0000 </r>
       <r>   10.8308    1.0000 </r>
       <r>   10.9695    1.0000 </r>
       <r>   11.6628    1.0000 </r>
       <r>   11.7015    1.0000 </r>
       <r>   11.9239    1.0000 </r>
       <r>   12.3166    1.0000 </r>
       <r>   12.5397    1.0000 </r>
       <r>   12.6801    1.0000 </r>
       <r>   13.4386    0.0000 </r>
       <r>   13.4393    0.0000 </r>
       <r>   13.6307    0.0000 </r>
       <r>   14.0048    0.0000 </r>
       <r>   14.2257    0.0000 </r>
       <r>   14.8232    0.0000 </r>
       <r>   15.5427    0.0000 </r>
       <r>   16.0830    0.0000 </r>
       <r>   16.1625    0.0000 </r>
       <r>   16.1833    0.0000 </r>
      </set>
      <set comment="kpoint 4">
       <r>  -50.0996    1.0000 </r>
       <r>  -50.0205    1.0000 </r>
       <r>  -49.9250    1.0000 </r>
       <r>  -49.9226    1.0000 </r>
       <r>  -49.8844    1.0000 </r>
       <r>  -49.8763    1.0000 </r>
       <r>  -24.4970    1.0000 </r>
       <r>  -24.2698    1.0000 </r>
       <r>  -23.8737    1.0000 </r>
       <r>  -23.8691    1.0000 </r>
       <r>  -23.7649    1.0000 </r>
       <r>  -23.7441    1.0000 </r>
       <r>  -23.6919    1.0000 </r>
       <r>  -23.4328    1.0000 </r>
       <r>  -23.4221    1.0000 </r>
       <r>  -23.3827    1.0000 </r>
       <r>  -23.3404    1.0000 </r>
       <r>  -23.3315    1.0000 </r>
       <r>  -23.1653    1.0000 </r>
       <r>  -23.0417    1.0000 </r>
       <r>  -23.0268    1.0000 </r>
       <r>  -23.0178    1.0000 </r>
       <r>  -22.9977    1.0000 </r>
       <r>  -22.9809    1.0000 </r>
       <r>    2.0457    1.0000 </r>
       <r>    3.1259    1.0000 </r>
       <r>    3.3925    1.0000 </r>
       <r>    3.9504    1.0000 </r>
       <r>    6.4730    1.0000 </r>
       <r>    6.6392    1.0000 </r>
       <r>    7.1627    1.0000 </r>
       <r>    7.4022    1.0000 </r>
       <r>    8.0452    1.0000 </r>
       <r>    8.2332    1.0000 </r>
       <r>    8.4930    1.0000 </r>
       <r>    8.5815    1.0000 </r>
       <r>    8.7540    1.0000 </r>
       <r>    8.8948    1.0000 </r>
       <r>    8.9024    1.0000 </r>
       <r>    9.2315    1.0000 </r>
       <r>    9.8596    1.0000 </r>
       <r>    9.9385    1.0000 </r>
       <r>   10.4511    1.0000 </r>
       <r>   10.5168    1.0000 </r>
       <r>   12.0255    1.0000 </r>
       <r>   12.0591    1.0000 </r>
       <r>   12.3893    1.0000 </r>
       <r>   12.5032    1.0000 </r>
       <r>   12.5841    1.0000 </r>
       <r>   12.9022    0.0000 </r>
       <r>   13.3902    0.0000 </r>
       <r>   13.4357    0.0000 </r>
       <r>   13.6560    0.0000 </r>
       <r>   13.8079    0.0000 </r>
       <r>   13.9927    0.0000 </r>
       <r>   14.4790    0.0000 </r>
       <r>   15.0247    0.0000 </r>
       <r>   15.9029    0.0000 </r>
       <r>   16.2653    0.0000 </r>
       <r>   16.4345    0.0000 </r>
      </set>
      <set comment="kpoint 5">
       <r>  -50.0603    1.0000 </r>
       <r>  -50.0601    1.0000 </r>
       <r>  -49.9129    1.0000 </r>
       <r>  -49.9113    1.0000 </r>
       <r>  -49.8929    1.0000 </r>
       <r>  -49.8915    1.0000 </r>
       <r>  -24.3660    1.0000 </r>
       <r>  -24.3659    1.0000 </r>
       <r>  -23.7617    1.0000 </r>
       <r>  -23.7615    1.0000 </r>
       <r>  -23.7134    1.0000 </r>
       <r>  -23.7133    1.0000 </r>
       <r>  -23.5926    1.0000 </r>
       <r>  -23.5920    1.0000 </r>
       <r>  -23.4795    1.0000 </r>
       <r>  -23.4782    1.0000 </r>
       <r>  -23.4000    1.0000 </r>
       <r>  -23.3994    1.0000 </r>
       <r>  -23.1026    1.0000 </r>
       <r>  -23.1025    1.0000 </r>
       <r>  -23.0284    1.0000 </r>
       <r>  -23.0266    1.0000 </r>
       <r>  -22.9960    1.0000 </r>
       <r>  -22.9940    1.0000 </r>
       <r>    2.7967    1.0000 </r>
       <r>    2.7969    1.0000 </r>
       <r>    3.5880    1.0000 </r>
       <r>    3.5882    1.0000 </r>
       <r>    7.0231    1.0000 </r>
       <r>    7.0231    1.0000 </r>
       <r>    7.3349    1.0000 </r>
       <r>    7.3351    1.0000 </r>
       <r>    7.6129    1.0000 </r>
       <r>    7.6130    1.0000 </r>
       <r>    8.6223    1.0000 </r>
       <r>    8.6230    1.0000 </r>
       <r>    8.7030    1.0000 </r>
       <r>    8.7035    1.0000 </r>
       <r>    8.9158    1.0000 </r>
       <r>    8.9158    1.0000 </r>
       <r>    9.9894    1.0000 </r>
       <r>    9.9898    1.0000 </r>
       <r>   10.0238    1.0000 </r>
       <r>   10.0242    1.0000 </r>
       <r>   12.2053    1.0000 </r>
       <r>   12.2061    1.0000 </r>
       <r>   12.6029    1.0000 </r>
       <r>   12.6038    1.0000 </r>
       <r>   13.1924    0.0000 </r>
       <r>   13.1926    0.0000 </r>
       <r>   13.3800    0.0000 </r>
       <r>   13.3800    0.0000 </r>
       <r>   13.4898    0.0000 </r>
       <r>   13.4899    0.0000 </r>
       <r>   13.6964    0.0000 </r>
       <r>   13.6965    0.0000 </r>
       <r>   15.4301    0.0000 </r>
       <r>   15.4306    0.0000 </r>
       <r>   16.4594    0.0000 </r>
       <r>   16.4993    0.0000 </r>
      </set>
      <set comment="kpoint 6">
       <r>  -50.1419    1.0000 </r>
       <r>  -49.9753    1.0000 </r>
       <r>  -49.9504    1.0000 </r>
       <r>  -49.9385    1.0000 </r>
       <r>  -49.8660    1.0000 </r>
       <r>  -49.8546    1.0000 </r>
       <r>  -24.6765    1.0000 </r>
       <r>  -24.1818    1.0000 </r>
       <r>  -24.0980    1.0000 </r>
       <r>  -24.0390    1.0000 </r>
       <r>  -23.8702    1.0000 </r>
       <r>  -23.8315    1.0000 </r>
       <r>  -23.7832    1.0000 </r>
       <r>  -23.3389    1.0000 </r>
       <r>  -23.2918    1.0000 </r>
       <r>  -23.2731    1.0000 </r>
       <r>  -23.1970    1.0000 </r>
       <r>  -23.1489    1.0000 </r>
       <r>  -23.1134    1.0000 </r>
       <r>  -23.0306    1.0000 </r>
       <r>  -23.0038    1.0000 </r>
       <r>  -22.9889    1.0000 </r>
       <r>  -22.9603    1.0000 </r>
       <r>  -22.9455    1.0000 </r>
       <r>    1.2292    1.0000 </r>
       <r>    2.5269    1.0000 </r>
       <r>    3.3285    1.0000 </r>
       <r>    4.8278    1.0000 </r>
       <r>    5.3211    1.0000 </r>
       <r>    5.7537    1.0000 </r>
       <r>    7.9543    1.0000 </r>
       <r>    7.9773    1.0000 </r>
       <r>    8.0645    1.0000 </r>
       <r>    8.1714    1.0000 </r>
       <r>    8.3124    1.0000 </r>
       <r>    8.4691    1.0000 </r>
       <r>    8.8739    1.0000 </r>
       <r>    9.1216    1.0000 </r>
       <r>    9.5633    1.0000 </r>
       <r>   10.3978    1.0000 </r>
       <r>   10.4235    1.0000 </r>
       <r>   10.8186    1.0000 </r>
       <r>   10.9563    1.0000 </r>
       <r>   11.1869    1.0000 </r>
       <r>   11.2760    1.0000 </r>
       <r>   11.6563    1.0000 </r>
       <r>   11.8672    1.0000 </r>
       <r>   12.0991    1.0000 </r>
       <r>   12.6358    1.0000 </r>
       <r>   13.0464    0.0000 </r>
       <r>   13.0914    0.0000 </r>
       <r>   13.3025    0.0000 </r>
       <r>   13.7423    0.0000 </r>
       <r>   14.0005    0.0000 </r>
       <r>   14.2033    0.0000 </r>
       <r>   15.0754    0.0000 </r>
       <r>   15.6280    0.0000 </r>
       <r>   15.9526    0.0000 </r>
       <r>   16.1865    0.0000 </r>
       <r>   16.2614    0.0000 </r>
      </set>
      <set comment="kpoint 7">
       <r>  -50.1158    1.0000 </r>
       <r>  -49.9978    1.0000 </r>
       <r>  -49.9459    1.0000 </r>
       <r>  -49.9231    1.0000 </r>
       <r>  -49.8794    1.0000 </r>
       <r>  -49.8660    1.0000 </r>
       <r>  -24.5582    1.0000 </r>
       <r>  -24.2057    1.0000 </r>
       <r>  -24.0123    1.0000 </r>
       <r>  -23.9021    1.0000 </r>
       <r>  -23.8199    1.0000 </r>
       <r>  -23.7511    1.0000 </r>
       <r>  -23.7358    1.0000 </r>
       <r>  -23.4266    1.0000 </r>
       <r>  -23.3713    1.0000 </r>
       <r>  -23.3196    1.0000 </r>
       <r>  -23.2513    1.0000 </r>
       <r>  -23.2116    1.0000 </r>
       <r>  -23.1918    1.0000 </r>
       <r>  -23.0594    1.0000 </r>
       <r>  -23.0278    1.0000 </r>
       <r>  -23.0098    1.0000 </r>
       <r>  -22.9925    1.0000 </r>
       <r>  -22.9824    1.0000 </r>
       <r>    1.7305    1.0000 </r>
       <r>    2.9007    1.0000 </r>
       <r>    3.4891    1.0000 </r>
       <r>    4.3288    1.0000 </r>
       <r>    5.7285    1.0000 </r>
       <r>    6.4197    1.0000 </r>
       <r>    7.5619    1.0000 </r>
       <r>    7.7376    1.0000 </r>
       <r>    8.0063    1.0000 </r>
       <r>    8.1503    1.0000 </r>
       <r>    8.4444    1.0000 </r>
       <r>    8.5418    1.0000 </r>
       <r>    8.6791    1.0000 </r>
       <r>    8.8127    1.0000 </r>
       <r>    9.2863    1.0000 </r>
       <r>    9.6374    1.0000 </r>
       <r>    9.8144    1.0000 </r>
       <r>   10.2477    1.0000 </r>
       <r>   10.7726    1.0000 </r>
       <r>   10.8750    1.0000 </r>
       <r>   11.7026    1.0000 </r>
       <r>   11.9060    1.0000 </r>
       <r>   12.1823    1.0000 </r>
       <r>   12.2711    1.0000 </r>
       <r>   12.5682    1.0000 </r>
       <r>   12.6196    1.0000 </r>
       <r>   13.0006    0.0000 </r>
       <r>   13.4939    0.0000 </r>
       <r>   13.9534    0.0000 </r>
       <r>   14.0557    0.0000 </r>
       <r>   14.1856    0.0000 </r>
       <r>   15.0991    0.0000 </r>
       <r>   15.3444    0.0000 </r>
       <r>   16.0763    0.0000 </r>
       <r>   16.2305    0.0000 </r>
       <r>   16.3517    0.0000 </r>
      </set>
      <set comment="kpoint 8">
       <r>  -50.0805    1.0000 </r>
       <r>  -50.0321    1.0000 </r>
       <r>  -49.9336    1.0000 </r>
       <r>  -49.9105    1.0000 </r>
       <r>  -49.8924    1.0000 </r>
       <r>  -49.8798    1.0000 </r>
       <r>  -24.4183    1.0000 </r>
       <r>  -24.2729    1.0000 </r>
       <r>  -23.8721    1.0000 </r>
       <r>  -23.7556    1.0000 </r>
       <r>  -23.7406    1.0000 </r>
       <r>  -23.6880    1.0000 </r>
       <r>  -23.6621    1.0000 </r>
       <r>  -23.5560    1.0000 </r>
       <r>  -23.5177    1.0000 </r>
       <r>  -23.3845    1.0000 </r>
       <r>  -23.3719    1.0000 </r>
       <r>  -23.2989    1.0000 </r>
       <r>  -23.1534    1.0000 </r>
       <r>  -23.0714    1.0000 </r>
       <r>  -23.0639    1.0000 </r>
       <r>  -23.0397    1.0000 </r>
       <r>  -23.0117    1.0000 </r>
       <r>  -22.9948    1.0000 </r>
       <r>    2.4172    1.0000 </r>
       <r>    3.3185    1.0000 </r>
       <r>    3.3749    1.0000 </r>
       <r>    3.8259    1.0000 </r>
       <r>    6.4277    1.0000 </r>
       <r>    7.0554    1.0000 </r>
       <r>    7.2958    1.0000 </r>
       <r>    7.3501    1.0000 </r>
       <r>    7.6733    1.0000 </r>
       <r>    8.1100    1.0000 </r>
       <r>    8.4120    1.0000 </r>
       <r>    8.4278    1.0000 </r>
       <r>    8.6114    1.0000 </r>
       <r>    8.7489    1.0000 </r>
       <r>    8.9872    1.0000 </r>
       <r>    9.1056    1.0000 </r>
       <r>    9.5951    1.0000 </r>
       <r>   10.0496    1.0000 </r>
       <r>   10.3500    1.0000 </r>
       <r>   10.4159    1.0000 </r>
       <r>   11.9402    1.0000 </r>
       <r>   12.0891    1.0000 </r>
       <r>   12.3674    1.0000 </r>
       <r>   12.5469    1.0000 </r>
       <r>   12.7069    1.0000 </r>
       <r>   12.8453    0.0000 </r>
       <r>   13.0628    0.0000 </r>
       <r>   13.6360    0.0000 </r>
       <r>   13.7647    0.0000 </r>
       <r>   13.9660    0.0000 </r>
       <r>   14.0626    0.0000 </r>
       <r>   14.1471    0.0000 </r>
       <r>   15.5008    0.0000 </r>
       <r>   15.8918    0.0000 </r>
       <r>   16.2127    0.0000 </r>
       <r>   16.3625    0.0000 </r>
      </set>
      <set comment="kpoint 9">
       <r>  -50.0708    1.0000 </r>
       <r>  -50.0410    1.0000 </r>
       <r>  -49.9246    1.0000 </r>
       <r>  -49.9175    1.0000 </r>
       <r>  -49.8991    1.0000 </r>
       <r>  -49.8760    1.0000 </r>
       <r>  -24.3813    1.0000 </r>
       <r>  -24.2970    1.0000 </r>
       <r>  -23.8121    1.0000 </r>
       <r>  -23.7757    1.0000 </r>
       <r>  -23.7386    1.0000 </r>
       <r>  -23.6695    1.0000 </r>
       <r>  -23.6503    1.0000 </r>
       <r>  -23.5480    1.0000 </r>
       <r>  -23.5034    1.0000 </r>
       <r>  -23.4709    1.0000 </r>
       <r>  -23.3634    1.0000 </r>
       <r>  -23.3299    1.0000 </r>
       <r>  -23.1289    1.0000 </r>
       <r>  -23.0945    1.0000 </r>
       <r>  -23.0631    1.0000 </r>
       <r>  -23.0417    1.0000 </r>
       <r>  -23.0269    1.0000 </r>
       <r>  -22.9851    1.0000 </r>
       <r>    2.6255    1.0000 </r>
       <r>    3.1557    1.0000 </r>
       <r>    3.4770    1.0000 </r>
       <r>    3.7839    1.0000 </r>
       <r>    6.8379    1.0000 </r>
       <r>    7.0638    1.0000 </r>
       <r>    7.1136    1.0000 </r>
       <r>    7.2408    1.0000 </r>
       <r>    7.4554    1.0000 </r>
       <r>    8.1382    1.0000 </r>
       <r>    8.3761    1.0000 </r>
       <r>    8.4946    1.0000 </r>
       <r>    8.6386    1.0000 </r>
       <r>    8.7681    1.0000 </r>
       <r>    8.8081    1.0000 </r>
       <r>    8.9892    1.0000 </r>
       <r>    9.8422    1.0000 </r>
       <r>   10.0695    1.0000 </r>
       <r>   10.1439    1.0000 </r>
       <r>   10.2759    1.0000 </r>
       <r>   11.9097    1.0000 </r>
       <r>   12.0264    1.0000 </r>
       <r>   12.3987    1.0000 </r>
       <r>   12.6902    1.0000 </r>
       <r>   12.7830    0.4280 </r>
       <r>   12.9971    0.0000 </r>
       <r>   13.1908    0.0000 </r>
       <r>   13.4894    0.0000 </r>
       <r>   13.7868    0.0000 </r>
       <r>   13.9107    0.0000 </r>
       <r>   13.9658    0.0000 </r>
       <r>   14.0100    0.0000 </r>
       <r>   15.4679    0.0000 </r>
       <r>   15.8545    0.0000 </r>
       <r>   16.0361    0.0000 </r>
       <r>   16.5070    0.0000 </r>
      </set>
      <set comment="kpoint 10">
       <r>  -50.1074    1.0000 </r>
       <r>  -50.0035    1.0000 </r>
       <r>  -49.9402    1.0000 </r>
       <r>  -49.9230    1.0000 </r>
       <r>  -49.8944    1.0000 </r>
       <r>  -49.8598    1.0000 </r>
       <r>  -24.5182    1.0000 </r>
       <r>  -24.2143    1.0000 </r>
       <r>  -23.9691    1.0000 </r>
       <r>  -23.8732    1.0000 </r>
       <r>  -23.8348    1.0000 </r>
       <r>  -23.7388    1.0000 </r>
       <r>  -23.6711    1.0000 </r>
       <r>  -23.4285    1.0000 </r>
       <r>  -23.4039    1.0000 </r>
       <r>  -23.3808    1.0000 </r>
       <r>  -23.2759    1.0000 </r>
       <r>  -23.2372    1.0000 </r>
       <r>  -23.1850    1.0000 </r>
       <r>  -23.0562    1.0000 </r>
       <r>  -23.0436    1.0000 </r>
       <r>  -23.0343    1.0000 </r>
       <r>  -23.0196    1.0000 </r>
       <r>  -22.9604    1.0000 </r>
       <r>    1.9112    1.0000 </r>
       <r>    3.0203    1.0000 </r>
       <r>    3.5255    1.0000 </r>
       <r>    4.2261    1.0000 </r>
       <r>    6.0741    1.0000 </r>
       <r>    6.4649    1.0000 </r>
       <r>    7.3877    1.0000 </r>
       <r>    7.4865    1.0000 </r>
       <r>    7.8099    1.0000 </r>
       <r>    8.3734    1.0000 </r>
       <r>    8.4869    1.0000 </r>
       <r>    8.5734    1.0000 </r>
       <r>    8.6592    1.0000 </r>
       <r>    8.7663    1.0000 </r>
       <r>    9.0214    1.0000 </r>
       <r>    9.4626    1.0000 </r>
       <r>    9.7071    1.0000 </r>
       <r>   10.2209    1.0000 </r>
       <r>   10.6194    1.0000 </r>
       <r>   10.7682    1.0000 </r>
       <r>   11.7594    1.0000 </r>
       <r>   11.8829    1.0000 </r>
       <r>   12.0428    1.0000 </r>
       <r>   12.3133    1.0000 </r>
       <r>   12.7516    0.9793 </r>
       <r>   12.8255    0.0007 </r>
       <r>   12.8901    0.0000 </r>
       <r>   13.8159    0.0000 </r>
       <r>   13.8481    0.0000 </r>
       <r>   13.9813    0.0000 </r>
       <r>   14.2210    0.0000 </r>
       <r>   14.8467    0.0000 </r>
       <r>   15.2209    0.0000 </r>
       <r>   15.8560    0.0000 </r>
       <r>   16.2656    0.0000 </r>
       <r>   16.5542    0.0000 </r>
      </set>
      <set comment="kpoint 11">
       <r>  -50.1361    1.0000 </r>
       <r>  -49.9748    1.0000 </r>
       <r>  -49.9508    1.0000 </r>
       <r>  -49.9384    1.0000 </r>
       <r>  -49.8789    1.0000 </r>
       <r>  -49.8480    1.0000 </r>
       <r>  -24.6467    1.0000 </r>
       <r>  -24.1707    1.0000 </r>
       <r>  -24.0849    1.0000 </r>
       <r>  -24.0152    1.0000 </r>
       <r>  -23.8877    1.0000 </r>
       <r>  -23.8161    1.0000 </r>
       <r>  -23.7362    1.0000 </r>
       <r>  -23.3377    1.0000 </r>
       <r>  -23.3200    1.0000 </r>
       <r>  -23.2751    1.0000 </r>
       <r>  -23.2402    1.0000 </r>
       <r>  -23.1487    1.0000 </r>
       <r>  -23.1155    1.0000 </r>
       <r>  -23.0367    1.0000 </r>
       <r>  -23.0251    1.0000 </r>
       <r>  -23.0176    1.0000 </r>
       <r>  -22.9887    1.0000 </r>
       <r>  -22.9254    1.0000 </r>
       <r>    1.3503    1.0000 </r>
       <r>    2.6129    1.0000 </r>
       <r>    3.3992    1.0000 </r>
       <r>    4.8112    1.0000 </r>
       <r>    5.5128    1.0000 </r>
       <r>    5.7467    1.0000 </r>
       <r>    7.8039    1.0000 </r>
       <r>    7.9173    1.0000 </r>
       <r>    7.9973    1.0000 </r>
       <r>    8.2031    1.0000 </r>
       <r>    8.3009    1.0000 </r>
       <r>    8.6885    1.0000 </r>
       <r>    8.7641    1.0000 </r>
       <r>    8.9323    1.0000 </r>
       <r>    9.3334    1.0000 </r>
       <r>   10.2234    1.0000 </r>
       <r>   10.3245    1.0000 </r>
       <r>   10.6848    1.0000 </r>
       <r>   10.8681    1.0000 </r>
       <r>   11.1614    1.0000 </r>
       <r>   11.5144    1.0000 </r>
       <r>   11.7205    1.0000 </r>
       <r>   11.8558    1.0000 </r>
       <r>   11.9191    1.0000 </r>
       <r>   12.3504    1.0000 </r>
       <r>   12.8081    0.0252 </r>
       <r>   13.2181    0.0000 </r>
       <r>   13.6330    0.0000 </r>
       <r>   13.9547    0.0000 </r>
       <r>   14.0384    0.0000 </r>
       <r>   14.3168    0.0000 </r>
       <r>   15.1068    0.0000 </r>
       <r>   15.6118    0.0000 </r>
       <r>   15.9730    0.0000 </r>
       <r>   16.0190    0.0000 </r>
       <r>   16.3892    0.0000 </r>
      </set>
      <set comment="kpoint 12">
       <r>  -50.1527    1.0000 </r>
       <r>  -49.9648    1.0000 </r>
       <r>  -49.9502    1.0000 </r>
       <r>  -49.9478    1.0000 </r>
       <r>  -49.8672    1.0000 </r>
       <r>  -49.8433    1.0000 </r>
       <r>  -24.7276    1.0000 </r>
       <r>  -24.1774    1.0000 </r>
       <r>  -24.1217    1.0000 </r>
       <r>  -24.1052    1.0000 </r>
       <r>  -23.9049    1.0000 </r>
       <r>  -23.8692    1.0000 </r>
       <r>  -23.7828    1.0000 </r>
       <r>  -23.2998    1.0000 </r>
       <r>  -23.2837    1.0000 </r>
       <r>  -23.2807    1.0000 </r>
       <r>  -23.1803    1.0000 </r>
       <r>  -23.0893    1.0000 </r>
       <r>  -23.0388    1.0000 </r>
       <r>  -23.0332    1.0000 </r>
       <r>  -23.0054    1.0000 </r>
       <r>  -22.9867    1.0000 </r>
       <r>  -22.9479    1.0000 </r>
       <r>  -22.9086    1.0000 </r>
       <r>    1.0263    1.0000 </r>
       <r>    2.3708    1.0000 </r>
       <r>    3.2425    1.0000 </r>
       <r>    5.1387    1.0000 </r>
       <r>    5.2073    1.0000 </r>
       <r>    5.3679    1.0000 </r>
       <r>    8.0136    1.0000 </r>
       <r>    8.0560    1.0000 </r>
       <r>    8.0638    1.0000 </r>
       <r>    8.0723    1.0000 </r>
       <r>    8.1764    1.0000 </r>
       <r>    8.5348    1.0000 </r>
       <r>    9.2782    1.0000 </r>
       <r>    9.3188    1.0000 </r>
       <r>    9.5719    1.0000 </r>
       <r>   10.7868    1.0000 </r>
       <r>   10.8370    1.0000 </r>
       <r>   10.9246    1.0000 </r>
       <r>   11.1489    1.0000 </r>
       <r>   11.2874    1.0000 </r>
       <r>   11.3324    1.0000 </r>
       <r>   11.3518    1.0000 </r>
       <r>   11.7377    1.0000 </r>
       <r>   11.7532    1.0000 </r>
       <r>   12.5190    1.0000 </r>
       <r>   12.8155    0.0066 </r>
       <r>   13.4209    0.0000 </r>
       <r>   13.4802    0.0000 </r>
       <r>   13.8943    0.0000 </r>
       <r>   14.2711    0.0000 </r>
       <r>   14.3350    0.0000 </r>
       <r>   14.8344    0.0000 </r>
       <r>   15.0938    0.0000 </r>
       <r>   16.0409    0.0000 </r>
       <r>   16.0448    0.0000 </r>
       <r>   16.3454    0.0000 </r>
      </set>
      <set comment="kpoint 13">
       <r>  -50.0877    1.0000 </r>
       <r>  -50.0138    1.0000 </r>
       <r>  -49.9514    1.0000 </r>
       <r>  -49.9105    1.0000 </r>
       <r>  -49.8924    1.0000 </r>
       <r>  -49.8731    1.0000 </r>
       <r>  -24.4336    1.0000 </r>
       <r>  -24.1966    1.0000 </r>
       <r>  -23.9706    1.0000 </r>
       <r>  -23.7763    1.0000 </r>
       <r>  -23.7532    1.0000 </r>
       <r>  -23.6835    1.0000 </r>
       <r>  -23.6673    1.0000 </r>
       <r>  -23.5599    1.0000 </r>
       <r>  -23.5351    1.0000 </r>
       <r>  -23.3321    1.0000 </r>
       <r>  -23.2912    1.0000 </r>
       <r>  -23.2003    1.0000 </r>
       <r>  -23.1860    1.0000 </r>
       <r>  -23.1322    1.0000 </r>
       <r>  -23.0971    1.0000 </r>
       <r>  -23.0335    1.0000 </r>
       <r>  -23.0293    1.0000 </r>
       <r>  -22.9961    1.0000 </r>
       <r>    2.2842    1.0000 </r>
       <r>    3.2888    1.0000 </r>
       <r>    3.6003    1.0000 </r>
       <r>    3.9803    1.0000 </r>
       <r>    5.9216    1.0000 </r>
       <r>    7.1152    1.0000 </r>
       <r>    7.3552    1.0000 </r>
       <r>    7.6655    1.0000 </r>
       <r>    7.6735    1.0000 </r>
       <r>    7.8967    1.0000 </r>
       <r>    8.1406    1.0000 </r>
       <r>    8.4677    1.0000 </r>
       <r>    8.6417    1.0000 </r>
       <r>    8.8821    1.0000 </r>
       <r>    9.0709    1.0000 </r>
       <r>    9.1791    1.0000 </r>
       <r>    9.2870    1.0000 </r>
       <r>   10.2192    1.0000 </r>
       <r>   10.6178    1.0000 </r>
       <r>   10.7212    1.0000 </r>
       <r>   11.8512    1.0000 </r>
       <r>   11.9190    1.0000 </r>
       <r>   12.0539    1.0000 </r>
       <r>   12.2854    1.0000 </r>
       <r>   12.3437    1.0000 </r>
       <r>   12.8165    0.0054 </r>
       <r>   13.0720    0.0000 </r>
       <r>   13.7323    0.0000 </r>
       <r>   13.9440    0.0000 </r>
       <r>   14.1355    0.0000 </r>
       <r>   14.2854    0.0000 </r>
       <r>   14.5271    0.0000 </r>
       <r>   15.9502    0.0000 </r>
       <r>   16.2187    0.0000 </r>
       <r>   16.3219    0.0000 </r>
       <r>   16.6255    0.0000 </r>
      </set>
      <set comment="kpoint 14">
       <r>  -50.0525    1.0000 </r>
       <r>  -50.0408    1.0000 </r>
       <r>  -49.9462    1.0000 </r>
       <r>  -49.9237    1.0000 </r>
       <r>  -49.8923    1.0000 </r>
       <r>  -49.8741    1.0000 </r>
       <r>  -24.2958    1.0000 </r>
       <r>  -24.2468    1.0000 </r>
       <r>  -23.8570    1.0000 </r>
       <r>  -23.7447    1.0000 </r>
       <r>  -23.7179    1.0000 </r>
       <r>  -23.7052    1.0000 </r>
       <r>  -23.6097    1.0000 </r>
       <r>  -23.5983    1.0000 </r>
       <r>  -23.5764    1.0000 </r>
       <r>  -23.3771    1.0000 </r>
       <r>  -23.3549    1.0000 </r>
       <r>  -23.2484    1.0000 </r>
       <r>  -23.1684    1.0000 </r>
       <r>  -23.1446    1.0000 </r>
       <r>  -23.1258    1.0000 </r>
       <r>  -23.0959    1.0000 </r>
       <r>  -23.0479    1.0000 </r>
       <r>  -22.9868    1.0000 </r>
       <r>    2.9865    1.0000 </r>
       <r>    3.3030    1.0000 </r>
       <r>    3.6663    1.0000 </r>
       <r>    3.7221    1.0000 </r>
       <r>    6.4979    1.0000 </r>
       <r>    6.8824    1.0000 </r>
       <r>    7.0682    1.0000 </r>
       <r>    7.2738    1.0000 </r>
       <r>    7.9018    1.0000 </r>
       <r>    8.0146    1.0000 </r>
       <r>    8.2246    1.0000 </r>
       <r>    8.2475    1.0000 </r>
       <r>    8.3791    1.0000 </r>
       <r>    8.6295    1.0000 </r>
       <r>    8.7564    1.0000 </r>
       <r>    8.9133    1.0000 </r>
       <r>    9.8184    1.0000 </r>
       <r>   10.2457    1.0000 </r>
       <r>   10.3866    1.0000 </r>
       <r>   10.4205    1.0000 </r>
       <r>   11.7567    1.0000 </r>
       <r>   11.8185    1.0000 </r>
       <r>   11.9319    1.0000 </r>
       <r>   12.1706    1.0000 </r>
       <r>   12.5913    1.0000 </r>
       <r>   13.1569    0.0000 </r>
       <r>   13.5643    0.0000 </r>
       <r>   13.8020    0.0000 </r>
       <r>   13.8656    0.0000 </r>
       <r>   13.9788    0.0000 </r>
       <r>   14.1077    0.0000 </r>
       <r>   14.1661    0.0000 </r>
       <r>   15.4773    0.0000 </r>
       <r>   16.0457    0.0000 </r>
       <r>   16.1558    0.0000 </r>
       <r>   16.3009    0.0000 </r>
      </set>
      <set comment="kpoint 15">
       <r>  -50.0733    1.0000 </r>
       <r>  -50.0151    1.0000 </r>
       <r>  -49.9406    1.0000 </r>
       <r>  -49.9321    1.0000 </r>
       <r>  -49.9090    1.0000 </r>
       <r>  -49.8593    1.0000 </r>
       <r>  -24.3543    1.0000 </r>
       <r>  -24.1837    1.0000 </r>
       <r>  -23.9031    1.0000 </r>
       <r>  -23.8359    1.0000 </r>
       <r>  -23.7311    1.0000 </r>
       <r>  -23.6884    1.0000 </r>
       <r>  -23.5866    1.0000 </r>
       <r>  -23.5261    1.0000 </r>
       <r>  -23.4933    1.0000 </r>
       <r>  -23.4687    1.0000 </r>
       <r>  -23.3030    1.0000 </r>
       <r>  -23.2710    1.0000 </r>
       <r>  -23.1726    1.0000 </r>
       <r>  -23.1574    1.0000 </r>
       <r>  -23.1148    1.0000 </r>
       <r>  -23.0893    1.0000 </r>
       <r>  -23.0558    1.0000 </r>
       <r>  -22.9610    1.0000 </r>
       <r>    2.6304    1.0000 </r>
       <r>    3.4191    1.0000 </r>
       <r>    3.6119    1.0000 </r>
       <r>    4.1215    1.0000 </r>
       <r>    6.3546    1.0000 </r>
       <r>    6.7820    1.0000 </r>
       <r>    6.8689    1.0000 </r>
       <r>    7.3220    1.0000 </r>
       <r>    7.5984    1.0000 </r>
       <r>    8.1471    1.0000 </r>
       <r>    8.2330    1.0000 </r>
       <r>    8.4407    1.0000 </r>
       <r>    8.4712    1.0000 </r>
       <r>    8.6221    1.0000 </r>
       <r>    8.8339    1.0000 </r>
       <r>    9.0649    1.0000 </r>
       <r>    9.8451    1.0000 </r>
       <r>   10.1493    1.0000 </r>
       <r>   10.4628    1.0000 </r>
       <r>   10.6913    1.0000 </r>
       <r>   11.6434    1.0000 </r>
       <r>   11.7197    1.0000 </r>
       <r>   11.8167    1.0000 </r>
       <r>   12.1040    1.0000 </r>
       <r>   12.8491    0.0000 </r>
       <r>   13.1433    0.0000 </r>
       <r>   13.2423    0.0000 </r>
       <r>   13.4830    0.0000 </r>
       <r>   13.8781    0.0000 </r>
       <r>   14.0231    0.0000 </r>
       <r>   14.2576    0.0000 </r>
       <r>   14.5048    0.0000 </r>
       <r>   15.2343    0.0000 </r>
       <r>   15.9087    0.0000 </r>
       <r>   16.3627    0.0000 </r>
       <r>   16.4686    0.0000 </r>
      </set>
      <set comment="kpoint 16">
       <r>  -50.1036    1.0000 </r>
       <r>  -49.9820    1.0000 </r>
       <r>  -49.9512    1.0000 </r>
       <r>  -49.9326    1.0000 </r>
       <r>  -49.9112    1.0000 </r>
       <r>  -49.8480    1.0000 </r>
       <r>  -24.4835    1.0000 </r>
       <r>  -24.1179    1.0000 </r>
       <r>  -24.0230    1.0000 </r>
       <r>  -23.8900    1.0000 </r>
       <r>  -23.8702    1.0000 </r>
       <r>  -23.6886    1.0000 </r>
[...]
       <r>    4.1452    1.0000 </r>
       <r>    5.8958    1.0000 </r>
       <r>    6.8469    1.0000 </r>
       <r>    7.3651    1.0000 </r>
       <r>    7.5236    1.0000 </r>
       <r>    7.7904    1.0000 </r>
       <r>    8.1108    1.0000 </r>
       <r>    8.3016    1.0000 </r>
       <r>    8.6206    1.0000 </r>
       <r>    8.6935    1.0000 </r>
       <r>    8.7940    1.0000 </r>
       <r>    9.1048    1.0000 </r>
       <r>    9.2606    1.0000 </r>
       <r>    9.5604    1.0000 </r>
       <r>   10.2047    1.0000 </r>
       <r>   10.6472    1.0000 </r>
       <r>   10.7731    1.0000 </r>
       <r>   11.7890    1.0000 </r>
       <r>   11.8829    1.0000 </r>
       <r>   12.0087    1.0000 </r>
       <r>   12.3492    1.0000 </r>
       <r>   12.5090    1.0000 </r>
       <r>   12.8875    0.0000 </r>
       <r>   12.9196    0.0000 </r>
       <r>   13.6602    0.0000 </r>
       <r>   14.0358    0.0000 </r>
       <r>   14.0725    0.0000 </r>
       <r>   14.2275    0.0000 </r>
       <r>   14.7348    0.0000 </r>
       <r>   15.6632    0.0000 </r>
       <r>   15.9481    0.0000 </r>
       <r>   16.2434    0.0000 </r>
       <r>   16.4680    0.0000 </r>
      </set>
      <set comment="kpoint 165">
       <r>  -50.0971    1.0000 </r>
       <r>  -49.9940    1.0000 </r>
       <r>  -49.9510    1.0000 </r>
       <r>  -49.9239    1.0000 </r>
       <r>  -49.9088    1.0000 </r>
       <r>  -49.8539    1.0000 </r>
       <r>  -24.4571    1.0000 </r>
       <r>  -24.1403    1.0000 </r>
       <r>  -24.0110    1.0000 </r>
       <r>  -23.8743    1.0000 </r>
       <r>  -23.8159    1.0000 </r>
       <r>  -23.6722    1.0000 </r>
       <r>  -23.6164    1.0000 </r>
       <r>  -23.4967    1.0000 </r>
       <r>  -23.4656    1.0000 </r>
       <r>  -23.3388    1.0000 </r>
       <r>  -23.2943    1.0000 </r>
       <r>  -23.2145    1.0000 </r>
       <r>  -23.1704    1.0000 </r>
       <r>  -23.1550    1.0000 </r>
       <r>  -23.0797    1.0000 </r>
       <r>  -23.0654    1.0000 </r>
       <r>  -23.0555    1.0000 </r>
       <r>  -22.9461    1.0000 </r>
       <r>    2.1466    1.0000 </r>
       <r>    3.1548    1.0000 </r>
       <r>    3.6981    1.0000 </r>
       <r>    4.4889    1.0000 </r>
       <r>    5.7429    1.0000 </r>
       <r>    6.5963    1.0000 </r>
       <r>    7.0305    1.0000 </r>
       <r>    7.6328    1.0000 </r>
       <r>    8.0310    1.0000 </r>
       <r>    8.0628    1.0000 </r>
       <r>    8.1247    1.0000 </r>
       <r>    8.4225    1.0000 </r>
       <r>    8.6665    1.0000 </r>
       <r>    8.7964    1.0000 </r>
       <r>    8.9704    1.0000 </r>
       <r>    9.2278    1.0000 </r>
       <r>    9.7364    1.0000 </r>
       <r>   10.2306    1.0000 </r>
       <r>   10.7750    1.0000 </r>
       <r>   11.0249    1.0000 </r>
       <r>   11.5352    1.0000 </r>
       <r>   11.6566    1.0000 </r>
       <r>   11.7802    1.0000 </r>
       <r>   12.1433    1.0000 </r>
       <r>   12.3019    1.0000 </r>
       <r>   12.9814    0.0000 </r>
       <r>   13.2442    0.0000 </r>
       <r>   13.5681    0.0000 </r>
       <r>   13.9853    0.0000 </r>
       <r>   14.0556    0.0000 </r>
       <r>   14.3954    0.0000 </r>
       <r>   14.9456    0.0000 </r>
       <r>   15.3054    0.0000 </r>
       <r>   16.0966    0.0000 </r>
       <r>   16.4778    0.0000 </r>
       <r>   16.7041    0.0000 </r>
      </set>
     </set>
    </set>
   </array>
  </eigenvalues>
  <separator name="orbital magnetization" >
   <v name="MAGDIPOLOUT">      0.00000000      0.00000000      0.00000000</v>
  </separator>
  <dos>
   <i name="efermi">     12.78043497 </i>
   <total>
    <array>
     <dimension dim="1">gridpoints</dimension>
     <dimension dim="2">spin</dimension>
     <field>energy</field>
     <field>total</field>
     <field>integrated</field>
     <set>
      <set comment="spin 1">
       <r>   -53.5658     0.0000     0.0000 </r>
       <r>   -53.3162     0.0000     0.0000 </r>
       <r>   -53.0666     0.0000     0.0000 </r>
       <r>   -52.8171     0.0000     0.0000 </r>
       <r>   -52.5675     0.0000     0.0000 </r>
       <r>   -52.3179     0.0000     0.0000 </r>
       <r>   -52.0683     0.0000     0.0000 </r>
       <r>   -51.8188     0.0000     0.0000 </r>
       <r>   -51.5692     0.0000     0.0000 </r>
       <r>   -51.3196     0.0000     0.0000 </r>
       <r>   -51.0700     0.0000     0.0000 </r>
       <r>   -50.8205     0.0000     0.0000 </r>
       <r>   -50.5709     0.0000     0.0000 </r>
       <r>   -50.3213     0.0000     0.0000 </r>
       <r>   -50.0717     4.7158     1.1769 </r>
       <r>   -49.8222    33.4849    11.9820 </r>
       <r>   -49.5726     0.0000    12.0000 </r>
       <r>   -49.3230     0.0000    12.0000 </r>
       <r>   -49.0734     0.0000    12.0000 </r>
       <r>   -48.8238     0.0000    12.0000 </r>
       <r>   -48.5743     0.0000    12.0000 </r>
       <r>   -48.3247     0.0000    12.0000 </r>
       <r>   -48.0751     0.0000    12.0000 </r>
       <r>   -47.8255     0.0000    12.0000 </r>
       <r>   -47.5760     0.0000    12.0000 </r>
       <r>   -47.3264     0.0000    12.0000 </r>
       <r>   -47.0768     0.0000    12.0000 </r>
       <r>   -46.8272     0.0000    12.0000 </r>
       <r>   -46.5777     0.0000    12.0000 </r>
       <r>   -46.3281     0.0000    12.0000 </r>
       <r>   -46.0785     0.0000    12.0000 </r>
       <r>   -45.8289     0.0000    12.0000 </r>
       <r>   -45.5794     0.0000    12.0000 </r>
       <r>   -45.3298     0.0000    12.0000 </r>
       <r>   -45.0802     0.0000    12.0000 </r>
       <r>   -44.8306     0.0000    12.0000 </r>
       <r>   -44.5811     0.0000    12.0000 </r>
       <r>   -44.3315     0.0000    12.0000 </r>
       <r>   -44.0819     0.0000    12.0000 </r>
       <r>   -43.8323     0.0000    12.0000 </r>
       <r>   -43.5827     0.0000    12.0000 </r>
       <r>   -43.3332     0.0000    12.0000 </r>
       <r>   -43.0836     0.0000    12.0000 </r>
       <r>   -42.8340     0.0000    12.0000 </r>
       <r>   -42.5844     0.0000    12.0000 </r>
       <r>   -42.3349     0.0000    12.0000 </r>
       <r>   -42.0853     0.0000    12.0000 </r>
       <r>   -41.8357     0.0000    12.0000 </r>
       <r>   -41.5861     0.0000    12.0000 </r>
       <r>   -41.3366     0.0000    12.0000 </r>
       <r>   -41.0870     0.0000    12.0000 </r>
       <r>   -40.8374     0.0000    12.0000 </r>
       <r>   -40.5878     0.0000    12.0000 </r>
       <r>   -40.3383     0.0000    12.0000 </r>
       <r>   -40.0887     0.0000    12.0000 </r>
       <r>   -39.8391     0.0000    12.0000 </r>
       <r>   -39.5895     0.0000    12.0000 </r>
       <r>   -39.3400     0.0000    12.0000 </r>
       <r>   -39.0904     0.0000    12.0000 </r>
       <r>   -38.8408     0.0000    12.0000 </r>
       <r>   -38.5912     0.0000    12.0000 </r>
       <r>   -38.3416     0.0000    12.0000 </r>
       <r>   -38.0921     0.0000    12.0000 </r>
       <r>   -37.8425     0.0000    12.0000 </r>
       <r>   -37.5929     0.0000    12.0000 </r>
       <r>   -37.3433     0.0000    12.0000 </r>
       <r>   -37.0938     0.0000    12.0000 </r>
       <r>   -36.8442     0.0000    12.0000 </r>
       <r>   -36.5946     0.0000    12.0000 </r>
       <r>   -36.3450     0.0000    12.0000 </r>
       <r>   -36.0955     0.0000    12.0000 </r>
       <r>   -35.8459     0.0000    12.0000 </r>
       <r>   -35.5963     0.0000    12.0000 </r>
       <r>   -35.3467     0.0000    12.0000 </r>
       <r>   -35.0972     0.0000    12.0000 </r>
       <r>   -34.8476     0.0000    12.0000 </r>
       <r>   -34.5980     0.0000    12.0000 </r>
       <r>   -34.3484     0.0000    12.0000 </r>
       <r>   -34.0989     0.0000    12.0000 </r>
       <r>   -33.8493     0.0000    12.0000 </r>
       <r>   -33.5997     0.0000    12.0000 </r>
       <r>   -33.3501     0.0000    12.0000 </r>
       <r>   -33.1005     0.0000    12.0000 </r>
       <r>   -32.8510     0.0000    12.0000 </r>
       <r>   -32.6014     0.0000    12.0000 </r>
       <r>   -32.3518     0.0000    12.0000 </r>
       <r>   -32.1022     0.0000    12.0000 </r>
       <r>   -31.8527     0.0000    12.0000 </r>
       <r>   -31.6031     0.0000    12.0000 </r>
       <r>   -31.3535     0.0000    12.0000 </r>
       <r>   -31.1039     0.0000    12.0000 </r>
       <r>   -30.8544     0.0000    12.0000 </r>
       <r>   -30.6048     0.0000    12.0000 </r>
       <r>   -30.3552     0.0000    12.0000 </r>
       <r>   -30.1056     0.0000    12.0000 </r>
       <r>   -29.8561     0.0000    12.0000 </r>
       <r>   -29.6065     0.0000    12.0000 </r>
       <r>   -29.3569     0.0000    12.0000 </r>
       <r>   -29.1073     0.0000    12.0000 </r>
       <r>   -28.8578     0.0000    12.0000 </r>
       <r>   -28.6082     0.0000    12.0000 </r>
       <r>   -28.3586     0.0000    12.0000 </r>
       <r>   -28.1090     0.0000    12.0000 </r>
       <r>   -27.8594     0.0000    12.0000 </r>
       <r>   -27.6099     0.0000    12.0000 </r>
       <r>   -27.3603     0.0000    12.0000 </r>
       <r>   -27.1107     0.0000    12.0000 </r>
       <r>   -26.8611     0.0000    12.0000 </r>
       <r>   -26.6116     0.0000    12.0000 </r>
       <r>   -26.3620     0.0000    12.0000 </r>
       <r>   -26.1124     0.0000    12.0000 </r>
       <r>   -25.8628     0.0000    12.0000 </r>
       <r>   -25.6133     0.0000    12.0000 </r>
       <r>   -25.3637     0.0000    12.0000 </r>
       <r>   -25.1141     0.0000    12.0000 </r>
       <r>   -24.8645     0.0000    12.0000 </r>
       <r>   -24.6150     0.8261    12.2096 </r>
       <r>   -24.3654     2.6745    13.1085 </r>
       <r>   -24.1158     7.6104    15.6771 </r>
       <r>   -23.8662     8.2781    18.5903 </r>
       <r>   -23.6167    17.8782    25.2154 </r>
       <r>   -23.3671    14.6978    31.0432 </r>
       <r>   -23.1175    21.7184    39.5315 </r>
       <r>   -22.8679    14.1764    47.9999 </r>
       <r>   -22.6183     0.0000    48.0000 </r>
       <r>   -22.3688     0.0000    48.0000 </r>
       <r>   -22.1192     0.0000    48.0000 </r>
       <r>   -21.8696     0.0000    48.0000 </r>
       <r>   -21.6200     0.0000    48.0000 </r>
       <r>   -21.3705     0.0000    48.0000 </r>
       <r>   -21.1209     0.0000    48.0000 </r>
       <r>   -20.8713     0.0000    48.0000 </r>
       <r>   -20.6217     0.0000    48.0000 </r>
       <r>   -20.3722     0.0000    48.0000 </r>
       <r>   -20.1226     0.0000    48.0000 </r>
       <r>   -19.8730     0.0000    48.0000 </r>
       <r>   -19.6234     0.0000    48.0000 </r>
       <r>   -19.3739     0.0000    48.0000 </r>
       <r>   -19.1243     0.0000    48.0000 </r>
       <r>   -18.8747     0.0000    48.0000 </r>
       <r>   -18.6251     0.0000    48.0000 </r>
       <r>   -18.3756     0.0000    48.0000 </r>
       <r>   -18.1260     0.0000    48.0000 </r>
       <r>   -17.8764     0.0000    48.0000 </r>
       <r>   -17.6268     0.0000    48.0000 </r>
       <r>   -17.3772     0.0000    48.0000 </r>
       <r>   -17.1277     0.0000    48.0000 </r>
       <r>   -16.8781     0.0000    48.0000 </r>
       <r>   -16.6285     0.0000    48.0000 </r>
       <r>   -16.3789     0.0000    48.0000 </r>
       <r>   -16.1294     0.0000    48.0000 </r>
       <r>   -15.8798     0.0000    48.0000 </r>
       <r>   -15.6302     0.0000    48.0000 </r>
       <r>   -15.3806     0.0000    48.0000 </r>
       <r>   -15.1311     0.0000    48.0000 </r>
       <r>   -14.8815     0.0000    48.0000 </r>
       <r>   -14.6319     0.0000    48.0000 </r>
       <r>   -14.3823     0.0000    48.0000 </r>
       <r>   -14.1328     0.0000    48.0000 </r>
       <r>   -13.8832     0.0000    48.0000 </r>
       <r>   -13.6336     0.0000    48.0000 </r>
       <r>   -13.3840     0.0000    48.0000 </r>
       <r>   -13.1345     0.0000    48.0000 </r>
       <r>   -12.8849     0.0000    48.0000 </r>
       <r>   -12.6353     0.0000    48.0000 </r>
       <r>   -12.3857     0.0000    48.0000 </r>
       <r>   -12.1361     0.0000    48.0000 </r>
       <r>   -11.8866     0.0000    48.0000 </r>
       <r>   -11.6370     0.0000    48.0000 </r>
       <r>   -11.3874     0.0000    48.0000 </r>
       <r>   -11.1378     0.0000    48.0000 </r>
       <r>   -10.8883     0.0000    48.0000 </r>
       <r>   -10.6387     0.0000    48.0000 </r>
       <r>   -10.3891     0.0000    48.0000 </r>
       <r>   -10.1395     0.0000    48.0000 </r>
       <r>    -9.8900     0.0000    48.0000 </r>
       <r>    -9.6404     0.0000    48.0000 </r>
       <r>    -9.3908     0.0000    48.0000 </r>
       <r>    -9.1412     0.0000    48.0000 </r>
       <r>    -8.8917     0.0000    48.0000 </r>
       <r>    -8.6421     0.0000    48.0000 </r>
       <r>    -8.3925     0.0000    48.0000 </r>
       <r>    -8.1429     0.0000    48.0000 </r>
       <r>    -7.8934     0.0000    48.0000 </r>
       <r>    -7.6438     0.0000    48.0000 </r>
       <r>    -7.3942     0.0000    48.0000 </r>
       <r>    -7.1446     0.0000    48.0000 </r>
       <r>    -6.8950     0.0000    48.0000 </r>
       <r>    -6.6455     0.0000    48.0000 </r>
       <r>    -6.3959     0.0000    48.0000 </r>
       <r>    -6.1463     0.0000    48.0000 </r>
       <r>    -5.8967     0.0000    48.0000 </r>
       <r>    -5.6472     0.0000    48.0000 </r>
       <r>    -5.3976     0.0000    48.0000 </r>
       <r>    -5.1480     0.0000    48.0000 </r>
       <r>    -4.8984     0.0000    48.0000 </r>
       <r>    -4.6489     0.0000    48.0000 </r>
       <r>    -4.3993     0.0000    48.0000 </r>
       <r>    -4.1497     0.0000    48.0000 </r>
       <r>    -3.9001     0.0000    48.0000 </r>
       <r>    -3.6506     0.0000    48.0000 </r>
       <r>    -3.4010     0.0000    48.0000 </r>
       <r>    -3.1514     0.0000    48.0000 </r>
       <r>    -2.9018     0.0000    48.0000 </r>
       <r>    -2.6523     0.0000    48.0000 </r>
       <r>    -2.4027     0.0000    48.0000 </r>
       <r>    -2.1531     0.0000    48.0000 </r>
       <r>    -1.9035     0.0000    48.0000 </r>
       <r>    -1.6539     0.0000    48.0000 </r>
       <r>    -1.4044     0.0000    48.0000 </r>
       <r>    -1.1548     0.0000    48.0000 </r>
       <r>    -0.9052     0.0000    48.0000 </r>
       <r>    -0.6556     0.0000    48.0000 </r>
       <r>    -0.4061     0.0000    48.0000 </r>
       <r>    -0.1565     0.0000    48.0000 </r>
       <r>     0.0931     0.0000    48.0000 </r>
       <r>     0.3427     0.0000    48.0000 </r>
       <r>     0.5922     0.0000    48.0000 </r>
       <r>     0.8418     0.0092    48.0023 </r>
       <r>     1.0914     0.1947    48.0521 </r>
       <r>     1.3410     0.2896    48.1452 </r>
       <r>     1.5905     0.1468    48.2484 </r>
       <r>     1.8401     0.5399    48.4299 </r>
       <r>     2.0897     0.4039    48.6043 </r>
       <r>     2.3393     0.8198    48.8678 </r>
       <r>     2.5888     1.0425    49.2185 </r>
       <r>     2.8384     1.2192    49.6793 </r>
       <r>     3.0880     1.8538    50.3759 </r>
       <r>     3.3376     2.9477    51.2912 </r>
       <r>     3.5872     4.1917    52.8205 </r>
       <r>     3.8367     3.3288    54.2440 </r>
       <r>     4.0863     1.5055    54.8931 </r>
       <r>     4.3359     1.1244    55.3154 </r>
       <r>     4.5855     0.6695    55.5282 </r>
       <r>     4.8350     0.9356    55.8377 </r>
       <r>     5.0846     0.1397    55.9376 </r>
       <r>     5.3342     0.4773    56.0844 </r>
       <r>     5.5838     0.6291    56.2959 </r>
       <r>     5.8333     1.1088    56.7142 </r>
       <r>     6.0829     1.5578    57.2256 </r>
       <r>     6.3325     1.6269    57.8609 </r>
       <r>     6.5821     2.5190    58.8197 </r>
       <r>     6.8316     2.4846    59.7069 </r>
       <r>     7.0812     3.7293    61.1564 </r>
       <r>     7.3308     2.5449    62.2081 </r>
       <r>     7.5804     1.8269    63.0566 </r>
       <r>     7.8299     3.2550    64.4304 </r>
       <r>     8.0795     7.3227    66.7373 </r>
       <r>     8.3291     8.9171    69.9859 </r>
       <r>     8.5787     8.9611    73.1740 </r>
       <r>     8.8283     8.3150    76.5023 </r>
       <r>     9.0778     4.2051    78.2266 </r>
       <r>     9.3274     1.7606    79.0470 </r>
       <r>     9.5770     1.7601    79.7344 </r>
       <r>     9.8266     2.1369    80.6375 </r>
       <r>    10.0761     3.5528    81.9249 </r>
       <r>    10.3257     4.9108    83.6492 </r>
       <r>    10.5753     3.4559    85.1924 </r>
       <r>    10.8249     3.8510    86.5479 </r>
       <r>    11.0744     2.4629    87.6216 </r>
       <r>    11.3240     1.6108    88.2666 </r>
       <r>    11.5736     3.5068    89.2780 </r>
       <r>    11.8232     6.5052    91.8874 </r>
       <r>    12.0727     5.1841    94.0369 </r>
       <r>    12.3223     3.3302    95.4909 </r>
       <r>    12.5719     2.6758    96.6539 </r>
       <r>    12.8215     4.2343    98.2512 </r>
       <r>    13.0710     3.6675    99.6410 </r>
       <r>    13.3206     4.1344   101.3096 </r>
       <r>    13.5702     4.6095   102.9942 </r>
       <r>    13.8198     4.5446   104.7905 </r>
       <r>    14.0694     9.2049   107.9640 </r>
       <r>    14.3189     5.1804   110.0915 </r>
       <r>    14.5685     2.4081   111.1114 </r>
       <r>    14.8181     1.2853   111.6923 </r>
       <r>    15.0677     1.5053   112.1882 </r>
       <r>    15.3172     1.6821   112.7913 </r>
       <r>    15.5668     1.5671   113.4293 </r>
       <r>    15.8164     2.5024   114.3155 </r>
       <r>    16.0660     5.2445   115.9617 </r>
       <r>    16.3155     5.1643   117.9521 </r>
       <r>    16.5651     3.3047   119.3352 </r>
       <r>    16.8147     0.6289   119.6292 </r>
       <r>    17.0643     0.3774   119.7817 </r>
       <r>    17.3138     0.1676   119.8543 </r>
       <r>    17.5634     0.0999   119.8930 </r>
       <r>    17.8130     0.2745   119.9713 </r>
       <r>    18.0626     0.0139   120.0000 </r>
       <r>    18.3121     0.0000   120.0000 </r>
       <r>    18.5617     0.0000   120.0000 </r>
       <r>    18.8113     0.0000   120.0000 </r>
       <r>    19.0609     0.0000   120.0000 </r>
       <r>    19.3105     0.0000   120.0000 </r>
       <r>    19.5600     0.0000   120.0000 </r>
       <r>    19.8096     0.0000   120.0000 </r>
       <r>    20.0592     0.0000   120.0000 </r>
       <r>    20.3088     0.0000   120.0000 </r>
       <r>    20.5583     0.0000   120.0000 </r>
       <r>    20.8079     0.0000   120.0000 </r>
       <r>    21.0575     0.0000   120.0000 </r>
       <r>    21.3071     0.0000   120.0000 </r>
      </set>
     </set>
    </array>
   </total>
  </dos>
 </calculation>
 <structure name="finalpos" >
  <crystal>
   <varray name="basis" >
    <v>       4.87398783       0.00000000      -2.69813812 </v>
    <v>      -1.69331161       4.57038873      -2.69813812 </v>
    <v>       0.00000000       0.00000000       5.57097000 </v>
   </varray>
   <i name="volume">    124.09903408 </i>
   <varray name="rec_basis" >
    <v>       0.20517080       0.07601500       0.00000000 </v>
    <v>       0.00000000       0.21879977       0.00000000 </v>
    <v>       0.09936854       0.14278500       0.17950195 </v>
   </varray>
  </crystal>
  <varray name="positions" >
   <v>       0.50000000       0.00000000       0.50000000 </v>
   <v>       0.00000000       0.50000000       0.50000000 </v>
   <v>       0.25674000       0.24326000       0.50000000 </v>
   <v>       0.25000000       0.75000000       0.50000000 </v>
   <v>       0.74326000       0.75674000       0.50000000 </v>
   <v>       0.75000000       0.25000000       0.50000000 </v>
   <v>       0.24326000       0.74326000       0.98651000 </v>
   <v>       0.75674000       0.25674000       0.01349000 </v>
   <v>       0.25000000       0.25000000       0.00000000 </v>
   <v>       0.75000000       0.75000000       0.00000000 </v>
  </varray>
 </structure>
</modeling>
