 vasp.6.2.0 18Jan21 (build Jan 05 2022 15:41:44) complex                        
  
 executed on             LinuxIFC date 2025.05.07  16:21:18
 running on   24 total cores
 distrk:  each k-point on   12 cores,    2 groups
 distr:  one band on NCORE=   2 cores,    6 groups


--------------------------------------------------------------------------------------------------------


 INCAR:
   SYSTEM = routine with relax: pwdword
   ICHARG = 2
   NPAR = 6
   KPAR = 2
   NCORE = 2
   ADDGRID = T
   PREC = Acc
   ENCUT = 600
   METAGGA = R2SCAN
   LASPH = .TRUE.
   LMIXTAU = .FALSE.
   ALGO = A
   EDIFF = 1E-9
   NELM = 100
   NELMIN = 6
   IALGO = 38
   LREAL = F
   NSW = 0
   ISIF = -1
   ISMEAR = 0
   SIGMA = 0.02
   SYMPREC = 1E-4

 POTCAR:    PAW_PBE B 06Sep2000                   
 POTCAR:    PAW_PBE Mo_sv 02Feb2006               
 POTCAR:    PAW_PBE Si 05Jan2001                  
 -----------------------------------------------------------------------------
|                                                                             |
|           W    W    AA    RRRRR   N    N  II  N    N   GGGG   !!!           |
|           W    W   A  A   R    R  NN   N  II  NN   N  G    G  !!!           |
|           W    W  A    A  R    R  N N  N  II  N N  N  G       !!!           |
|           W WW W  AAAAAA  RRRRR   N  N N  II  N  N N  G  GGG   !            |
|           WW  WW  A    A  R   R   N   NN  II  N   NN  G    G                |
|           W    W  A    A  R    R  N    N  II  N    N   GGGG   !!!           |
|                                                                             |
|     For optimal performance we recommend to set                             |
|       NCORE = 2 up to number-of-cores-per-socket                            |
|     NCORE specifies how many cores store one orbital (NPAR=cpu/NCORE).      |
|     This setting can greatly improve the performance of VASP for DFT.       |
|     The default, NCORE=1 might be grossly inefficient on modern             |
|     multi-core architectures or massively parallel machines. Do your        |
|     own testing! More info at https://www.vasp.at/wiki/index.php/NCORE      |
|     Unfortunately you need to use the default for GW and RPA                |
|     calculations (for HF NCORE is supported but not extensively tested      |
|     yet).                                                                   |
|                                                                             |
 -----------------------------------------------------------------------------

 POTCAR:    PAW_PBE B 06Sep2000                   
   VRHFIN =B: s2p1                                                                                  
   LEXCH  = PE                                                                                      
   EATOM  =    71.1703 eV,    5.2309 Ry                                                             
                                                                                                    
   TITEL  = PAW_PBE B 06Sep2000                                                                     
   LULTRA =        F    use ultrasoft PP ?                                                          
   IUNSCR =        1    unscreen: 0-lin 1-nonlin 2-no                                               
   RPACOR =    1.200    partial core radius                                                         
   POMASS =   10.811; ZVAL   =    3.000    mass and valenz                                          
   RCORE  =    1.700    outmost cutoff radius                                                       
   RWIGS  =    1.710; RWIGS  =    0.905    wigner-seitz radius (au A)                               
   ENMAX  =  318.614; ENMIN  =  238.960 eV                                                          
   ICORE  =        2    local potential                                                             
   LCOR   =        T    correct aug charges                                                         
   LPAW   =        T    paw PP                                                                      
   EAUG   =  535.514                                                                                
   DEXC   =    0.000                                                                                
   RMAX   =    1.732    core radius for proj-oper                                                   
   RAUG   =    1.300    factor for augmentation sphere                                              
   RDEP   =    1.757    radius for radial grids                                                     
   RDEPT  =    1.436    core radius for aug-charge                                                  
                                                                                                    
   Atomic configuration                                                                             
    4 entries                                                                                       
     n  l   j            E        occ.                                                              
     1  0  0.50      -180.5896   2.0000                                                             
     2  0  0.50        -9.4431   2.0000                                                             
     2  1  0.50        -3.6068   1.0000                                                             
     3  2  1.50        -4.0817   0.0000                                                             
   Description                                                                                      
     l       E           TYP  RCUT    TYP  RCUT                                                     
     0     -9.4430752     23  1.500                                                                 
     0      0.8675899     23  1.500                                                                 
     1     -3.6067955     23  1.700                                                                 
     1      6.1086146     23  1.700                                                                 
     2     -4.0817478      7  1.700                                                                 
  local pseudopotential read in
  partial core-charges read in
  partial kinetic energy density read in
  atomic valenz-charges read in
  non local Contribution for L=           0  read in
    real space projection operators read in
  non local Contribution for L=           0  read in
    real space projection operators read in
  non local Contribution for L=           1  read in
    real space projection operators read in
  non local Contribution for L=           1  read in
    real space projection operators read in
    PAW grid and wavefunctions read in
 
   number of l-projection  operators is LMAX  =           4
   number of lm-projection operators is LMMAX =           8
 
 POTCAR:    PAW_PBE Mo_sv 02Feb2006               
   VRHFIN =Mo: 4p5s4d                                                                               
   LEXCH  = PE                                                                                      
   EATOM  =  1862.2866 eV,  136.8742 Ry                                                             
                                                                                                    
   TITEL  = PAW_PBE Mo_sv 02Feb2006                                                                 
   LULTRA =        F    use ultrasoft PP ?                                                          
   IUNSCR =        1    unscreen: 0-lin 1-nonlin 2-no                                               
   RPACOR =    2.200    partial core radius                                                         
   POMASS =   95.940; ZVAL   =   14.000    mass and valenz                                          
   RCORE  =    2.500    outmost cutoff radius                                                       
   RWIGS  =    2.750; RWIGS  =    1.455    wigner-seitz radius (au A)                               
   ENMAX  =  242.676; ENMIN  =  182.007 eV                                                          
   ICORE  =        3    local potential                                                             
   LCOR   =        T    correct aug charges                                                         
   LPAW   =        T    paw PP                                                                      
   EAUG   =  446.014                                                                                
   DEXC   =    0.000                                                                                
   RMAX   =    2.563    core radius for proj-oper                                                   
   RAUG   =    1.300    factor for augmentation sphere                                              
   RDEP   =    2.641    radius for radial grids                                                     
   RDEPT  =    2.031    core radius for aug-charge                                                  
                                                                                                    
   Atomic configuration                                                                             
   11 entries                                                                                       
     n  l   j            E        occ.                                                              
     1  0  0.50    -19819.0341   2.0000                                                             
     2  0  0.50     -2799.0127   2.0000                                                             
     2  1  1.50     -2502.0276   6.0000                                                             
     3  0  0.50      -476.4449   2.0000                                                             
     3  1  1.50      -379.1496   6.0000                                                             
     3  2  2.50      -220.9367  10.0000                                                             
     4  0  0.50       -64.3378   2.0000                                                             
     5  0  0.50        -4.0862   1.0000                                                             
     4  1  1.50       -38.4773   6.0000                                                             
     4  2  2.50        -3.7535   5.0000                                                             
     4  3  2.50        -1.3606   0.0000                                                             
   Description                                                                                      
     l       E           TYP  RCUT    TYP  RCUT                                                     
     0    -64.3377829     23  2.100                                                                 
     0     -4.0861640     23  2.400                                                                 
     1    -38.4772993     23  2.100                                                                 
     1     13.6058260     23  2.100                                                                 
     2     -3.7534941     23  2.400                                                                 
     2     -5.1140767     23  2.400                                                                 
     3     -4.0817478     23  2.500                                                                 
  local pseudopotential read in
  partial core-charges read in
  partial kinetic energy density read in
  atomic valenz-charges read in
  non local Contribution for L=           0  read in
    real space projection operators read in
  non local Contribution for L=           0  read in
    real space projection operators read in
  non local Contribution for L=           1  read in
    real space projection operators read in
  non local Contribution for L=           1  read in
    real space projection operators read in
  non local Contribution for L=           2  read in
    real space projection operators read in
  non local Contribution for L=           2  read in
    real space projection operators read in
    PAW grid and wavefunctions read in
 
   number of l-projection  operators is LMAX  =           6
   number of lm-projection operators is LMMAX =          18
 
 POTCAR:    PAW_PBE Si 05Jan2001                  
   VRHFIN =Si: s2p2                                                                                 
   LEXCH  = PE                                                                                      
   EATOM  =   103.0669 eV,    7.5752 Ry                                                             
                                                                                                    
   TITEL  = PAW_PBE Si 05Jan2001                                                                    
   LULTRA =        F    use ultrasoft PP ?                                                          
   IUNSCR =        1    unscreen: 0-lin 1-nonlin 2-no                                               
   RPACOR =    1.500    partial core radius                                                         
   POMASS =   28.085; ZVAL   =    4.000    mass and valenz                                          
   RCORE  =    1.900    outmost cutoff radius                                                       
   RWIGS  =    2.480; RWIGS  =    1.312    wigner-seitz radius (au A)                               
   ENMAX  =  245.345; ENMIN  =  184.009 eV                                                          
   ICORE  =        2    local potential                                                             
   LCOR   =        T    correct aug charges                                                         
   LPAW   =        T    paw PP                                                                      
   EAUG   =  322.069                                                                                
   DEXC   =    0.000                                                                                
   RMAX   =    1.950    core radius for proj-oper                                                   
   RAUG   =    1.300    factor for augmentation sphere                                              
   RDEP   =    1.993    radius for radial grids                                                     
   RDEPT  =    1.837    core radius for aug-charge                                                  
                                                                                                    
   Atomic configuration                                                                             
    6 entries                                                                                       
     n  l   j            E        occ.                                                              
     1  0  0.50     -1785.8828   2.0000                                                             
     2  0  0.50      -139.4969   2.0000                                                             
     2  1  1.50       -95.5546   6.0000                                                             
     3  0  0.50       -10.8127   2.0000                                                             
     3  1  0.50        -4.0811   2.0000                                                             
     3  2  1.50        -4.0817   0.0000                                                             
   Description                                                                                      
     l       E           TYP  RCUT    TYP  RCUT                                                     
     0    -10.8127223     23  1.900                                                                 
     0     -7.6451159     23  1.900                                                                 
     1     -4.0811372     23  1.900                                                                 
     1      2.4879257     23  1.900                                                                 
     2     -4.0817478      7  1.900                                                                 
  local pseudopotential read in
  partial core-charges read in
  partial kinetic energy density read in
  atomic valenz-charges read in
  non local Contribution for L=           0  read in
    real space projection operators read in
  non local Contribution for L=           0  read in
    real space projection operators read in
  non local Contribution for L=           1  read in
    real space projection operators read in
  non local Contribution for L=           1  read in
    real space projection operators read in
    PAW grid and wavefunctions read in
 
   number of l-projection  operators is LMAX  =           4
   number of lm-projection operators is LMMAX =           8
 
  PAW_PBE B 06Sep2000                   :
 energy of atom  1       EATOM=  -71.1703
 kinetic energy error for atom=    0.0007 (will be added to EATOM!!)
  PAW_PBE Mo_sv 02Feb2006               :
 energy of atom  2       EATOM=-1862.2866
 kinetic energy error for atom=    0.0041 (will be added to EATOM!!)
  PAW_PBE Si 05Jan2001                  :
 energy of atom  3       EATOM= -103.0669
 kinetic energy error for atom=    0.0003 (will be added to EATOM!!)
 
 
 POSCAR: EA56
  positions in direct lattice
  No initial velocities read in

 METAGGA = R2SCA    LMAXTAU =  6    LMIXTAU =  F

 exchange correlation table for  LEXCH =        8
   RHO(1)=    0.500       N(1)  =     2000
   RHO(2)=  100.500       N(2)  =     4000
 


--------------------------------------------------------------------------------------------------------


 ion  position               nearest neighbor table
   1  0.500  0.500  0.500-   9 1.98  10 1.98   7 1.98   5 1.98  14 1.98  13 1.98
   2  0.500  0.000  0.000-   6 1.98   8 1.98   7 1.98   5 1.98  11 1.98  12 1.98
   3  0.000  0.000  0.500-   9 1.98  10 1.98   5 1.98   7 1.98  14 1.98  13 1.98
   4  0.000  0.500  0.000-   6 1.98   8 1.98   7 1.98   5 1.98  11 1.98  12 1.98
   5  0.250  0.250  0.000-   2 1.98   4 1.98   1 1.98   3 1.98   8 2.80   6 2.80  10 2.80  10 2.80
                             8 2.80   6 2.80   9 2.80   9 2.80  11 2.81  12 2.81  13 2.81  13 2.81
   6  0.245  0.745  0.991-  12 0.16   4 1.98   2 1.98  13 2.69  14 2.69   7 2.80   5 2.80   5 2.80
                             7 2.80   9 2.81  10 2.81  10 2.81   9 2.81  14 2.92  13 2.92
   7  0.750  0.750  0.000-   2 1.98   4 1.98   3 1.98   1 1.98   8 2.80   6 2.80   9 2.80   9 2.80
                             8 2.80   6 2.80  10 2.80  10 2.80  11 2.81  12 2.81  14 2.81  14 2.81
   8  0.755  0.255  0.009-  11 0.16   4 1.98   2 1.98  14 2.69  13 2.69   7 2.80   5 2.80   7 2.80
                             5 2.80  10 2.81   9 2.81   9 2.81  10 2.81  14 2.92  13 2.92
   9  0.745  0.755  0.500-  14 0.16   1 1.98   3 1.98  12 2.69  11 2.69   7 2.80   7 2.80   5 2.80
                             5 2.80   6 2.81   8 2.81   8 2.81   6 2.81  11 2.92  12 2.92
  10  0.255  0.245  0.500-  13 0.16   1 1.98   3 1.98  12 2.69  11 2.69   5 2.80   5 2.80   7 2.80
                             7 2.80   8 2.81   6 2.81   8 2.81   6 2.81  12 2.92  11 2.92
  11  0.734  0.234  0.969-   8 0.16   2 1.98   4 1.98   9 2.69  10 2.69   7 2.81   5 2.81   7 2.81
                             5 2.81  14 2.81  13 2.81  14 2.81  13 2.81  10 2.92   9 2.92
  12  0.266  0.766  0.031-   6 0.16   2 1.98   4 1.98   9 2.69  10 2.69   5 2.81   7 2.81   5 2.81
                             7 2.81  13 2.81  14 2.81  13 2.81  14 2.81   9 2.92  10 2.92
  13  0.234  0.266  0.500-  10 0.16   1 1.98   3 1.98   6 2.69   8 2.69   5 2.81   5 2.81   7 2.81
                             7 2.81  12 2.81  11 2.81  12 2.81  11 2.81   8 2.92   6 2.92
  14  0.766  0.734  0.500-   9 0.16   1 1.98   3 1.98   8 2.69   6 2.69   7 2.81   7 2.81   5 2.81
                             5 2.81  12 2.81  11 2.81  12 2.81  11 2.81   8 2.92   6 2.92
 
 -----------------------------------------------------------------------------
|                                                                             |
|           W    W    AA    RRRRR   N    N  II  N    N   GGGG   !!!           |
|           W    W   A  A   R    R  NN   N  II  NN   N  G    G  !!!           |
|           W    W  A    A  R    R  N N  N  II  N N  N  G       !!!           |
|           W WW W  AAAAAA  RRRRR   N  N N  II  N  N N  G  GGG   !            |
|           WW  WW  A    A  R   R   N   NN  II  N   NN  G    G                |
|           W    W  A    A  R    R  N    N  II  N    N   GGGG   !!!           |
|                                                                             |
|     The distance between some ions is very small. Please check the          |
|     nearest-neighbor list in the OUTCAR file.                               |
|     I HOPE YOU KNOW WHAT YOU ARE DOING!                                     |
|                                                                             |
 -----------------------------------------------------------------------------

  LATTYP: Found a body centered tetragonal cell.
 ALAT       =     5.6111587443
 C/A-ratio  =     1.4116929760
  
  Lattice vectors:
  
 A1 = (   4.8579608586,   0.0000000000,  -2.7980790271)
 A2 = (  -1.6231721982,   4.5787657419,  -2.7980790271)
 A3 = (   0.0000000000,   0.0000000000,   5.6061600000)


Analysis of symmetry for initial positions (statically):
=====================================================================
 Subroutine PRICEL returns:
 Original cell was already a primitive cell.
 

 Routine SETGRP: Setting up the symmetry group for a 
 body centered tetragonal supercell.


 Subroutine GETGRP returns: Found 16 space group operations
 (whereof  8 operations were pure point group operations)
 out of a pool of 16 trial point group operations.


The static configuration has the point symmetry C_4h.
 The point group associated with its full space group is D_4h.


Analysis of symmetry for dynamics (positions and initial velocities):
=====================================================================
 Subroutine PRICEL returns:
 Original cell was already a primitive cell.
 

 Routine SETGRP: Setting up the symmetry group for a 
 body centered tetragonal supercell.


 Subroutine GETGRP returns: Found 16 space group operations
 (whereof  8 operations were pure point group operations)
 out of a pool of 16 trial point group operations.


The dynamic configuration has the point symmetry C_4h.
 The point group associated with its full space group is D_4h.


 Subroutine INISYM returns: Found 16 space group operations
 (whereof  8 operations are pure point group operations),
 and found     1 'primitive' translations


----------------------------------------------------------------------------------------

                                     Primitive cell                                     

  volume of cell :     124.7004

  direct lattice vectors                    reciprocal lattice vectors
     4.857960859  0.000000000 -2.798079027     0.205847686  0.072972993  0.000000000
    -1.623172198  4.578765742 -2.798079027     0.000000000  0.218399468  0.000000000
     0.000000000  0.000000000  5.606160000     0.102740217  0.145426312  0.178375216

  length of vectors
     5.606160000  5.606160000  5.606160000     0.218399468  0.218399468  0.252035874

  position of ions in fractional coordinates (direct lattice)
     0.500000000  0.500000000  0.500000000
     0.500000000  0.000000000  0.000000000
     0.000000000  0.000000000  0.500000000
     0.000000000  0.500000000  1.000000000
     0.250000000  0.250000000  0.000000000
     0.245350000  0.745350000  0.990700000
     0.750000000  0.750000000  0.000000000
     0.754650000  0.254650000  0.009300000
     0.745350000  0.754650000  0.500000000
     0.254650000  0.245350000  0.500000000
     0.734430000  0.234430000  0.968860000
     0.265570000  0.765570000  0.031140000
     0.234430000  0.265570000  0.500000000
     0.765570000  0.734430000  0.500000000

  ion indices of the primitive-cell ions
   primitive index   ion index
                 1           1
                 2           2
                 3           3
                 4           4
                 5           5
                 6           6
                 7           7
                 8           8
                 9           9
                10          10
                11          11
                12          12
                13          13
                14          14

----------------------------------------------------------------------------------------

 
 
 KPOINTS: EA                                      

Automatic generation of k-mesh.
 Grid dimensions read from file:
 generate k-points for:    8    8    9

 Generating k-lattice:

  Cartesian coordinates                     Fractional coordinates (reciprocal lattice)
     0.025730961  0.009121624  0.000000000     0.125000000  0.000000000  0.000000000
     0.000000000  0.027299933  0.000000000     0.000000000  0.125000000  0.000000000
     0.011415580  0.016158479  0.019819468     0.000000000 -0.000000000  0.111111111

  Length of vectors
     0.027299933  0.027299933  0.028003986

  Shift w.r.t. Gamma in fractional coordinates (k-lattice)
     0.000000000  0.000000000  0.000000000

 -----------------------------------------------------------------------------
|                                                                             |
|           W    W    AA    RRRRR   N    N  II  N    N   GGGG   !!!           |
|           W    W   A  A   R    R  NN   N  II  NN   N  G    G  !!!           |
|           W    W  A    A  R    R  N N  N  II  N N  N  G       !!!           |
|           W WW W  AAAAAA  RRRRR   N  N N  II  N  N N  G  GGG   !            |
|           WW  WW  A    A  R   R   N   NN  II  N   NN  G    G                |
|           W    W  A    A  R    R  N    N  II  N    N   GGGG   !!!           |
|                                                                             |
|     Your reciprocal lattice and k-lattice belong to different lattice       |
|     classes:                                                                |
|                                                                             |
|        The reciprocal lattice is body-centered tetragonal,                  |
|        whereas your k-lattice is base-centered monoclinic.                  |
|                                                                             |
|     Results are often still useful ...                                      |
|                                                                             |
 -----------------------------------------------------------------------------

 WARNING: IBZKPT: internal override: KBLOWUP is changed to .FALSE.
      ... skipping the blow-up phase ...

 
 Subroutine IBZKPT returns following result:
 ===========================================
 
 Found    165 irreducible k-points:
 
 Following reciprocal coordinates:
            Coordinates               Weight
  0.000000  0.000000  0.000000      1.000000
  0.125000  0.000000  0.000000      4.000000
  0.250000  0.000000  0.000000      4.000000
  0.375000  0.000000  0.000000      4.000000
  0.500000  0.000000  0.000000      2.000000
  0.125000  0.125000  0.000000      2.000000
  0.250000  0.125000  0.000000      4.000000
  0.375000  0.125000  0.000000      4.000000
  0.500000  0.125000  0.000000      4.000000
 -0.375000  0.125000  0.000000      4.000000
 -0.250000  0.125000  0.000000      4.000000
 -0.125000  0.125000  0.000000      2.000000
  0.250000  0.250000  0.000000      2.000000
  0.375000  0.250000  0.000000      4.000000
  0.500000  0.250000  0.000000      4.000000
 -0.375000  0.250000  0.000000      4.000000
 -0.250000  0.250000  0.000000      2.000000
  0.375000  0.375000  0.000000      2.000000
  0.500000  0.375000  0.000000      4.000000
 -0.375000  0.375000  0.000000      2.000000
  0.500000  0.500000  0.000000      1.000000
  0.000000 -0.000000  0.111111      2.000000
  0.125000 -0.000000  0.111111      4.000000
  0.250000  0.000000  0.111111      4.000000
  0.375000 -0.000000  0.111111      4.000000
  0.500000 -0.000000  0.111111      4.000000
 -0.375000  0.000000  0.111111      4.000000
 -0.250000 -0.000000  0.111111      4.000000
 -0.125000 -0.000000  0.111111      4.000000
  0.125000  0.125000  0.111111      2.000000
  0.250000  0.125000  0.111111      4.000000
  0.375000  0.125000  0.111111      4.000000
  0.500000  0.125000  0.111111      4.000000
 -0.375000  0.125000  0.111111      4.000000
 -0.250000  0.125000  0.111111      4.000000
 -0.125000  0.125000  0.111111      4.000000
  0.250000  0.250000  0.111111      2.000000
  0.375000  0.250000  0.111111      4.000000
  0.500000  0.250000  0.111111      4.000000
 -0.375000  0.250000  0.111111      4.000000
 -0.250000  0.250000  0.111111      4.000000
 -0.125000  0.250000  0.111111      4.000000
  0.375000  0.375000  0.111111      2.000000
  0.500000  0.375000  0.111111      4.000000
 -0.375000  0.375000  0.111111      4.000000
 -0.250000  0.375000  0.111111      4.000000
 -0.125000  0.375000  0.111111      4.000000
  0.500000  0.500000  0.111111      2.000000
 -0.375000  0.500000  0.111111      4.000000
 -0.250000  0.500000  0.111111      4.000000
 -0.125000  0.500000  0.111111      4.000000
 -0.375000 -0.375000  0.111111      2.000000
 -0.250000 -0.375000  0.111111      4.000000
 -0.125000 -0.375000  0.111111      4.000000
 -0.250000 -0.250000  0.111111      2.000000
 -0.125000 -0.250000  0.111111      4.000000
 -0.125000 -0.125000  0.111111      2.000000
 -0.000000 -0.000000  0.222222      2.000000
  0.125000 -0.000000  0.222222      4.000000
  0.250000 -0.000000  0.222222      4.000000
  0.375000 -0.000000  0.222222      4.000000
  0.500000 -0.000000  0.222222      4.000000
 -0.375000 -0.000000  0.222222      4.000000
 -0.250000 -0.000000  0.222222      4.000000
 -0.125000 -0.000000  0.222222      4.000000
  0.125000  0.125000  0.222222      2.000000
  0.250000  0.125000  0.222222      4.000000
  0.375000  0.125000  0.222222      4.000000
  0.500000  0.125000  0.222222      4.000000
 -0.375000  0.125000  0.222222      4.000000
 -0.250000  0.125000  0.222222      4.000000
 -0.125000  0.125000  0.222222      4.000000
  0.250000  0.250000  0.222222      2.000000
  0.375000  0.250000  0.222222      4.000000
  0.500000  0.250000  0.222222      4.000000
 -0.375000  0.250000  0.222222      4.000000
 -0.250000  0.250000  0.222222      4.000000
 -0.125000  0.250000  0.222222      4.000000
  0.375000  0.375000  0.222222      2.000000
  0.500000  0.375000  0.222222      4.000000
 -0.375000  0.375000  0.222222      4.000000
 -0.250000  0.375000  0.222222      4.000000
 -0.125000  0.375000  0.222222      4.000000
  0.500000  0.500000  0.222222      2.000000
 -0.375000  0.500000  0.222222      4.000000
 -0.250000  0.500000  0.222222      4.000000
 -0.125000  0.500000  0.222222      4.000000
 -0.375000 -0.375000  0.222222      2.000000
 -0.250000 -0.375000  0.222222      4.000000
 -0.125000 -0.375000  0.222222      4.000000
 -0.250000 -0.250000  0.222222      2.000000
 -0.125000 -0.250000  0.222222      4.000000
 -0.125000 -0.125000  0.222222      2.000000
  0.000000 -0.000000  0.333333      2.000000
  0.125000  0.000000  0.333333      4.000000
  0.250000 -0.000000  0.333333      4.000000
  0.375000 -0.000000  0.333333      4.000000
  0.500000 -0.000000  0.333333      4.000000
 -0.375000 -0.000000  0.333333      4.000000
 -0.250000 -0.000000  0.333333      4.000000
 -0.125000 -0.000000  0.333333      4.000000
  0.125000  0.125000  0.333333      2.000000
  0.250000  0.125000  0.333333      4.000000
  0.375000  0.125000  0.333333      4.000000
  0.500000  0.125000  0.333333      4.000000
 -0.375000  0.125000  0.333333      4.000000
 -0.250000  0.125000  0.333333      4.000000
 -0.125000  0.125000  0.333333      4.000000
  0.250000  0.250000  0.333333      2.000000
  0.375000  0.250000  0.333333      4.000000
  0.500000  0.250000  0.333333      4.000000
 -0.375000  0.250000  0.333333      4.000000
 -0.250000  0.250000  0.333333      4.000000
 -0.125000  0.250000  0.333333      4.000000
  0.375000  0.375000  0.333333      2.000000
  0.500000  0.375000  0.333333      4.000000
 -0.375000  0.375000  0.333333      4.000000
 -0.250000  0.375000  0.333333      4.000000
 -0.125000  0.375000  0.333333      4.000000
  0.500000  0.500000  0.333333      2.000000
 -0.375000  0.500000  0.333333      4.000000
 -0.250000  0.500000  0.333333      4.000000
 -0.125000  0.500000  0.333333      4.000000
 -0.375000 -0.375000  0.333333      2.000000
 -0.250000 -0.375000  0.333333      4.000000
 -0.125000 -0.375000  0.333333      4.000000
 -0.250000 -0.250000  0.333333      2.000000
 -0.125000 -0.250000  0.333333      4.000000
 -0.125000 -0.125000  0.333333      2.000000
 -0.000000 -0.000000  0.444444      2.000000
  0.125000 -0.000000  0.444444      4.000000
  0.250000 -0.000000  0.444444      4.000000
  0.375000 -0.000000  0.444444      4.000000
  0.500000 -0.000000  0.444444      4.000000
 -0.375000 -0.000000  0.444444      4.000000
 -0.250000 -0.000000  0.444444      4.000000
 -0.125000 -0.000000  0.444444      4.000000
  0.125000  0.125000  0.444444      2.000000
  0.250000  0.125000  0.444444      4.000000
  0.375000  0.125000  0.444444      4.000000
  0.500000  0.125000  0.444444      4.000000
 -0.375000  0.125000  0.444444      4.000000
 -0.250000  0.125000  0.444444      4.000000
 -0.125000  0.125000  0.444444      4.000000
  0.250000  0.250000  0.444444      2.000000
  0.375000  0.250000  0.444444      4.000000
  0.500000  0.250000  0.444444      4.000000
 -0.375000  0.250000  0.444444      4.000000
 -0.250000  0.250000  0.444444      4.000000
 -0.125000  0.250000  0.444444      4.000000
  0.375000  0.375000  0.444444      2.000000
  0.500000  0.375000  0.444444      4.000000
 -0.375000  0.375000  0.444444      4.000000
 -0.250000  0.375000  0.444444      4.000000
 -0.125000  0.375000  0.444444      4.000000
  0.500000  0.500000  0.444444      2.000000
 -0.375000  0.500000  0.444444      4.000000
 -0.250000  0.500000  0.444444      4.000000
 -0.125000  0.500000  0.444444      4.000000
 -0.375000 -0.375000  0.444444      2.000000
 -0.250000 -0.375000  0.444444      4.000000
 -0.125000 -0.375000  0.444444      4.000000
 -0.250000 -0.250000  0.444444      2.000000
 -0.125000 -0.250000  0.444444      4.000000
 -0.125000 -0.125000  0.444444      2.000000
 
 Following cartesian coordinates:
            Coordinates               Weight
  0.000000  0.000000  0.000000      1.000000
  0.025731  0.009122  0.000000      4.000000
  0.051462  0.018243  0.000000      4.000000
  0.077193  0.027365  0.000000      4.000000
  0.102924  0.036486  0.000000      2.000000
  0.025731  0.036422  0.000000      2.000000
  0.051462  0.045543  0.000000      4.000000
  0.077193  0.054665  0.000000      4.000000
  0.102924  0.063786  0.000000      4.000000
 -0.077193 -0.000065  0.000000      4.000000
 -0.051462  0.009057  0.000000      4.000000
 -0.025731  0.018178  0.000000      2.000000
  0.051462  0.072843  0.000000      2.000000
  0.077193  0.081965  0.000000      4.000000
  0.102924  0.091086  0.000000      4.000000
 -0.077193  0.027235  0.000000      4.000000
 -0.051462  0.036357  0.000000      2.000000
  0.077193  0.109265  0.000000      2.000000
  0.102924  0.118386  0.000000      4.000000
 -0.077193  0.054535  0.000000      2.000000
  0.102924  0.145686  0.000000      1.000000
  0.011416  0.016158  0.019819      2.000000
  0.037147  0.025280  0.019819      4.000000
  0.062878  0.034402  0.019819      4.000000
  0.088608  0.043523  0.019819      4.000000
  0.114339  0.052645  0.019819      4.000000
 -0.065777 -0.011206  0.019819      4.000000
 -0.040046 -0.002085  0.019819      4.000000
 -0.014315  0.007037  0.019819      4.000000
  0.037147  0.052580  0.019819      2.000000
  0.062878  0.061702  0.019819      4.000000
  0.088608  0.070823  0.019819      4.000000
  0.114339  0.079945  0.019819      4.000000
 -0.065777  0.016094  0.019819      4.000000
 -0.040046  0.025215  0.019819      4.000000
 -0.014315  0.034337  0.019819      4.000000
  0.062878  0.089002  0.019819      2.000000
  0.088608  0.098123  0.019819      4.000000
  0.114339  0.107245  0.019819      4.000000
 -0.065777  0.043393  0.019819      4.000000
 -0.040046  0.052515  0.019819      4.000000
 -0.014315  0.061637  0.019819      4.000000
  0.088608  0.125423  0.019819      2.000000
  0.114339  0.134545  0.019819      4.000000
 -0.065777  0.070693  0.019819      4.000000
 -0.040046  0.079815  0.019819      4.000000
 -0.014315  0.088937  0.019819      4.000000
  0.114339  0.161845  0.019819      2.000000
 -0.065777  0.097993  0.019819      4.000000
 -0.040046  0.107115  0.019819      4.000000
 -0.014315  0.116237  0.019819      4.000000
 -0.065777 -0.093106  0.019819      2.000000
 -0.040046 -0.083985  0.019819      4.000000
 -0.014315 -0.074863  0.019819      4.000000
 -0.040046 -0.056685  0.019819      2.000000
 -0.014315 -0.047563  0.019819      4.000000
 -0.014315 -0.020263  0.019819      2.000000
  0.022831  0.032317  0.039639      2.000000
  0.048562  0.041439  0.039639      4.000000
  0.074293  0.050560  0.039639      4.000000
  0.100024  0.059682  0.039639      4.000000
  0.125755  0.068803  0.039639      4.000000
 -0.054362  0.004952  0.039639      4.000000
 -0.028631  0.014074  0.039639      4.000000
 -0.002900  0.023195  0.039639      4.000000
  0.048562  0.068739  0.039639      2.000000
  0.074293  0.077860  0.039639      4.000000
  0.100024  0.086982  0.039639      4.000000
  0.125755  0.096103  0.039639      4.000000
 -0.054362  0.032252  0.039639      4.000000
 -0.028631  0.041374  0.039639      4.000000
 -0.002900  0.050495  0.039639      4.000000
  0.074293  0.105160  0.039639      2.000000
  0.100024  0.114282  0.039639      4.000000
  0.125755  0.123403  0.039639      4.000000
 -0.054362  0.059552  0.039639      4.000000
 -0.028631  0.068674  0.039639      4.000000
 -0.002900  0.077795  0.039639      4.000000
  0.100024  0.141582  0.039639      2.000000
  0.125755  0.150703  0.039639      4.000000
 -0.054362  0.086852  0.039639      4.000000
 -0.028631  0.095974  0.039639      4.000000
 -0.002900  0.105095  0.039639      4.000000
  0.125755  0.178003  0.039639      2.000000
 -0.054362  0.114152  0.039639      4.000000
 -0.028631  0.123273  0.039639      4.000000
 -0.002900  0.132395  0.039639      4.000000
 -0.054362 -0.076948  0.039639      2.000000
 -0.028631 -0.067826  0.039639      4.000000
 -0.002900 -0.058704  0.039639      4.000000
 -0.028631 -0.040526  0.039639      2.000000
 -0.002900 -0.031405  0.039639      4.000000
 -0.002900 -0.004105  0.039639      2.000000
  0.034247  0.048475  0.059458      2.000000
  0.059978  0.057597  0.059458      4.000000
  0.085709  0.066719  0.059458      4.000000
  0.111440  0.075840  0.059458      4.000000
  0.137171  0.084962  0.059458      4.000000
 -0.042946  0.021111  0.059458      4.000000
 -0.017215  0.030232  0.059458      4.000000
  0.008516  0.039354  0.059458      4.000000
  0.059978  0.084897  0.059458      2.000000
  0.085709  0.094019  0.059458      4.000000
  0.111440  0.103140  0.059458      4.000000
  0.137171  0.112262  0.059458      4.000000
 -0.042946  0.048410  0.059458      4.000000
 -0.017215  0.057532  0.059458      4.000000
  0.008516  0.066654  0.059458      4.000000
  0.085709  0.121319  0.059458      2.000000
  0.111440  0.130440  0.059458      4.000000
  0.137171  0.139562  0.059458      4.000000
 -0.042946  0.075710  0.059458      4.000000
 -0.017215  0.084832  0.059458      4.000000
  0.008516  0.093954  0.059458      4.000000
  0.111440  0.157740  0.059458      2.000000
  0.137171  0.166862  0.059458      4.000000
 -0.042946  0.103010  0.059458      4.000000
 -0.017215  0.112132  0.059458      4.000000
  0.008516  0.121254  0.059458      4.000000
  0.137171  0.194162  0.059458      2.000000
 -0.042946  0.130310  0.059458      4.000000
 -0.017215  0.139432  0.059458      4.000000
  0.008516  0.148554  0.059458      4.000000
 -0.042946 -0.060789  0.059458      2.000000
 -0.017215 -0.051668  0.059458      4.000000
  0.008516 -0.042546  0.059458      4.000000
 -0.017215 -0.024368  0.059458      2.000000
  0.008516 -0.015246  0.059458      4.000000
  0.008516  0.012054  0.059458      2.000000
  0.045662  0.064634  0.079278      2.000000
  0.071393  0.073756  0.079278      4.000000
  0.097124  0.082877  0.079278      4.000000
  0.122855  0.091999  0.079278      4.000000
  0.148586  0.101120  0.079278      4.000000
 -0.031531  0.037269  0.079278      4.000000
 -0.005800  0.046391  0.079278      4.000000
  0.019931  0.055512  0.079278      4.000000
  0.071393  0.101055  0.079278      2.000000
  0.097124  0.110177  0.079278      4.000000
  0.122855  0.119299  0.079278      4.000000
  0.148586  0.128420  0.079278      4.000000
 -0.031531  0.064569  0.079278      4.000000
 -0.005800  0.073691  0.079278      4.000000
  0.019931  0.082812  0.079278      4.000000
  0.097124  0.137477  0.079278      2.000000
  0.122855  0.146599  0.079278      4.000000
  0.148586  0.155720  0.079278      4.000000
 -0.031531  0.091869  0.079278      4.000000
 -0.005800  0.100991  0.079278      4.000000
  0.019931  0.110112  0.079278      4.000000
  0.122855  0.173899  0.079278      2.000000
  0.148586  0.183020  0.079278      4.000000
 -0.031531  0.119169  0.079278      4.000000
 -0.005800  0.128290  0.079278      4.000000
  0.019931  0.137412  0.079278      4.000000
  0.148586  0.210320  0.079278      2.000000
 -0.031531  0.146469  0.079278      4.000000
 -0.005800  0.155590  0.079278      4.000000
  0.019931  0.164712  0.079278      4.000000
 -0.031531 -0.044631  0.079278      2.000000
 -0.005800 -0.035509  0.079278      4.000000
  0.019931 -0.026388  0.079278      4.000000
 -0.005800 -0.008209  0.079278      2.000000
  0.019931  0.000912  0.079278      4.000000
  0.019931  0.028212  0.079278      2.000000
 


--------------------------------------------------------------------------------------------------------




 Dimension of arrays:
   k-points           NKPTS =    165   k-points in BZ     NKDIM =    165   number of bands    NBANDS=     72
   number of dos      NEDOS =    301   number of ions     NIONS =     14
   non local maximal  LDIM  =      6   non local SUM 2l+1 LMDIM =     18
   total plane-waves  NPLWV = 110592
   max r-space proj   IRMAX =      1   max aug-charges    IRDMAX= 310434
   dimension x,y,z NGX =    48 NGY =   48 NGZ =   48
   dimension x,y,z NGXF=    96 NGYF=   96 NGZF=   96
   support grid    NGXF=   192 NGYF=  192 NGZF=  192
   ions per type =               4   6   4
   NGX,Y,Z   is equivalent  to a cutoff of  14.23, 14.23, 14.23 a.u.
   NGXF,Y,Z  is equivalent  to a cutoff of  28.47, 28.47, 28.47 a.u.

 SYSTEM =  routine with relax: pwdword             
 POSCAR =  EA56                                    

 Startparameter for this run:
   NWRITE =      2    write-flag & timer
   PREC   = acc       normal or accurate (medium, high low for compatibility)
   ISTART =      0    job   : 0-new  1-cont  2-samecut
   ICHARG =      2    charge: 1-file 2-atom 10-const
   ISPIN  =      1    spin polarized calculation?
   LNONCOLLINEAR =      F non collinear calculations
   LSORBIT =      F    spin-orbit coupling
   INIWAV =      1    electr: 0-lowe 1-rand  2-diag
   LASPH  =      T    aspherical Exc in radial PAW
   METAGGA=      F    non-selfconsistent MetaGGA calc.

 Electronic Relaxation 1
   ENCUT  =  600.0 eV  44.10 Ry    6.64 a.u.  11.20 11.20 11.20*2*pi/ulx,y,z
   ENINI  =  600.0     initial cutoff
   ENAUG  =  535.5 eV  augmentation charge cutoff
   NELM   =    100;   NELMIN=  6; NELMDL= -5     # of ELM steps 
   EDIFF  = 0.1E-08   stopping-criterion for ELM
   LREAL  =      F    real-space projection
   NLSPLINE    = F    spline interpolate recip. space projectors
   LCOMPAT=      F    compatible to vasp.4.4
   GGA_COMPAT  = T    GGA compatible to vasp.4.4-vasp.4.6
   LMAXPAW     = -100 max onsite density
   LMAXMIX     =    2 max onsite mixed and CHGCAR
   VOSKOWN=      0    Vosko Wilk Nusair interpolation
   ROPT   =    0.00000   0.00000   0.00000
 Ionic relaxation
   EDIFFG = 0.1E-07   stopping-criterion for IOM
   NSW    =      0    number of steps for IOM
   NBLOCK =      1;   KBLOCK =      1    inner block; outer block 
   IBRION =     -1    ionic relax: 0-MD 1-quasi-New 2-CG
   NFREE  =      0    steps in history (QN), initial steepest desc. (CG)
   ISIF   =     -1    stress and relaxation
   IWAVPR =     10    prediction:  0-non 1-charg 2-wave 3-comb
   ISYM   =      2    0-nonsym 1-usesym 2-fastsym
   LCORR  =      T    Harris-Foulkes like correction to forces

   POTIM  = 0.5000    time-step for ionic-motion
   TEIN   =    0.0    initial temperature
   TEBEG  =    0.0;   TEEND  =   0.0 temperature during run
   SMASS  =  -3.00    Nose mass-parameter (am)
   estimated Nose-frequenzy (Omega)   =  0.10E-29 period in steps = 0.13E+47 mass=  -0.718E-27a.u.
   SCALEE = 1.0000    scale energy and forces
   NPACO  =    256;   APACO  = 16.0  distance and # of slots for P.C.
   PSTRESS=    0.0 pullay stress

  Mass of Ions in am
   POMASS =  10.81 95.94 28.09
  Ionic Valenz
   ZVAL   =   3.00 14.00  4.00
  Atomic Wigner-Seitz radii
   RWIGS  =  -1.00 -1.00 -1.00
  virtual crystal weights 
   VCA    =   1.00  1.00  1.00
   NELECT =     112.0000    total number of electrons
   NUPDOWN=      -1.0000    fix difference up-down

 DOS related values:
   EMIN   =  10.00;   EMAX   =-10.00  energy-range for DOS
   EFERMI =   0.00
   ISMEAR =     0;   SIGMA  =   0.02  broadening in eV -4-tet -1-fermi 0-gaus

 Electronic relaxation 2 (details)
   IALGO  =     58    algorithm
   LDIAG  =      T    sub-space diagonalisation (order eigenvalues)
   LSUBROT=      F    optimize rotation matrix (better conditioning)
   TURBO    =      0    0=normal 1=particle mesh
   IRESTART =      0    0=no restart 2=restart with 2 vectors
   NREBOOT  =      0    no. of reboots
   NMIN     =      0    reboot dimension
   EREF     =   0.00    reference energy to select bands
   IMIX   =      4    mixing-type and parameters
     AMIX     =   0.40;   BMIX     =  1.00
     AMIX_MAG =   1.60;   BMIX_MAG =  1.00
     AMIN     =   0.10
     WC   =   100.;   INIMIX=   1;  MIXPRE=   1;  MAXMIX= -45

 Intra band minimization:
   WEIMIN = 0.0000     energy-eigenvalue tresh-hold
   EBREAK =  0.35E-11  absolut break condition
   DEPER  =   0.30     relativ break condition  

   TIME   =   0.40     timestep for ELM

  volume/ion in A,a.u.               =       8.91        60.11
  Fermi-wavevector in a.u.,A,eV,Ry     =   1.579519  2.984858 33.944908  2.494880
  Thomas-Fermi vector in A             =   2.679886
 
 Write flags
   LWAVE        =      T    write WAVECAR
   LDOWNSAMPLE  =      F    k-point downsampling of WAVECAR
   LCHARG       =      T    write CHGCAR
   LVTOT        =      F    write LOCPOT, total local potential
   LVHAR        =      F    write LOCPOT, Hartree potential only
   LELF         =      F    write electronic localiz. function (ELF)
   LORBIT       =      0    0 simple, 1 ext, 2 COOP (PROOUT), +10 PAW based schemes


 Dipole corrections
   LMONO  =      F    monopole corrections only (constant potential shift)
   LDIPOL =      F    correct potential (dipole corrections)
   IDIPOL =      0    1-x, 2-y, 3-z, 4-all directions 
   EPSILON=  1.0000000 bulk dielectric constant

 Exchange correlation treatment:
   GGA     =    --    GGA type
   LEXCH   =     8    internal setting for exchange type
   VOSKOWN=      0    Vosko Wilk Nusair interpolation
   LHFCALC =     F    Hartree Fock is set to
   LHFONE  =     F    Hartree Fock one center treatment
   AEXX    =    0.0000 exact exchange contribution

 Linear response parameters
   LEPSILON=     F    determine dielectric tensor
   LRPA    =     F    only Hartree local field effects (RPA)
   LNABLA  =     F    use nabla operator in PAW spheres
   LVEL    =     F    velocity operator in full k-point grid
   LINTERFAST=   F  fast interpolation
   KINTER  =     0    interpolate to denser k-point grid
   CSHIFT  =0.1000    complex shift for real part using Kramers Kronig
   OMEGAMAX=  -1.0    maximum frequency
   DEG_THRESHOLD= 0.2000000E-02 threshold for treating states as degnerate
   RTIME   =   -0.100 relaxation time in fs
  (WPLASMAI=    0.000 imaginary part of plasma frequency in eV, 0.658/RTIME)
   DFIELD  = 0.0000000 0.0000000 0.0000000 field for delta impulse in time
 
 Orbital magnetization related:
   ORBITALMAG=     F  switch on orbital magnetization
   LCHIMAG   =     F  perturbation theory with respect to B field
   DQ        =  0.001000  dq finite difference perturbation B field
   LLRAUG    =     F  two centre corrections for induced B field



--------------------------------------------------------------------------------------------------------


 Static calculation
 charge density and potential will be updated during run
 non-spin polarized calculation
 Conjugate gradient for all bands (Freysoldt, et al. PRB 79, 241103 (2009))
 preconditioned conjugated gradient                                        
 perform sub-space diagonalisation
    before iterative eigenvector-optimisation
 modified Broyden-mixing scheme, WC =      100.0
 initial mixing is a Kerker type mixing with AMIX =  0.4000 and BMIX =      1.0000
 Hartree-type preconditioning will be used
 using additional bands           16
 reciprocal scheme for non local part
 use partial core corrections
 no Harris-corrections to forces 
 use gradient corrections 
 use of overlap-Matrix (Vanderbilt PP)
 Gauss-broadening in eV      SIGMA  =   0.02


--------------------------------------------------------------------------------------------------------


  energy-cutoff  :      600.00
  volume of cell :      124.70
      direct lattice vectors                 reciprocal lattice vectors
     4.857960859  0.000000000 -2.798079027     0.205847686  0.072972993  0.000000000
    -1.623172198  4.578765742 -2.798079027     0.000000000  0.218399468  0.000000000
     0.000000000  0.000000000  5.606160000     0.102740217  0.145426312  0.178375216

  length of vectors
     5.606160000  5.606160000  5.606160000     0.218399468  0.218399468  0.252035874


 
 k-points in units of 2pi/SCALE and weight: EA                                      
   0.00000000  0.00000000  0.00000000       0.002
   0.02573096  0.00912162  0.00000000       0.007
   0.05146192  0.01824325  0.00000000       0.007
   0.07719288  0.02736487  0.00000000       0.007
   0.10292384  0.03648650  0.00000000       0.003
   0.02573096  0.03642156  0.00000000       0.003
   0.05146192  0.04554318  0.00000000       0.007
   0.07719288  0.05466481  0.00000000       0.007
   0.10292384  0.06378643  0.00000000       0.007
  -0.07719288 -0.00006494  0.00000000       0.007
  -0.05146192  0.00905669  0.00000000       0.007
  -0.02573096  0.01817831  0.00000000       0.003
   0.05146192  0.07284312  0.00000000       0.003
   0.07719288  0.08196474  0.00000000       0.007
   0.10292384  0.09108636  0.00000000       0.007
  -0.07719288  0.02723499  0.00000000       0.007
  -0.05146192  0.03635662  0.00000000       0.003
   0.07719288  0.10926467  0.00000000       0.003
   0.10292384  0.11838630  0.00000000       0.007
  -0.07719288  0.05453493  0.00000000       0.003
   0.10292384  0.14568623  0.00000000       0.002
   0.01141558  0.01615848  0.01981947       0.003
   0.03714654  0.02528010  0.01981947       0.007
   0.06287750  0.03440173  0.01981947       0.007
   0.08860846  0.04352335  0.01981947       0.007
   0.11433942  0.05264498  0.01981947       0.007
  -0.06577730 -0.01120639  0.01981947       0.007
  -0.04004634 -0.00208477  0.01981947       0.007
  -0.01431538  0.00703685  0.01981947       0.007
   0.03714654  0.05258004  0.01981947       0.003
   0.06287750  0.06170166  0.01981947       0.007
   0.08860846  0.07082328  0.01981947       0.007
   0.11433942  0.07994491  0.01981947       0.007
  -0.06577730  0.01609354  0.01981947       0.007
  -0.04004634  0.02521516  0.01981947       0.007
  -0.01431538  0.03433679  0.01981947       0.007
   0.06287750  0.08900159  0.01981947       0.003
   0.08860846  0.09812322  0.01981947       0.007
   0.11433942  0.10724484  0.01981947       0.007
  -0.06577730  0.04339347  0.01981947       0.007
  -0.04004634  0.05251510  0.01981947       0.007
  -0.01431538  0.06163672  0.01981947       0.007
   0.08860846  0.12542315  0.01981947       0.003
   0.11433942  0.13454478  0.01981947       0.007
  -0.06577730  0.07069341  0.01981947       0.007
  -0.04004634  0.07981503  0.01981947       0.007
  -0.01431538  0.08893666  0.01981947       0.007
   0.11433942  0.16184471  0.01981947       0.003
  -0.06577730  0.09799334  0.01981947       0.007
  -0.04004634  0.10711496  0.01981947       0.007
  -0.01431538  0.11623659  0.01981947       0.007
  -0.06577730 -0.09310619  0.01981947       0.003
  -0.04004634 -0.08398457  0.01981947       0.007
  -0.01431538 -0.07486295  0.01981947       0.007
  -0.04004634 -0.05668464  0.01981947       0.003
  -0.01431538 -0.04756301  0.01981947       0.007
  -0.01431538 -0.02026308  0.01981947       0.003
   0.02283116  0.03231696  0.03963894       0.003
   0.04856212  0.04143858  0.03963894       0.007
   0.07429308  0.05056021  0.03963894       0.007
   0.10002404  0.05968183  0.03963894       0.007
   0.12575500  0.06880345  0.03963894       0.007
  -0.05436172  0.00495209  0.03963894       0.007
  -0.02863076  0.01407371  0.03963894       0.007
  -0.00289980  0.02319533  0.03963894       0.007
   0.04856212  0.06873852  0.03963894       0.003
   0.07429308  0.07786014  0.03963894       0.007
   0.10002404  0.08698176  0.03963894       0.007
   0.12575500  0.09610339  0.03963894       0.007
  -0.05436172  0.03225202  0.03963894       0.007
  -0.02863076  0.04137364  0.03963894       0.007
  -0.00289980  0.05049527  0.03963894       0.007
   0.07429308  0.10516007  0.03963894       0.003
   0.10002404  0.11428170  0.03963894       0.007
   0.12575500  0.12340332  0.03963894       0.007
  -0.05436172  0.05955195  0.03963894       0.007
  -0.02863076  0.06867358  0.03963894       0.007
  -0.00289980  0.07779520  0.03963894       0.007
   0.10002404  0.14158163  0.03963894       0.003
   0.12575500  0.15070325  0.03963894       0.007
  -0.05436172  0.08685189  0.03963894       0.007
  -0.02863076  0.09597351  0.03963894       0.007
  -0.00289980  0.10509513  0.03963894       0.007
   0.12575500  0.17800319  0.03963894       0.003
  -0.05436172  0.11415182  0.03963894       0.007
  -0.02863076  0.12327344  0.03963894       0.007
  -0.00289980  0.13239507  0.03963894       0.007
  -0.05436172 -0.07694771  0.03963894       0.003
  -0.02863076 -0.06782609  0.03963894       0.007
  -0.00289980 -0.05870447  0.03963894       0.007
  -0.02863076 -0.04052616  0.03963894       0.003
  -0.00289980 -0.03140453  0.03963894       0.007
  -0.00289980 -0.00410460  0.03963894       0.003
   0.03424674  0.04847544  0.05945841       0.003
   0.05997770  0.05759706  0.05945841       0.007
   0.08570866  0.06671869  0.05945841       0.007
   0.11143962  0.07584031  0.05945841       0.007
   0.13717058  0.08496193  0.05945841       0.007
  -0.04294614  0.02111056  0.05945841       0.007
  -0.01721518  0.03023219  0.05945841       0.007
   0.00851578  0.03935381  0.05945841       0.007
   0.05997770  0.08489699  0.05945841       0.003
   0.08570866  0.09401862  0.05945841       0.007
   0.11143962  0.10314024  0.05945841       0.007
   0.13717058  0.11226187  0.05945841       0.007
  -0.04294614  0.04841050  0.05945841       0.007
  -0.01721518  0.05753212  0.05945841       0.007
   0.00851578  0.06665375  0.05945841       0.007
   0.08570866  0.12131855  0.05945841       0.003
   0.11143962  0.13044018  0.05945841       0.007
   0.13717058  0.13956180  0.05945841       0.007
  -0.04294614  0.07571043  0.05945841       0.007
  -0.01721518  0.08483206  0.05945841       0.007
   0.00851578  0.09395368  0.05945841       0.007
   0.11143962  0.15774011  0.05945841       0.003
   0.13717058  0.16686173  0.05945841       0.007
  -0.04294614  0.10301037  0.05945841       0.007
  -0.01721518  0.11213199  0.05945841       0.007
   0.00851578  0.12125361  0.05945841       0.007
   0.13717058  0.19416167  0.05945841       0.003
  -0.04294614  0.13031030  0.05945841       0.007
  -0.01721518  0.13943192  0.05945841       0.007
   0.00851578  0.14855355  0.05945841       0.007
  -0.04294614 -0.06078924  0.05945841       0.003
  -0.01721518 -0.05166761  0.05945841       0.007
   0.00851578 -0.04254599  0.05945841       0.007
  -0.01721518 -0.02436768  0.05945841       0.003
   0.00851578 -0.01524605  0.05945841       0.007
   0.00851578  0.01205388  0.05945841       0.003
   0.04566232  0.06463392  0.07927787       0.003
   0.07139328  0.07375554  0.07927787       0.007
   0.09712424  0.08287716  0.07927787       0.007
   0.12285520  0.09199879  0.07927787       0.007
   0.14858616  0.10112041  0.07927787       0.007
  -0.03153056  0.03726904  0.07927787       0.007
  -0.00579960  0.04639067  0.07927787       0.007
   0.01993136  0.05551229  0.07927787       0.007
   0.07139328  0.10105547  0.07927787       0.003
   0.09712424  0.11017710  0.07927787       0.007
   0.12285520  0.11929872  0.07927787       0.007
   0.14858616  0.12842035  0.07927787       0.007
  -0.03153056  0.06456898  0.07927787       0.007
  -0.00579960  0.07369060  0.07927787       0.007
   0.01993136  0.08281223  0.07927787       0.007
   0.09712424  0.13747703  0.07927787       0.003
   0.12285520  0.14659866  0.07927787       0.007
   0.14858616  0.15572028  0.07927787       0.007
  -0.03153056  0.09186891  0.07927787       0.007
  -0.00579960  0.10099053  0.07927787       0.007
   0.01993136  0.11011216  0.07927787       0.007
   0.12285520  0.17389859  0.07927787       0.003
   0.14858616  0.18302021  0.07927787       0.007
  -0.03153056  0.11916884  0.07927787       0.007
  -0.00579960  0.12829047  0.07927787       0.007
   0.01993136  0.13741209  0.07927787       0.007
   0.14858616  0.21032015  0.07927787       0.003
  -0.03153056  0.14646878  0.07927787       0.007
  -0.00579960  0.15559040  0.07927787       0.007
   0.01993136  0.16471203  0.07927787       0.007
  -0.03153056 -0.04463076  0.07927787       0.003
  -0.00579960 -0.03550913  0.07927787       0.007
   0.01993136 -0.02638751  0.07927787       0.007
  -0.00579960 -0.00820920  0.07927787       0.003
   0.01993136  0.00091243  0.07927787       0.007
   0.01993136  0.02821236  0.07927787       0.003
 
 k-points in reciprocal lattice and weights: EA                                      
   0.00000000  0.00000000  0.00000000       0.002
   0.12500000  0.00000000  0.00000000       0.007
   0.25000000  0.00000000  0.00000000       0.007
   0.37500000  0.00000000  0.00000000       0.007
   0.50000000  0.00000000  0.00000000       0.003
   0.12500000  0.12500000  0.00000000       0.003
   0.25000000  0.12500000  0.00000000       0.007
   0.37500000  0.12500000  0.00000000       0.007
   0.50000000  0.12500000  0.00000000       0.007
  -0.37500000  0.12500000  0.00000000       0.007
  -0.25000000  0.12500000  0.00000000       0.007
  -0.12500000  0.12500000  0.00000000       0.003
   0.25000000  0.25000000  0.00000000       0.003
   0.37500000  0.25000000  0.00000000       0.007
   0.50000000  0.25000000  0.00000000       0.007
  -0.37500000  0.25000000  0.00000000       0.007
  -0.25000000  0.25000000  0.00000000       0.003
   0.37500000  0.37500000  0.00000000       0.003
   0.50000000  0.37500000  0.00000000       0.007
  -0.37500000  0.37500000  0.00000000       0.003
   0.50000000  0.50000000  0.00000000       0.002
   0.00000000 -0.00000000  0.11111111       0.003
   0.12500000 -0.00000000  0.11111111       0.007
   0.25000000  0.00000000  0.11111111       0.007
   0.37500000 -0.00000000  0.11111111       0.007
   0.50000000 -0.00000000  0.11111111       0.007
  -0.37500000  0.00000000  0.11111111       0.007
  -0.25000000 -0.00000000  0.11111111       0.007
  -0.12500000 -0.00000000  0.11111111       0.007
   0.12500000  0.12500000  0.11111111       0.003
   0.25000000  0.12500000  0.11111111       0.007
   0.37500000  0.12500000  0.11111111       0.007
   0.50000000  0.12500000  0.11111111       0.007
  -0.37500000  0.12500000  0.11111111       0.007
  -0.25000000  0.12500000  0.11111111       0.007
  -0.12500000  0.12500000  0.11111111       0.007
   0.25000000  0.25000000  0.11111111       0.003
   0.37500000  0.25000000  0.11111111       0.007
   0.50000000  0.25000000  0.11111111       0.007
  -0.37500000  0.25000000  0.11111111       0.007
  -0.25000000  0.25000000  0.11111111       0.007
  -0.12500000  0.25000000  0.11111111       0.007
   0.37500000  0.37500000  0.11111111       0.003
   0.50000000  0.37500000  0.11111111       0.007
  -0.37500000  0.37500000  0.11111111       0.007
  -0.25000000  0.37500000  0.11111111       0.007
  -0.12500000  0.37500000  0.11111111       0.007
   0.50000000  0.50000000  0.11111111       0.003
  -0.37500000  0.50000000  0.11111111       0.007
  -0.25000000  0.50000000  0.11111111       0.007
  -0.12500000  0.50000000  0.11111111       0.007
  -0.37500000 -0.37500000  0.11111111       0.003
  -0.25000000 -0.37500000  0.11111111       0.007
  -0.12500000 -0.37500000  0.11111111       0.007
  -0.25000000 -0.25000000  0.11111111       0.003
  -0.12500000 -0.25000000  0.11111111       0.007
  -0.12500000 -0.12500000  0.11111111       0.003
  -0.00000000 -0.00000000  0.22222222       0.003
   0.12500000 -0.00000000  0.22222222       0.007
   0.25000000 -0.00000000  0.22222222       0.007
   0.37500000 -0.00000000  0.22222222       0.007
   0.50000000 -0.00000000  0.22222222       0.007
  -0.37500000 -0.00000000  0.22222222       0.007
  -0.25000000 -0.00000000  0.22222222       0.007
  -0.12500000 -0.00000000  0.22222222       0.007
   0.12500000  0.12500000  0.22222222       0.003
   0.25000000  0.12500000  0.22222222       0.007
   0.37500000  0.12500000  0.22222222       0.007
   0.50000000  0.12500000  0.22222222       0.007
  -0.37500000  0.12500000  0.22222222       0.007
  -0.25000000  0.12500000  0.22222222       0.007
  -0.12500000  0.12500000  0.22222222       0.007
   0.25000000  0.25000000  0.22222222       0.003
   0.37500000  0.25000000  0.22222222       0.007
   0.50000000  0.25000000  0.22222222       0.007
  -0.37500000  0.25000000  0.22222222       0.007
  -0.25000000  0.25000000  0.22222222       0.007
  -0.12500000  0.25000000  0.22222222       0.007
   0.37500000  0.37500000  0.22222222       0.003
   0.50000000  0.37500000  0.22222222       0.007
  -0.37500000  0.37500000  0.22222222       0.007
  -0.25000000  0.37500000  0.22222222       0.007
  -0.12500000  0.37500000  0.22222222       0.007
   0.50000000  0.50000000  0.22222222       0.003
  -0.37500000  0.50000000  0.22222222       0.007
  -0.25000000  0.50000000  0.22222222       0.007
  -0.12500000  0.50000000  0.22222222       0.007
  -0.37500000 -0.37500000  0.22222222       0.003
  -0.25000000 -0.37500000  0.22222222       0.007
  -0.12500000 -0.37500000  0.22222222       0.007
  -0.25000000 -0.25000000  0.22222222       0.003
  -0.12500000 -0.25000000  0.22222222       0.007
  -0.12500000 -0.12500000  0.22222222       0.003
   0.00000000 -0.00000000  0.33333333       0.003
   0.12500000  0.00000000  0.33333333       0.007
   0.25000000 -0.00000000  0.33333333       0.007
   0.37500000 -0.00000000  0.33333333       0.007
   0.50000000 -0.00000000  0.33333333       0.007
  -0.37500000 -0.00000000  0.33333333       0.007
  -0.25000000 -0.00000000  0.33333333       0.007
  -0.12500000 -0.00000000  0.33333333       0.007
   0.12500000  0.12500000  0.33333333       0.003
   0.25000000  0.12500000  0.33333333       0.007
   0.37500000  0.12500000  0.33333333       0.007
   0.50000000  0.12500000  0.33333333       0.007
  -0.37500000  0.12500000  0.33333333       0.007
  -0.25000000  0.12500000  0.33333333       0.007
  -0.12500000  0.12500000  0.33333333       0.007
   0.25000000  0.25000000  0.33333333       0.003
   0.37500000  0.25000000  0.33333333       0.007
   0.50000000  0.25000000  0.33333333       0.007
  -0.37500000  0.25000000  0.33333333       0.007
  -0.25000000  0.25000000  0.33333333       0.007
  -0.12500000  0.25000000  0.33333333       0.007
   0.37500000  0.37500000  0.33333333       0.003
   0.50000000  0.37500000  0.33333333       0.007
  -0.37500000  0.37500000  0.33333333       0.007
  -0.25000000  0.37500000  0.33333333       0.007
  -0.12500000  0.37500000  0.33333333       0.007
   0.50000000  0.50000000  0.33333333       0.003
  -0.37500000  0.50000000  0.33333333       0.007
  -0.25000000  0.50000000  0.33333333       0.007
  -0.12500000  0.50000000  0.33333333       0.007
  -0.37500000 -0.37500000  0.33333333       0.003
  -0.25000000 -0.37500000  0.33333333       0.007
  -0.12500000 -0.37500000  0.33333333       0.007
  -0.25000000 -0.25000000  0.33333333       0.003
  -0.12500000 -0.25000000  0.33333333       0.007
  -0.12500000 -0.12500000  0.33333333       0.003
  -0.00000000 -0.00000000  0.44444444       0.003
   0.12500000 -0.00000000  0.44444444       0.007
   0.25000000 -0.00000000  0.44444444       0.007
   0.37500000 -0.00000000  0.44444444       0.007
   0.50000000 -0.00000000  0.44444444       0.007
  -0.37500000 -0.00000000  0.44444444       0.007
  -0.25000000 -0.00000000  0.44444444       0.007
  -0.12500000 -0.00000000  0.44444444       0.007
   0.12500000  0.12500000  0.44444444       0.003
   0.25000000  0.12500000  0.44444444       0.007
   0.37500000  0.12500000  0.44444444       0.007
   0.50000000  0.12500000  0.44444444       0.007
  -0.37500000  0.12500000  0.44444444       0.007
  -0.25000000  0.12500000  0.44444444       0.007
  -0.12500000  0.12500000  0.44444444       0.007
   0.25000000  0.25000000  0.44444444       0.003
   0.37500000  0.25000000  0.44444444       0.007
   0.50000000  0.25000000  0.44444444       0.007
  -0.37500000  0.25000000  0.44444444       0.007
  -0.25000000  0.25000000  0.44444444       0.007
  -0.12500000  0.25000000  0.44444444       0.007
   0.37500000  0.37500000  0.44444444       0.003
   0.50000000  0.37500000  0.44444444       0.007
  -0.37500000  0.37500000  0.44444444       0.007
  -0.25000000  0.37500000  0.44444444       0.007
  -0.12500000  0.37500000  0.44444444       0.007
   0.50000000  0.50000000  0.44444444       0.003
  -0.37500000  0.50000000  0.44444444       0.007
  -0.25000000  0.50000000  0.44444444       0.007
  -0.12500000  0.50000000  0.44444444       0.007
  -0.37500000 -0.37500000  0.44444444       0.003
  -0.25000000 -0.37500000  0.44444444       0.007
  -0.12500000 -0.37500000  0.44444444       0.007
  -0.25000000 -0.25000000  0.44444444       0.003
  -0.12500000 -0.25000000  0.44444444       0.007
  -0.12500000 -0.12500000  0.44444444       0.003
 
 position of ions in fractional coordinates (direct lattice) 
   0.50000000  0.50000000  0.50000000
   0.50000000  0.00000000  0.00000000
   0.00000000  0.00000000  0.50000000
   0.00000000  0.50000000  0.00000000
   0.25000000  0.25000000  0.00000000
   0.24535000  0.74535000  0.99070000
   0.75000000  0.75000000  0.00000000
   0.75465000  0.25465000  0.00930000
   0.74535000  0.75465000  0.50000000
   0.25465000  0.24535000  0.50000000
   0.73443000  0.23443000  0.96886000
   0.26557000  0.76557000  0.03114000
   0.23443000  0.26557000  0.50000000
   0.76557000  0.73443000  0.50000000
 
 position of ions in cartesian coordinates  (Angst):
   1.61739433  2.28938287  0.00500097
   2.42898043  0.00000000 -1.39903951
   0.00000000  0.00000000  2.80308000
  -0.81158610  2.28938287 -1.39903951
   0.80869717  1.14469144 -1.39903951
  -0.01793070  3.41278305  2.78196582
   2.42609150  3.43407431 -4.19711854
   3.25271936  1.16598270 -2.77196387
   2.39595423  3.45536557 -1.39403854
   0.83883443  1.12340017  1.40404049
   3.18731193  1.07340005  2.72063733
   0.04747673  3.50536569 -2.71063539
   0.70778592  1.21598282  1.40404049
   2.52700274  3.36278292 -1.39403854
 


--------------------------------------------------------------------------------------------------------


 k-point   1 :   0.0000 0.0000 0.0000  plane waves:    4183
 k-point   2 :   0.1250 0.0000 0.0000  plane waves:    4169
 k-point   3 :   0.2500 0.0000 0.0000  plane waves:    4169
 k-point   4 :   0.3750 0.0000 0.0000  plane waves:    4176
 k-point   5 :   0.5000 0.0000 0.0000  plane waves:    4158
 k-point   6 :   0.1250 0.1250 0.0000  plane waves:    4146
 k-point   7 :   0.2500 0.1250 0.0000  plane waves:    4163
 k-point   8 :   0.3750 0.1250 0.0000  plane waves:    4167
 k-point   9 :   0.5000 0.1250 0.0000  plane waves:    4169
 k-point  10 :  -0.3750 0.1250 0.0000  plane waves:    4160
 k-point  11 :  -0.2500 0.1250 0.0000  plane waves:    4154
 k-point  12 :  -0.1250 0.1250 0.0000  plane waves:    4164
 k-point  13 :   0.2500 0.2500 0.0000  plane waves:    4161
 k-point  14 :   0.3750 0.2500 0.0000  plane waves:    4165
 k-point  15 :   0.5000 0.2500 0.0000  plane waves:    4163
 k-point  16 :  -0.3750 0.2500 0.0000  plane waves:    4147
 k-point  17 :  -0.2500 0.2500 0.0000  plane waves:    4168
 k-point  18 :   0.3750 0.3750 0.0000  plane waves:    4167
 k-point  19 :   0.5000 0.3750 0.0000  plane waves:    4160
 k-point  20 :  -0.3750 0.3750 0.0000  plane waves:    4136
 k-point  21 :   0.5000 0.5000 0.0000  plane waves:    4184
 k-point  22 :   0.0000-0.0000 0.1111  plane waves:    4160
 k-point  23 :   0.1250-0.0000 0.1111  plane waves:    4150
 k-point  24 :   0.2500 0.0000 0.1111  plane waves:    4162
 k-point  25 :   0.3750-0.0000 0.1111  plane waves:    4171
 k-point  26 :   0.5000-0.0000 0.1111  plane waves:    4169
 k-point  27 :  -0.3750 0.0000 0.1111  plane waves:    4160
 k-point  28 :  -0.2500-0.0000 0.1111  plane waves:    4146
 k-point  29 :  -0.1250-0.0000 0.1111  plane waves:    4167
 k-point  30 :   0.1250 0.1250 0.1111  plane waves:    4157
 k-point  31 :   0.2500 0.1250 0.1111  plane waves:    4154
 k-point  32 :   0.3750 0.1250 0.1111  plane waves:    4158
 k-point  33 :   0.5000 0.1250 0.1111  plane waves:    4158
 k-point  34 :  -0.3750 0.1250 0.1111  plane waves:    4159
 k-point  35 :  -0.2500 0.1250 0.1111  plane waves:    4151
 k-point  36 :  -0.1250 0.1250 0.1111  plane waves:    4147
 k-point  37 :   0.2500 0.2500 0.1111  plane waves:    4166
 k-point  38 :   0.3750 0.2500 0.1111  plane waves:    4166
 k-point  39 :   0.5000 0.2500 0.1111  plane waves:    4161
 k-point  40 :  -0.3750 0.2500 0.1111  plane waves:    4148
 k-point  41 :  -0.2500 0.2500 0.1111  plane waves:    4156
 k-point  42 :  -0.1250 0.2500 0.1111  plane waves:    4158
 k-point  43 :   0.3750 0.3750 0.1111  plane waves:    4172
 k-point  44 :   0.5000 0.3750 0.1111  plane waves:    4160
 k-point  45 :  -0.3750 0.3750 0.1111  plane waves:    4158
 k-point  46 :  -0.2500 0.3750 0.1111  plane waves:    4158
 k-point  47 :  -0.1250 0.3750 0.1111  plane waves:    4167
 k-point  48 :   0.5000 0.5000 0.1111  plane waves:    4172
 k-point  49 :  -0.3750 0.5000 0.1111  plane waves:    4166
 k-point  50 :  -0.2500 0.5000 0.1111  plane waves:    4160
 k-point  51 :  -0.1250 0.5000 0.1111  plane waves:    4164
 k-point  52 :  -0.3750-0.3750 0.1111  plane waves:    4169
 k-point  53 :  -0.2500-0.3750 0.1111  plane waves:    4158
 k-point  54 :  -0.1250-0.3750 0.1111  plane waves:    4169
 k-point  55 :  -0.2500-0.2500 0.1111  plane waves:    4157
 k-point  56 :  -0.1250-0.2500 0.1111  plane waves:    4161
 k-point  57 :  -0.1250-0.1250 0.1111  plane waves:    4166
 k-point  58 :  -0.0000-0.0000 0.2222  plane waves:    4144
 k-point  59 :   0.1250-0.0000 0.2222  plane waves:    4148
 k-point  60 :   0.2500-0.0000 0.2222  plane waves:    4158
 k-point  61 :   0.3750-0.0000 0.2222  plane waves:    4157
 k-point  62 :   0.5000-0.0000 0.2222  plane waves:    4164
 k-point  63 :  -0.3750-0.0000 0.2222  plane waves:    4158
 k-point  64 :  -0.2500-0.0000 0.2222  plane waves:    4161
 k-point  65 :  -0.1250-0.0000 0.2222  plane waves:    4150
 k-point  66 :   0.1250 0.1250 0.2222  plane waves:    4161
 k-point  67 :   0.2500 0.1250 0.2222  plane waves:    4165
 k-point  68 :   0.3750 0.1250 0.2222  plane waves:    4164
 k-point  69 :   0.5000 0.1250 0.2222  plane waves:    4155
 k-point  70 :  -0.3750 0.1250 0.2222  plane waves:    4163
 k-point  71 :  -0.2500 0.1250 0.2222  plane waves:    4155
 k-point  72 :  -0.1250 0.1250 0.2222  plane waves:    4158
 k-point  73 :   0.2500 0.2500 0.2222  plane waves:    4168
 k-point  74 :   0.3750 0.2500 0.2222  plane waves:    4166
 k-point  75 :   0.5000 0.2500 0.2222  plane waves:    4163
 k-point  76 :  -0.3750 0.2500 0.2222  plane waves:    4156
 k-point  77 :  -0.2500 0.2500 0.2222  plane waves:    4164
 k-point  78 :  -0.1250 0.2500 0.2222  plane waves:    4162
 k-point  79 :   0.3750 0.3750 0.2222  plane waves:    4176
 k-point  80 :   0.5000 0.3750 0.2222  plane waves:    4168
 k-point  81 :  -0.3750 0.3750 0.2222  plane waves:    4170
 k-point  82 :  -0.2500 0.3750 0.2222  plane waves:    4170
 k-point  83 :  -0.1250 0.3750 0.2222  plane waves:    4159
 k-point  84 :   0.5000 0.5000 0.2222  plane waves:    4168
 k-point  85 :  -0.3750 0.5000 0.2222  plane waves:    4170
 k-point  86 :  -0.2500 0.5000 0.2222  plane waves:    4163
 k-point  87 :  -0.1250 0.5000 0.2222  plane waves:    4164
 k-point  88 :  -0.3750-0.3750 0.2222  plane waves:    4159
 k-point  89 :  -0.2500-0.3750 0.2222  plane waves:    4152
 k-point  90 :  -0.1250-0.3750 0.2222  plane waves:    4160
 k-point  91 :  -0.2500-0.2500 0.2222  plane waves:    4147
 k-point  92 :  -0.1250-0.2500 0.2222  plane waves:    4152
 k-point  93 :  -0.1250-0.1250 0.2222  plane waves:    4151
 k-point  94 :   0.0000-0.0000 0.3333  plane waves:    4142
 k-point  95 :   0.1250 0.0000 0.3333  plane waves:    4156
 k-point  96 :   0.2500-0.0000 0.3333  plane waves:    4167
 k-point  97 :   0.3750-0.0000 0.3333  plane waves:    4163
 k-point  98 :   0.5000-0.0000 0.3333  plane waves:    4170
 k-point  99 :  -0.3750-0.0000 0.3333  plane waves:    4174
 k-point 100 :  -0.2500-0.0000 0.3333  plane waves:    4167
 k-point 101 :  -0.1250-0.0000 0.3333  plane waves:    4151
 k-point 102 :   0.1250 0.1250 0.3333  plane waves:    4170
 k-point 103 :   0.2500 0.1250 0.3333  plane waves:    4171
 k-point 104 :   0.3750 0.1250 0.3333  plane waves:    4160
 k-point 105 :   0.5000 0.1250 0.3333  plane waves:    4165
 k-point 106 :  -0.3750 0.1250 0.3333  plane waves:    4165
 k-point 107 :  -0.2500 0.1250 0.3333  plane waves:    4159
 k-point 108 :  -0.1250 0.1250 0.3333  plane waves:    4155
 k-point 109 :   0.2500 0.2500 0.3333  plane waves:    4166
 k-point 110 :   0.3750 0.2500 0.3333  plane waves:    4166
 k-point 111 :   0.5000 0.2500 0.3333  plane waves:    4163
 k-point 112 :  -0.3750 0.2500 0.3333  plane waves:    4167
 k-point 113 :  -0.2500 0.2500 0.3333  plane waves:    4163
 k-point 114 :  -0.1250 0.2500 0.3333  plane waves:    4167
 k-point 115 :   0.3750 0.3750 0.3333  plane waves:    4165
 k-point 116 :   0.5000 0.3750 0.3333  plane waves:    4166
 k-point 117 :  -0.3750 0.3750 0.3333  plane waves:    4170
 k-point 118 :  -0.2500 0.3750 0.3333  plane waves:    4165
 k-point 119 :  -0.1250 0.3750 0.3333  plane waves:    4160
 k-point 120 :   0.5000 0.5000 0.3333  plane waves:    4172
 k-point 121 :  -0.3750 0.5000 0.3333  plane waves:    4163
 k-point 122 :  -0.2500 0.5000 0.3333  plane waves:    4154
 k-point 123 :  -0.1250 0.5000 0.3333  plane waves:    4161
 k-point 124 :  -0.3750-0.3750 0.3333  plane waves:    4148
 k-point 125 :  -0.2500-0.3750 0.3333  plane waves:    4144
 k-point 126 :  -0.1250-0.3750 0.3333  plane waves:    4161
 k-point 127 :  -0.2500-0.2500 0.3333  plane waves:    4147
 k-point 128 :  -0.1250-0.2500 0.3333  plane waves:    4156
 k-point 129 :  -0.1250-0.1250 0.3333  plane waves:    4151
 k-point 130 :  -0.0000-0.0000 0.4444  plane waves:    4164
 k-point 131 :   0.1250-0.0000 0.4444  plane waves:    4161
 k-point 132 :   0.2500-0.0000 0.4444  plane waves:    4157
 k-point 133 :   0.3750-0.0000 0.4444  plane waves:    4159
 k-point 134 :   0.5000-0.0000 0.4444  plane waves:    4157
 k-point 135 :  -0.3750-0.0000 0.4444  plane waves:    4172
 k-point 136 :  -0.2500-0.0000 0.4444  plane waves:    4157
 k-point 137 :  -0.1250-0.0000 0.4444  plane waves:    4157
 k-point 138 :   0.1250 0.1250 0.4444  plane waves:    4167
 k-point 139 :   0.2500 0.1250 0.4444  plane waves:    4165
 k-point 140 :   0.3750 0.1250 0.4444  plane waves:    4168
 k-point 141 :   0.5000 0.1250 0.4444  plane waves:    4160
 k-point 142 :  -0.3750 0.1250 0.4444  plane waves:    4168
 k-point 143 :  -0.2500 0.1250 0.4444  plane waves:    4164
 k-point 144 :  -0.1250 0.1250 0.4444  plane waves:    4165
 k-point 145 :   0.2500 0.2500 0.4444  plane waves:    4166
 k-point 146 :   0.3750 0.2500 0.4444  plane waves:    4161
 k-point 147 :   0.5000 0.2500 0.4444  plane waves:    4163
 k-point 148 :  -0.3750 0.2500 0.4444  plane waves:    4167
 k-point 149 :  -0.2500 0.2500 0.4444  plane waves:    4171
 k-point 150 :  -0.1250 0.2500 0.4444  plane waves:    4172
 k-point 151 :   0.3750 0.3750 0.4444  plane waves:    4170
 k-point 152 :   0.5000 0.3750 0.4444  plane waves:    4163
 k-point 153 :  -0.3750 0.3750 0.4444  plane waves:    4169
 k-point 154 :  -0.2500 0.3750 0.4444  plane waves:    4174
 k-point 155 :  -0.1250 0.3750 0.4444  plane waves:    4162
 k-point 156 :   0.5000 0.5000 0.4444  plane waves:    4166
 k-point 157 :  -0.3750 0.5000 0.4444  plane waves:    4167
 k-point 158 :  -0.2500 0.5000 0.4444  plane waves:    4156
 k-point 159 :  -0.1250 0.5000 0.4444  plane waves:    4163
 k-point 160 :  -0.3750-0.3750 0.4444  plane waves:    4149
 k-point 161 :  -0.2500-0.3750 0.4444  plane waves:    4154
 k-point 162 :  -0.1250-0.3750 0.4444  plane waves:    4175
 k-point 163 :  -0.2500-0.2500 0.4444  plane waves:    4156
 k-point 164 :  -0.1250-0.2500 0.4444  plane waves:    4162
 k-point 165 :  -0.1250-0.1250 0.4444  plane waves:    4161

 maximum and minimum number of plane-waves per node :      2111     2058

 maximum number of plane-waves:      4184
 maximum index in each direction: 
   IXMAX=   11   IYMAX=   11   IZMAX=   11
   IXMIN=  -11   IYMIN=  -11   IZMIN=  -11


 parallel 3D FFT for wavefunctions:
    minimum data exchange during FFTs selected (reduces bandwidth)
 parallel 3D FFT for charge:
    minimum data exchange during FFTs selected (reduces bandwidth)


 total amount of memory used by VASP MPI-rank0   412275. kBytes
=======================================================================

   base      :      30000. kBytes
   nonl-proj :     151016. kBytes
   fftplans  :      12481. kBytes
   grid      :       9393. kBytes
   one-center:        108. kBytes
   wavefun   :     209277. kBytes
 
     INWAV:  cpu time    0.0001: real time    0.0001
 Broyden mixing: mesh for mixing (old mesh)
   NGX = 23   NGY = 23   NGZ = 23
  (NGX  = 96   NGY  = 96   NGZ  = 96)
  gives a total of  12167 points

 initial charge density was supplied:
 charge density of overlapping atoms calculated
 number of electron     112.0000000 magnetization 
 keeping initial charge density in first step


--------------------------------------------------------------------------------------------------------


 Maximum index for augmentation-charges        25086 (set IRDMAX)


--------------------------------------------------------------------------------------------------------


 First call to EWALD:  gamma=   0.355
 Maximum number of real-space cells 3x 3x 3
 Maximum number of reciprocal cells 3x 3x 3

[...]
  ---------------------------------------------------
  free energy    TOTEN  =     15052.53239473 eV

  energy without entropy =    15052.53445664  energy(sigma->0) =    15052.53342569


--------------------------------------------------------------------------------------------------------




--------------------------------------- Iteration      1(  64)  ---------------------------------------


    POTLOK:  cpu time    0.0982: real time    0.0987
    SETDIJ:  cpu time    0.6544: real time    0.6583
    TRIAL :  cpu time   20.6491: real time   20.8126
    CORREC:  cpu time    7.1382: real time    7.1897
    CHARGE:  cpu time    2.3232: real time    2.3381
    --------------------------------------------
      LOOP:  cpu time   30.8647: real time   31.1007

 eigenvalue-minimisations  :     0
 total energy-change (2. order) : 0.3278255E-06  ( 0.2291696E-11)
 number of electron     112.0000002 magnetization 
 augmentation part       25.7489698 magnetization 

 Free energy of the ion-electron system (eV)
  ---------------------------------------------------
  alpha Z        PSCENC =       821.97959248
  Ewald energy   TEWEN  =      6923.40848331
  -Hartree energ DENC   =     -4579.30256250
  -exchange      EXHF   =         0.00000000
  -V(xc)+E(xc)   XCENC  =       580.32098121
  PAW double counting   = 236099794.85012236******************
  entropy T*S    EENTRO =        -0.00206191
  eigenvalues    EBANDS =      -934.60582945
  atomic energy  EATOM  =     11870.63976582
  ---------------------------------------------------
  free energy    TOTEN  =     15052.53239506 eV

  energy without entropy =    15052.53445697  energy(sigma->0) =    15052.53342601


--------------------------------------------------------------------------------------------------------




--------------------------------------- Iteration      1(  65)  ---------------------------------------


    POTLOK:  cpu time    0.0973: real time    0.0978
    SETDIJ:  cpu time    0.6588: real time    0.6629
    TRIAL :  cpu time   20.5144: real time   20.6856
    CORREC:  cpu time    7.9061: real time    7.9647
    CHARGE:  cpu time    2.3201: real time    2.3342
    --------------------------------------------
      LOOP:  cpu time   31.4973: real time   31.7484

 eigenvalue-minimisations  :     0
 total energy-change (2. order) :-0.1192093E-06  (-0.1926790E-12)
 number of electron     112.0000002 magnetization 
 augmentation part       25.7489698 magnetization 

 Free energy of the ion-electron system (eV)
  ---------------------------------------------------
  alpha Z        PSCENC =       821.97959248
  Ewald energy   TEWEN  =      6923.40848331
  -Hartree energ DENC   =     -4579.30255230
  -exchange      EXHF   =         0.00000000
  -V(xc)+E(xc)   XCENC  =       580.32097963
  PAW double counting   = 236099841.22597468******************
  entropy T*S    EENTRO =        -0.00206191
  eigenvalues    EBANDS =      -934.60582273
  atomic energy  EATOM  =     11870.63976582
  ---------------------------------------------------
  free energy    TOTEN  =     15052.53239494 eV

  energy without entropy =    15052.53445685  energy(sigma->0) =    15052.53342589


--------------------------------------------------------------------------------------------------------




--------------------------------------- Iteration      1(  66)  ---------------------------------------


    POTLOK:  cpu time    0.0934: real time    0.0941
    SETDIJ:  cpu time    0.6439: real time    0.6479
    TRIAL :  cpu time   20.6487: real time   20.8168
    CORREC:  cpu time    6.9342: real time    6.9847
    CHARGE:  cpu time    2.3307: real time    2.3443
    --------------------------------------------
      LOOP:  cpu time   30.6529: real time   30.8912

 eigenvalue-minimisations  :     0
 total energy-change (2. order) : 0.2384186E-06  ( 0.2617895E-12)
 number of electron     112.0000002 magnetization 
 augmentation part       25.7489694 magnetization 

 Free energy of the ion-electron system (eV)
  ---------------------------------------------------
  alpha Z        PSCENC =       821.97959248
  Ewald energy   TEWEN  =      6923.40848331
  -Hartree energ DENC   =     -4579.30255229
  -exchange      EXHF   =         0.00000000
  -V(xc)+E(xc)   XCENC  =       580.32097963
  PAW double counting   = 236099841.24477035******************
  entropy T*S    EENTRO =        -0.00206191
  eigenvalues    EBANDS =      -934.60582245
  atomic energy  EATOM  =     11870.63976582
  ---------------------------------------------------
  free energy    TOTEN  =     15052.53239518 eV

  energy without entropy =    15052.53445709  energy(sigma->0) =    15052.53342613


--------------------------------------------------------------------------------------------------------




--------------------------------------- Iteration      1(  67)  ---------------------------------------


    POTLOK:  cpu time    0.0937: real time    0.0942
    SETDIJ:  cpu time    0.6548: real time    0.6588
    TRIAL :  cpu time   20.8299: real time   21.0014
    CORREC:  cpu time    7.0739: real time    7.1255
    CHARGE:  cpu time    2.2587: real time    2.2735
    --------------------------------------------
      LOOP:  cpu time   30.9127: real time   31.1553

 eigenvalue-minimisations  :     0
 total energy-change (2. order) :-0.5066395E-06  ( 0.1764625E-11)
 number of electron     112.0000002 magnetization 
 augmentation part       25.7489690 magnetization 

 Free energy of the ion-electron system (eV)
  ---------------------------------------------------
  alpha Z        PSCENC =       821.97959248
  Ewald energy   TEWEN  =      6923.40848331
  -Hartree energ DENC   =     -4579.30253557
  -exchange      EXHF   =         0.00000000
  -V(xc)+E(xc)   XCENC  =       580.32097800
  PAW double counting   = 236099875.83493218******************
  entropy T*S    EENTRO =        -0.00206191
  eigenvalues    EBANDS =      -934.60582333
  atomic energy  EATOM  =     11870.63976582
  ---------------------------------------------------
  free energy    TOTEN  =     15052.53239467 eV

  energy without entropy =    15052.53445658  energy(sigma->0) =    15052.53342563


--------------------------------------------------------------------------------------------------------




--------------------------------------- Iteration      1(  68)  ---------------------------------------


    POTLOK:  cpu time    0.0964: real time    0.0970
    SETDIJ:  cpu time    0.6609: real time    0.6648
    TRIAL :  cpu time   20.7141: real time   20.8762
    CORREC:  cpu time    6.9297: real time    6.9805
    CHARGE:  cpu time    2.3289: real time    2.3419
    --------------------------------------------
      LOOP:  cpu time   30.7322: real time   30.9633

 eigenvalue-minimisations  :     0
 total energy-change (2. order) :-0.2980232E-07  ( 0.6605243E-12)
 number of electron     112.0000002 magnetization 
 augmentation part       25.7489688 magnetization 

 Free energy of the ion-electron system (eV)
  ---------------------------------------------------
  alpha Z        PSCENC =       821.97959248
  Ewald energy   TEWEN  =      6923.40848331
  -Hartree energ DENC   =     -4579.30251461
  -exchange      EXHF   =         0.00000000
  -V(xc)+E(xc)   XCENC  =       580.32097640
  PAW double counting   = 236099902.00255436******************
  entropy T*S    EENTRO =        -0.00206191
  eigenvalues    EBANDS =      -934.60583109
  atomic energy  EATOM  =     11870.63976582
  ---------------------------------------------------
  free energy    TOTEN  =     15052.53239464 eV

  energy without entropy =    15052.53445655  energy(sigma->0) =    15052.53342560


--------------------------------------------------------------------------------------------------------




--------------------------------------- Iteration      1(  69)  ---------------------------------------


    POTLOK:  cpu time    0.0957: real time    0.0962
    SETDIJ:  cpu time    0.6574: real time    0.6612
    TRIAL :  cpu time   20.4273: real time   20.5935
    CORREC:  cpu time    7.9900: real time    8.0487
    CHARGE:  cpu time    2.3344: real time    2.3492
    --------------------------------------------
      LOOP:  cpu time   31.5077: real time   31.7521

 eigenvalue-minimisations  :     0
 total energy-change (2. order) :-0.2980232E-07  (-0.2677958E-13)
 number of electron     112.0000002 magnetization 
 augmentation part       25.7489688 magnetization 

 Free energy of the ion-electron system (eV)
  ---------------------------------------------------
  alpha Z        PSCENC =       821.97959248
  Ewald energy   TEWEN  =      6923.40848331
  -Hartree energ DENC   =     -4579.30249663
  -exchange      EXHF   =         0.00000000
  -V(xc)+E(xc)   XCENC  =       580.32097504
  PAW double counting   = 236099921.86508235******************
  entropy T*S    EENTRO =        -0.00206191
  eigenvalues    EBANDS =      -934.60583684
  atomic energy  EATOM  =     11870.63976582
  ---------------------------------------------------
  free energy    TOTEN  =     15052.53239461 eV

  energy without entropy =    15052.53445652  energy(sigma->0) =    15052.53342557


--------------------------------------------------------------------------------------------------------




--------------------------------------- Iteration      1(  70)  ---------------------------------------


    POTLOK:  cpu time    0.0977: real time    0.0983
    SETDIJ:  cpu time    0.6458: real time    0.6499
    TRIAL :  cpu time   20.3172: real time   20.4809
    CORREC:  cpu time    7.8199: real time    7.8787
    CHARGE:  cpu time    2.4302: real time    2.4443
    --------------------------------------------
      LOOP:  cpu time   31.3133: real time   31.5553

 eigenvalue-minimisations  :     0
 total energy-change (2. order) : 0.2384186E-06  (-0.9853358E-14)
 number of electron     112.0000002 magnetization 
 augmentation part       25.7489688 magnetization 

 Free energy of the ion-electron system (eV)
  ---------------------------------------------------
  alpha Z        PSCENC =       821.97959248
  Ewald energy   TEWEN  =      6923.40848331
  -Hartree energ DENC   =     -4579.30249662
  -exchange      EXHF   =         0.00000000
  -V(xc)+E(xc)   XCENC  =       580.32097504
  PAW double counting   = 236099921.86933580******************
  entropy T*S    EENTRO =        -0.00206191
  eigenvalues    EBANDS =      -934.60583679
  atomic energy  EATOM  =     11870.63976582
  ---------------------------------------------------
  free energy    TOTEN  =     15052.53239485 eV

  energy without entropy =    15052.53445676  energy(sigma->0) =    15052.53342580


--------------------------------------------------------------------------------------------------------




--------------------------------------- Iteration      1(  71)  ---------------------------------------


    POTLOK:  cpu time    0.0923: real time    0.0929
    SETDIJ:  cpu time    0.6556: real time    0.6597
    TRIAL :  cpu time   20.1977: real time   20.3591
    CORREC:  cpu time    7.6136: real time    7.6673
    CHARGE:  cpu time    2.2630: real time    2.2759
    --------------------------------------------
      LOOP:  cpu time   30.8228: real time   31.0575

 eigenvalue-minimisations  :     0
 total energy-change (2. order) :-0.4172325E-06  (-0.2292992E-13)
 number of electron     112.0000002 magnetization 
 augmentation part       25.7489688 magnetization 

 Free energy of the ion-electron system (eV)
  ---------------------------------------------------
  alpha Z        PSCENC =       821.97959248
  Ewald energy   TEWEN  =      6923.40848331
  -Hartree energ DENC   =     -4579.30249662
  -exchange      EXHF   =         0.00000000
  -V(xc)+E(xc)   XCENC  =       580.32097504
  PAW double counting   = 236099921.87093210******************
  entropy T*S    EENTRO =        -0.00206191
  eigenvalues    EBANDS =      -934.60583736
  atomic energy  EATOM  =     11870.63976582
  ---------------------------------------------------
  free energy    TOTEN  =     15052.53239443 eV

  energy without entropy =    15052.53445634  energy(sigma->0) =    15052.53342539


--------------------------------------------------------------------------------------------------------




--------------------------------------- Iteration      1(  72)  ---------------------------------------


    POTLOK:  cpu time    0.0954: real time    0.0960
    SETDIJ:  cpu time    0.6567: real time    0.6607
    TRIAL :  cpu time   20.2445: real time   20.4056
    CORREC:  cpu time    6.8794: real time    6.9294
    CHARGE:  cpu time    2.3248: real time    2.3400
    --------------------------------------------
      LOOP:  cpu time   30.2021: real time   30.4334

 eigenvalue-minimisations  :     0
 total energy-change (2. order) : 0.3576279E-06  ( 0.7111283E-13)
 number of electron     112.0000002 magnetization 
 augmentation part       25.7489685 magnetization 

 Free energy of the ion-electron system (eV)
  ---------------------------------------------------
  alpha Z        PSCENC =       821.97959248
  Ewald energy   TEWEN  =      6923.40848331
  -Hartree energ DENC   =     -4579.30249661
  -exchange      EXHF   =         0.00000000
  -V(xc)+E(xc)   XCENC  =       580.32097504
  PAW double counting   = 236099921.87457231******************
  entropy T*S    EENTRO =        -0.00206191
  eigenvalues    EBANDS =      -934.60583670
  atomic energy  EATOM  =     11870.63976582
  ---------------------------------------------------
  free energy    TOTEN  =     15052.53239479 eV

  energy without entropy =    15052.53445670  energy(sigma->0) =    15052.53342574


--------------------------------------------------------------------------------------------------------




--------------------------------------- Iteration      1(  73)  ---------------------------------------


    POTLOK:  cpu time    0.0969: real time    0.0975
    SETDIJ:  cpu time    0.6576: real time    0.6616
    TRIAL :  cpu time   20.4470: real time   20.6091
    CORREC:  cpu time    6.8991: real time    6.9481
    CHARGE:  cpu time    2.3301: real time    2.3442
    --------------------------------------------
      LOOP:  cpu time   30.4324: real time   30.6623

 eigenvalue-minimisations  :     0
 total energy-change (2. order) :-0.8940697E-07  ( 0.2956397E-13)
 number of electron     112.0000002 magnetization 
 augmentation part       25.7489684 magnetization 

 Free energy of the ion-electron system (eV)
  ---------------------------------------------------
  alpha Z        PSCENC =       821.97959248
  Ewald energy   TEWEN  =      6923.40848331
  -Hartree energ DENC   =     -4579.30248143
  -exchange      EXHF   =         0.00000000
  -V(xc)+E(xc)   XCENC  =       580.32097400
  PAW double counting   = 236099934.86169860******************
  entropy T*S    EENTRO =        -0.00206191
  eigenvalues    EBANDS =      -934.60584436
  atomic energy  EATOM  =     11870.63976582
  ---------------------------------------------------
  free energy    TOTEN  =     15052.53239470 eV

  energy without entropy =    15052.53445661  energy(sigma->0) =    15052.53342565


--------------------------------------------------------------------------------------------------------




--------------------------------------- Iteration      1(  74)  ---------------------------------------


    POTLOK:  cpu time    0.0973: real time    0.0979
    SETDIJ:  cpu time    0.6606: real time    0.6647
    TRIAL :  cpu time   20.2080: real time   20.3659
    CORREC:  cpu time    7.7569: real time    7.8109
    CHARGE:  cpu time    2.2567: real time    2.2698
    --------------------------------------------
      LOOP:  cpu time   30.9816: real time   31.2124

 eigenvalue-minimisations  :     0
 total energy-change (2. order) :-0.8940697E-07  (-0.2277838E-14)
 number of electron     112.0000002 magnetization 
 augmentation part       25.7489684 magnetization 

 Free energy of the ion-electron system (eV)
  ---------------------------------------------------
  alpha Z        PSCENC =       821.97959248
  Ewald energy   TEWEN  =      6923.40848331
  -Hartree energ DENC   =     -4579.30246891
  -exchange      EXHF   =         0.00000000
  -V(xc)+E(xc)   XCENC  =       580.32097313
  PAW double counting   = 236099945.03525802******************
  entropy T*S    EENTRO =        -0.00206191
  eigenvalues    EBANDS =      -934.60585002
  atomic energy  EATOM  =     11870.63976582
  ---------------------------------------------------
  free energy    TOTEN  =     15052.53239461 eV

  energy without entropy =    15052.53445652  energy(sigma->0) =    15052.53342556


--------------------------------------------------------------------------------------------------------




--------------------------------------- Iteration      1(  75)  ---------------------------------------


    POTLOK:  cpu time    0.0977: real time    0.0983
    SETDIJ:  cpu time    0.6700: real time    0.6742
    TRIAL :  cpu time   20.5573: real time   20.7194
    CORREC:  cpu time    7.7008: real time    7.7578
    CHARGE:  cpu time    2.2646: real time    2.2789
    --------------------------------------------
      LOOP:  cpu time   31.2915: real time   31.5310

 eigenvalue-minimisations  :     0
 total energy-change (2. order) : 0.2086163E-06  (-0.1909880E-14)
 number of electron     112.0000002 magnetization 
 augmentation part       25.7489684 magnetization 

 Free energy of the ion-electron system (eV)
  ---------------------------------------------------
  alpha Z        PSCENC =       821.97959248
  Ewald energy   TEWEN  =      6923.40848331
  -Hartree energ DENC   =     -4579.30246891
  -exchange      EXHF   =         0.00000000
  -V(xc)+E(xc)   XCENC  =       580.32097313
  PAW double counting   = 236099945.03574091******************
  entropy T*S    EENTRO =        -0.00206191
  eigenvalues    EBANDS =      -934.60584998
  atomic energy  EATOM  =     11870.63976582
  ---------------------------------------------------
  free energy    TOTEN  =     15052.53239482 eV

  energy without entropy =    15052.53445673  energy(sigma->0) =    15052.53342577


--------------------------------------------------------------------------------------------------------




--------------------------------------- Iteration      1(  76)  ---------------------------------------


    POTLOK:  cpu time    0.0940: real time    0.0945
    SETDIJ:  cpu time    0.6523: real time    0.6566
    TRIAL :  cpu time   20.3701: real time   20.5326
    CORREC:  cpu time    6.8774: real time    6.9289
    CHARGE:  cpu time    2.3057: real time    2.3204
    --------------------------------------------
      LOOP:  cpu time   30.3003: real time   30.5358

 eigenvalue-minimisations  :     0
 total energy-change (2. order) : 0.1490116E-06  ( 0.1771464E-14)
 number of electron     112.0000002 magnetization 
 augmentation part       25.7489682 magnetization 

 Free energy of the ion-electron system (eV)
  ---------------------------------------------------
  alpha Z        PSCENC =       821.97959248
  Ewald energy   TEWEN  =      6923.40848331
  -Hartree energ DENC   =     -4579.30246891
  -exchange      EXHF   =         0.00000000
  -V(xc)+E(xc)   XCENC  =       580.32097313
  PAW double counting   = 236099945.03620774******************
  entropy T*S    EENTRO =        -0.00206191
  eigenvalues    EBANDS =      -934.60584991
  atomic energy  EATOM  =     11870.63976582
  ---------------------------------------------------
  free energy    TOTEN  =     15052.53239497 eV

  energy without entropy =    15052.53445688  energy(sigma->0) =    15052.53342592


--------------------------------------------------------------------------------------------------------




--------------------------------------- Iteration      1(  77)  ---------------------------------------


    POTLOK:  cpu time    0.1003: real time    0.1009
    SETDIJ:  cpu time    0.6727: real time    0.6772
