<?xml version="1.0" encoding="ISO-8859-1"?>
<modeling>
 <generator>
  <i name="program" type="string">vasp </i>
  <i name="version" type="string">6.2.0  </i>
  <i name="subversion" type="string">18Jan21 (build Jan 05 2022 15:41:44) complex                          parallel </i>
  <i name="platform" type="string">LinuxIFC </i>
  <i name="date" type="string">2025 05 07 </i>
  <i name="time" type="string">21:11:05 </i>
 </generator>
 <incar>
  <i type="string" name="SYSTEM">routine with relax: pwdword</i>
  <i type="string" name="PREC">Acc</i>
  <i type="int" name="IALGO">    38</i>
  <i type="string" name="ALGO">A</i>
  <i type="logical" name="ADDGRID"> T  </i>
  <i type="int" name="ICHARG">     2</i>
  <i type="int" name="NELM">   100</i>
  <i type="int" name="NELMIN">     6</i>
  <i name="EDIFF">      0.00000000</i>
  <i type="int" name="NSW">     0</i>
  <i type="int" name="ISIF">    -1</i>
  <i name="SYMPREC">      0.00010000</i>
  <i name="ENCUT">    600.00000000</i>
  <i type="logical" name="LREAL"> F  </i>
  <i type="int" name="ISMEAR">     0</i>
  <i name="SIGMA">      0.02000000</i>
  <i type="logical" name="LASPH"> T  </i>
  <i type="string" name="METAGGA">R2SCAN</i>
  <i type="logical" name="LMIXTAU"> F  </i>
 </incar>
 <primitive_cell>
  <structure name="primitive_cell" >
   <crystal>
    <varray name="basis" >
     <v>       4.91640375       0.00000000      -2.72184290 </v>
     <v>      -1.70791152       4.61021302      -2.72184290 </v>
     <v>       0.00000000       0.00000000       5.61956000 </v>
    </varray>
    <i name="volume">    127.37108442 </i>
    <varray name="rec_basis" >
     <v>       0.20340071       0.07535236       0.00000000 </v>
     <v>       0.00000000       0.21690972       0.00000000 </v>
     <v>       0.09851746       0.14155760       0.17794988 </v>
    </varray>
   </crystal>
   <varray name="positions" >
    <v>       0.50000000       0.00000000       0.50000000 </v>
    <v>       0.00000000       0.50000000       0.50000000 </v>
    <v>       0.25000000       0.25000000       1.00000000 </v>
    <v>       0.24161000       0.74161000       0.98322000 </v>
    <v>       0.75000000       0.75000000       1.00000000 </v>
    <v>       0.75839000       0.25839000       0.01678000 </v>
    <v>       0.74161000       0.75839000       0.50000000 </v>
    <v>       0.25839000       0.24161000       0.50000000 </v>
    <v>       0.25303000       0.75303000       0.00607000 </v>
    <v>       0.74697000       0.24697000       0.99393000 </v>
    <v>       0.75303000       0.74697000       0.50000000 </v>
    <v>       0.24697000       0.25303000       0.50000000 </v>
   </varray>
  </structure>
  <varray name="primitive_index" >
   <v type="int" >        1 </v>
   <v type="int" >        2 </v>
   <v type="int" >        3 </v>
   <v type="int" >        4 </v>
   <v type="int" >        5 </v>
   <v type="int" >        6 </v>
   <v type="int" >        7 </v>
   <v type="int" >        8 </v>
   <v type="int" >        9 </v>
   <v type="int" >       10 </v>
   <v type="int" >       11 </v>
   <v type="int" >       12 </v>
  </varray>
 </primitive_cell>
 <kpoints>
  <generation param="Gamma">
   <v type="int" name="divisions">       8        8        9 </v>
   <v name="usershift">      0.00000000       0.00000000       0.00000000 </v>
   <v name="genvec1">      0.12500000       0.00000000       0.00000000 </v>
   <v name="genvec2">      0.00000000       0.12500000       0.00000000 </v>
   <v name="genvec3">     -0.00000000       0.00000000       0.11111111 </v>
   <v name="shift">      0.00000000       0.00000000       0.00000000 </v>
  </generation>
  <varray name="kpointlist" >
   <v>       0.00000000       0.00000000       0.00000000 </v>
   <v>       0.12500000      -0.00000000       0.00000000 </v>
   <v>       0.25000000      -0.00000000       0.00000000 </v>
   <v>       0.37500000      -0.00000000       0.00000000 </v>
   <v>       0.50000000      -0.00000000       0.00000000 </v>
   <v>       0.12500000       0.12500000       0.00000000 </v>
   <v>       0.25000000       0.12500000       0.00000000 </v>
   <v>       0.37500000       0.12500000       0.00000000 </v>
   <v>       0.50000000       0.12500000       0.00000000 </v>
   <v>      -0.37500000       0.12500000       0.00000000 </v>
   <v>      -0.25000000       0.12500000       0.00000000 </v>
   <v>      -0.12500000       0.12500000       0.00000000 </v>
   <v>       0.25000000       0.25000000       0.00000000 </v>
   <v>       0.37500000       0.25000000       0.00000000 </v>
   <v>       0.50000000       0.25000000       0.00000000 </v>
   <v>      -0.37500000       0.25000000       0.00000000 </v>
   <v>      -0.25000000       0.25000000       0.00000000 </v>
   <v>       0.37500000       0.37500000       0.00000000 </v>
   <v>       0.50000000       0.37500000       0.00000000 </v>
   <v>      -0.37500000       0.37500000       0.00000000 </v>
   <v>       0.50000000       0.50000000       0.00000000 </v>
   <v>       0.00000000       0.00000000       0.11111111 </v>
   <v>       0.12500000      -0.00000000       0.11111111 </v>
   <v>       0.25000000      -0.00000000       0.11111111 </v>
   <v>       0.37500000      -0.00000000       0.11111111 </v>
   <v>       0.50000000      -0.00000000       0.11111111 </v>
   <v>      -0.37500000       0.00000000       0.11111111 </v>
   <v>      -0.25000000       0.00000000       0.11111111 </v>
   <v>      -0.12500000      -0.00000000       0.11111111 </v>
   <v>       0.12500000       0.12500000       0.11111111 </v>
   <v>       0.25000000       0.12500000       0.11111111 </v>
   <v>       0.37500000       0.12500000       0.11111111 </v>
   <v>       0.50000000       0.12500000       0.11111111 </v>
   <v>      -0.37500000       0.12500000       0.11111111 </v>
   <v>      -0.25000000       0.12500000       0.11111111 </v>
   <v>      -0.12500000       0.12500000       0.11111111 </v>
   <v>       0.25000000       0.25000000       0.11111111 </v>
   <v>       0.37500000       0.25000000       0.11111111 </v>
   <v>       0.50000000       0.25000000       0.11111111 </v>
   <v>      -0.37500000       0.25000000       0.11111111 </v>
   <v>      -0.25000000       0.25000000       0.11111111 </v>
   <v>      -0.12500000       0.25000000       0.11111111 </v>
   <v>       0.37500000       0.37500000       0.11111111 </v>
   <v>       0.50000000       0.37500000       0.11111111 </v>
   <v>      -0.37500000       0.37500000       0.11111111 </v>
   <v>      -0.25000000       0.37500000       0.11111111 </v>
   <v>      -0.12500000       0.37500000       0.11111111 </v>
   <v>       0.50000000       0.50000000       0.11111111 </v>
   <v>      -0.37500000       0.50000000       0.11111111 </v>
   <v>      -0.25000000       0.50000000       0.11111111 </v>
   <v>      -0.12500000       0.50000000       0.11111111 </v>
   <v>      -0.37500000      -0.37500000       0.11111111 </v>
   <v>      -0.25000000      -0.37500000       0.11111111 </v>
   <v>      -0.12500000      -0.37500000       0.11111111 </v>
   <v>      -0.25000000      -0.25000000       0.11111111 </v>
   <v>      -0.12500000      -0.25000000       0.11111111 </v>
   <v>      -0.12500000      -0.12500000       0.11111111 </v>
   <v>       0.00000000      -0.00000000       0.22222222 </v>
   <v>       0.12500000      -0.00000000       0.22222222 </v>
   <v>       0.25000000      -0.00000000       0.22222222 </v>
   <v>       0.37500000      -0.00000000       0.22222222 </v>
   <v>       0.50000000      -0.00000000       0.22222222 </v>
   <v>      -0.37500000      -0.00000000       0.22222222 </v>
   <v>      -0.25000000      -0.00000000       0.22222222 </v>
   <v>      -0.12500000      -0.00000000       0.22222222 </v>
   <v>       0.12500000       0.12500000       0.22222222 </v>
   <v>       0.25000000       0.12500000       0.22222222 </v>
   <v>       0.37500000       0.12500000       0.22222222 </v>
   <v>       0.50000000       0.12500000       0.22222222 </v>
   <v>      -0.37500000       0.12500000       0.22222222 </v>
   <v>      -0.25000000       0.12500000       0.22222222 </v>
   <v>      -0.12500000       0.12500000       0.22222222 </v>
   <v>       0.25000000       0.25000000       0.22222222 </v>
   <v>       0.37500000       0.25000000       0.22222222 </v>
   <v>       0.50000000       0.25000000       0.22222222 </v>
   <v>      -0.37500000       0.25000000       0.22222222 </v>
   <v>      -0.25000000       0.25000000       0.22222222 </v>
   <v>      -0.12500000       0.25000000       0.22222222 </v>
   <v>       0.37500000       0.37500000       0.22222222 </v>
   <v>       0.50000000       0.37500000       0.22222222 </v>
   <v>      -0.37500000       0.37500000       0.22222222 </v>
   <v>      -0.25000000       0.37500000       0.22222222 </v>
   <v>      -0.12500000       0.37500000       0.22222222 </v>
   <v>       0.50000000       0.50000000       0.22222222 </v>
   <v>      -0.37500000       0.50000000       0.22222222 </v>
   <v>      -0.25000000       0.50000000       0.22222222 </v>
   <v>      -0.12500000       0.50000000       0.22222222 </v>
   <v>      -0.37500000      -0.37500000       0.22222222 </v>
   <v>      -0.25000000      -0.37500000       0.22222222 </v>
   <v>      -0.12500000      -0.37500000       0.22222222 </v>
   <v>      -0.25000000      -0.25000000       0.22222222 </v>
   <v>      -0.12500000      -0.25000000       0.22222222 </v>
   <v>      -0.12500000      -0.12500000       0.22222222 </v>
   <v>       0.00000000      -0.00000000       0.33333333 </v>
   <v>       0.12500000      -0.00000000       0.33333333 </v>
   <v>       0.25000000       0.00000000       0.33333333 </v>
   <v>       0.37500000      -0.00000000       0.33333333 </v>
   <v>       0.50000000      -0.00000000       0.33333333 </v>
   <v>      -0.37500000       0.00000000       0.33333333 </v>
   <v>      -0.25000000       0.00000000       0.33333333 </v>
   <v>      -0.12500000       0.00000000       0.33333333 </v>
   <v>       0.12500000       0.12500000       0.33333333 </v>
   <v>       0.25000000       0.12500000       0.33333333 </v>
   <v>       0.37500000       0.12500000       0.33333333 </v>
   <v>       0.50000000       0.12500000       0.33333333 </v>
   <v>      -0.37500000       0.12500000       0.33333333 </v>
   <v>      -0.25000000       0.12500000       0.33333333 </v>
   <v>      -0.12500000       0.12500000       0.33333333 </v>
   <v>       0.25000000       0.25000000       0.33333333 </v>
   <v>       0.37500000       0.25000000       0.33333333 </v>
   <v>       0.50000000       0.25000000       0.33333333 </v>
   <v>      -0.37500000       0.25000000       0.33333333 </v>
   <v>      -0.25000000       0.25000000       0.33333333 </v>
   <v>      -0.12500000       0.25000000       0.33333333 </v>
   <v>       0.37500000       0.37500000       0.33333333 </v>
   <v>       0.50000000       0.37500000       0.33333333 </v>
   <v>      -0.37500000       0.37500000       0.33333333 </v>
   <v>      -0.25000000       0.37500000       0.33333333 </v>
   <v>      -0.12500000       0.37500000       0.33333333 </v>
   <v>       0.50000000       0.50000000       0.33333333 </v>
   <v>      -0.37500000       0.50000000       0.33333333 </v>
   <v>      -0.25000000       0.50000000       0.33333333 </v>
   <v>      -0.12500000       0.50000000       0.33333333 </v>
   <v>      -0.37500000      -0.37500000       0.33333333 </v>
   <v>      -0.25000000      -0.37500000       0.33333333 </v>
   <v>      -0.12500000      -0.37500000       0.33333333 </v>
   <v>      -0.25000000      -0.25000000       0.33333333 </v>
   <v>      -0.12500000      -0.25000000       0.33333333 </v>
   <v>      -0.12500000      -0.12500000       0.33333333 </v>
   <v>       0.00000000      -0.00000000       0.44444444 </v>
   <v>       0.12500000      -0.00000000       0.44444444 </v>
   <v>       0.25000000      -0.00000000       0.44444444 </v>
   <v>       0.37500000      -0.00000000       0.44444444 </v>
   <v>       0.50000000      -0.00000000       0.44444444 </v>
   <v>      -0.37500000      -0.00000000       0.44444444 </v>
   <v>      -0.25000000      -0.00000000       0.44444444 </v>
   <v>      -0.12500000      -0.00000000       0.44444444 </v>
   <v>       0.12500000       0.12500000       0.44444444 </v>
   <v>       0.25000000       0.12500000       0.44444444 </v>
   <v>       0.37500000       0.12500000       0.44444444 </v>
   <v>       0.50000000       0.12500000       0.44444444 </v>
   <v>      -0.37500000       0.12500000       0.44444444 </v>
   <v>      -0.25000000       0.12500000       0.44444444 </v>
   <v>      -0.12500000       0.12500000       0.44444444 </v>
   <v>       0.25000000       0.25000000       0.44444444 </v>
   <v>       0.37500000       0.25000000       0.44444444 </v>
   <v>       0.50000000       0.25000000       0.44444444 </v>
   <v>      -0.37500000       0.25000000       0.44444444 </v>
   <v>      -0.25000000       0.25000000       0.44444444 </v>
   <v>      -0.12500000       0.25000000       0.44444444 </v>
   <v>       0.37500000       0.37500000       0.44444444 </v>
   <v>       0.50000000       0.37500000       0.44444444 </v>
   <v>      -0.37500000       0.37500000       0.44444444 </v>
   <v>      -0.25000000       0.37500000       0.44444444 </v>
   <v>      -0.12500000       0.37500000       0.44444444 </v>
   <v>       0.50000000       0.50000000       0.44444444 </v>
   <v>      -0.37500000       0.50000000       0.44444444 </v>
   <v>      -0.25000000       0.50000000       0.44444444 </v>
   <v>      -0.12500000       0.50000000       0.44444444 </v>
   <v>      -0.37500000      -0.37500000       0.44444444 </v>
   <v>      -0.25000000      -0.37500000       0.44444444 </v>
   <v>      -0.12500000      -0.37500000       0.44444444 </v>
   <v>      -0.25000000      -0.25000000       0.44444444 </v>
   <v>      -0.12500000      -0.25000000       0.44444444 </v>
   <v>      -0.12500000      -0.12500000       0.44444444 </v>
  </varray>
  <varray name="weights" >
   <v>       0.00173611 </v>
   <v>       0.00694444 </v>
   <v>       0.00694444 </v>
   <v>       0.00694444 </v>
   <v>       0.00347222 </v>
   <v>       0.00347222 </v>
   <v>       0.00694444 </v>
   <v>       0.00694444 </v>
   <v>       0.00694444 </v>
   <v>       0.00694444 </v>
   <v>       0.00694444 </v>
   <v>       0.00347222 </v>
   <v>       0.00347222 </v>
   <v>       0.00694444 </v>
   <v>       0.00694444 </v>
   <v>       0.00694444 </v>
   <v>       0.00347222 </v>
   <v>       0.00347222 </v>
   <v>       0.00694444 </v>
   <v>       0.00347222 </v>
   <v>       0.00173611 </v>
   <v>       0.00347222 </v>
   <v>       0.00694444 </v>
   <v>       0.00694444 </v>
   <v>       0.00694444 </v>
   <v>       0.00694444 </v>
   <v>       0.00694444 </v>
   <v>       0.00694444 </v>
   <v>       0.00694444 </v>
   <v>       0.00347222 </v>
   <v>       0.00694444 </v>
   <v>       0.00694444 </v>
   <v>       0.00694444 </v>
   <v>       0.00694444 </v>
   <v>       0.00694444 </v>
   <v>       0.00694444 </v>
   <v>       0.00347222 </v>
   <v>       0.00694444 </v>
   <v>       0.00694444 </v>
   <v>       0.00694444 </v>
   <v>       0.00694444 </v>
   <v>       0.00694444 </v>
   <v>       0.00347222 </v>
   <v>       0.00694444 </v>
   <v>       0.00694444 </v>
   <v>       0.00694444 </v>
   <v>       0.00694444 </v>
   <v>       0.00347222 </v>
   <v>       0.00694444 </v>
   <v>       0.00694444 </v>
   <v>       0.00694444 </v>
   <v>       0.00347222 </v>
   <v>       0.00694444 </v>
   <v>       0.00694444 </v>
   <v>       0.00347222 </v>
   <v>       0.00694444 </v>
   <v>       0.00347222 </v>
   <v>       0.00347222 </v>
   <v>       0.00694444 </v>
   <v>       0.00694444 </v>
   <v>       0.00694444 </v>
   <v>       0.00694444 </v>
   <v>       0.00694444 </v>
   <v>       0.00694444 </v>
   <v>       0.00694444 </v>
   <v>       0.00347222 </v>
   <v>       0.00694444 </v>
   <v>       0.00694444 </v>
   <v>       0.00694444 </v>
   <v>       0.00694444 </v>
   <v>       0.00694444 </v>
   <v>       0.00694444 </v>
   <v>       0.00347222 </v>
   <v>       0.00694444 </v>
   <v>       0.00694444 </v>
   <v>       0.00694444 </v>
   <v>       0.00694444 </v>
   <v>       0.00694444 </v>
   <v>       0.00347222 </v>
   <v>       0.00694444 </v>
   <v>       0.00694444 </v>
   <v>       0.00694444 </v>
   <v>       0.00694444 </v>
   <v>       0.00347222 </v>
   <v>       0.00694444 </v>
   <v>       0.00694444 </v>
   <v>       0.00694444 </v>
   <v>       0.00347222 </v>
   <v>       0.00694444 </v>
   <v>       0.00694444 </v>
   <v>       0.00347222 </v>
   <v>       0.00694444 </v>
   <v>       0.00347222 </v>
   <v>       0.00347222 </v>
   <v>       0.00694444 </v>
   <v>       0.00694444 </v>
   <v>       0.00694444 </v>
   <v>       0.00694444 </v>
   <v>       0.00694444 </v>
   <v>       0.00694444 </v>
   <v>       0.00694444 </v>
   <v>       0.00347222 </v>
   <v>       0.00694444 </v>
   <v>       0.00694444 </v>
   <v>       0.00694444 </v>
   <v>       0.00694444 </v>
   <v>       0.00694444 </v>
   <v>       0.00694444 </v>
   <v>       0.00347222 </v>
   <v>       0.00694444 </v>
   <v>       0.00694444 </v>
   <v>       0.00694444 </v>
   <v>       0.00694444 </v>
   <v>       0.00694444 </v>
   <v>       0.00347222 </v>
   <v>       0.00694444 </v>
   <v>       0.00694444 </v>
   <v>       0.00694444 </v>
   <v>       0.00694444 </v>
   <v>       0.00347222 </v>
   <v>       0.00694444 </v>
   <v>       0.00694444 </v>
   <v>       0.00694444 </v>
   <v>       0.00347222 </v>
   <v>       0.00694444 </v>
   <v>       0.00694444 </v>
   <v>       0.00347222 </v>
   <v>       0.00694444 </v>
   <v>       0.00347222 </v>
   <v>       0.00347222 </v>
   <v>       0.00694444 </v>
   <v>       0.00694444 </v>
   <v>       0.00694444 </v>
   <v>       0.00694444 </v>
   <v>       0.00694444 </v>
   <v>       0.00694444 </v>
   <v>       0.00694444 </v>
   <v>       0.00347222 </v>
   <v>       0.00694444 </v>
   <v>       0.00694444 </v>
   <v>       0.00694444 </v>
   <v>       0.00694444 </v>
   <v>       0.00694444 </v>
   <v>       0.00694444 </v>
   <v>       0.00347222 </v>
   <v>       0.00694444 </v>
   <v>       0.00694444 </v>
   <v>       0.00694444 </v>
   <v>       0.00694444 </v>
   <v>       0.00694444 </v>
   <v>       0.00347222 </v>
   <v>       0.00694444 </v>
   <v>       0.00694444 </v>
   <v>       0.00694444 </v>
   <v>       0.00694444 </v>
   <v>       0.00347222 </v>
   <v>       0.00694444 </v>
   <v>       0.00694444 </v>
   <v>       0.00694444 </v>
   <v>       0.00347222 </v>
   <v>       0.00694444 </v>
   <v>       0.00694444 </v>
   <v>       0.00347222 </v>
   <v>       0.00694444 </v>
   <v>       0.00347222 </v>
  </varray>
 </kpoints>
 <parameters>
  <separator name="general" >
   <i type="string" name="SYSTEM">routine with relax: pwdword</i>
   <i type="logical" name="LCOMPAT"> F  </i>
  </separator>
  <separator name="electronic" >
   <i type="string" name="PREC">acc</i>
   <i name="ENMAX">    600.00000000</i>
   <i name="ENAUG">    535.51400000</i>
   <i name="EDIFF">      0.00000000</i>
   <i type="int" name="IALGO">    58</i>
   <i type="int" name="IWAVPR">    10</i>
   <i type="int" name="NBANDS">    66</i>
   <i type="int" name="NBANDSLOW">    -1</i>
   <i type="int" name="NBANDSHIGH">    -1</i>
   <i name="NELECT">    106.00000000</i>
   <i type="int" name="TURBO">     0</i>
   <i type="int" name="IRESTART">     0</i>
   <i type="int" name="NREBOOT">     0</i>
   <i type="int" name="NMIN">     0</i>
   <i name="EREF">      0.00000000</i>
   <separator name="electronic smearing" >
    <i type="int" name="ISMEAR">     0</i>
    <i name="SIGMA">      0.02000000</i>
    <i name="KSPACING">      0.50000000</i>
    <i type="logical" name="KGAMMA"> T  </i>
    <i type="logical" name="KBLOWUP"> F  </i>
   </separator>
   <separator name="electronic projectors" >
    <i type="logical" name="LREAL"> F  </i>
    <v name="ROPT">      0.00000000      0.00000000      0.00000000</v>
    <i type="int" name="LMAXPAW">  -100</i>
    <i type="int" name="LMAXMIX">     2</i>
    <i type="logical" name="NLSPLINE"> F  </i>
   </separator>
   <separator name="electronic startup" >
    <i type="int" name="ISTART">     0</i>
    <i type="int" name="ICHARG">     2</i>
    <i type="int" name="INIWAV">     1</i>
   </separator>
   <separator name="electronic spin" >
    <i type="int" name="ISPIN">     1</i>
    <i type="logical" name="LNONCOLLINEAR"> F  </i>
    <v name="MAGMOM">      1.00000000      1.00000000      1.00000000      1.00000000      1.00000000      1.00000000      1.00000000      1.00000000      1.00000000      1.00000000      1.00000000      1.00000000</v>
    <i name="NUPDOWN">     -1.00000000</i>
    <i type="logical" name="LSORBIT"> F  </i>
    <v name="SAXIS">      0.00000000      0.00000000      1.00000000</v>
    <i type="logical" name="LSPIRAL"> F  </i>
    <v name="QSPIRAL">      0.00000000      0.00000000      0.00000000</v>
    <i type="logical" name="LZEROZ"> F  </i>
   </separator>
   <separator name="electronic exchange-correlation" >
    <i type="logical" name="LASPH"> T  </i>
    <i type="logical" name="LMETAGGA"> F  </i>
   </separator>
   <separator name="electronic convergence" >
    <i type="int" name="NELM">   100</i>
    <i type="int" name="NELMDL">    -5</i>
    <i type="int" name="NELMIN">     6</i>
    <i name="ENINI">    600.00000000</i>
    <separator name="electronic convergence detail" >
     <i type="logical" name="LDIAG"> T  </i>
     <i type="logical" name="LSUBROT"> F  </i>
     <i name="WEIMIN">      0.00000000</i>
     <i name="EBREAK">      0.00000000</i>
     <i name="DEPER">      0.30000000</i>
     <i type="int" name="NRMM">     4</i>
     <i name="TIME">      0.40000000</i>
    </separator>
   </separator>
   <separator name="electronic mixer" >
    <i name="AMIX">      0.40000000</i>
    <i name="BMIX">      1.00000000</i>
    <i name="AMIN">      0.10000000</i>
    <i name="AMIX_MAG">      1.60000000</i>
    <i name="BMIX_MAG">      1.00000000</i>
    <separator name="electronic mixer details" >
     <i type="int" name="IMIX">     4</i>
     <i type="logical" name="MIXFIRST"> F  </i>
     <i type="int" name="MAXMIX">   -45</i>
     <i name="WC">    100.00000000</i>
     <i type="int" name="INIMIX">     1</i>
     <i type="int" name="MIXPRE">     1</i>
     <i type="int" name="MREMOVE">     5</i>
    </separator>
   </separator>
   <separator name="electronic dipolcorrection" >
    <i type="logical" name="LDIPOL"> F  </i>
    <i type="logical" name="LMONO"> F  </i>
    <i type="int" name="IDIPOL">     0</i>
    <i name="EPSILON">      1.00000000</i>
    <v name="DIPOL">   -100.00000000   -100.00000000   -100.00000000</v>
    <i name="EFIELD">      0.00000000</i>
   </separator>
  </separator>
  <separator name="grids" >
   <i type="int" name="NGX">    48</i>
   <i type="int" name="NGY">    48</i>
   <i type="int" name="NGZ">    48</i>
   <i type="int" name="NGXF">    96</i>
   <i type="int" name="NGYF">    96</i>
   <i type="int" name="NGZF">    96</i>
   <i type="logical" name="ADDGRID"> T  </i>
  </separator>
  <separator name="ionic" >
   <i type="int" name="NSW">     0</i>
   <i type="int" name="IBRION">    -1</i>
   <i type="int" name="MDALGO">     0</i>
   <i type="int" name="ISIF">    -1</i>
   <i name="PSTRESS">      0.00000000</i>
   <i name="EDIFFG">      0.00000001</i>
   <i type="int" name="NFREE">     0</i>
   <i name="POTIM">      0.50000000</i>
   <i name="SMASS">     -3.00000000</i>
   <i name="SCALEE">      1.00000000</i>
  </separator>
  <separator name="ionic md" >
   <i name="TEBEG">      0.00010000</i>
   <i name="TEEND">      0.00010000</i>
   <i type="int" name="NBLOCK">     1</i>
   <i type="int" name="KBLOCK">     1</i>
   <i type="int" name="NPACO">   256</i>
   <i name="APACO">     16.00000000</i>
  </separator>
  <separator name="symmetry" >
   <i type="int" name="ISYM">     2</i>
   <i name="SYMPREC">      0.00010000</i>
  </separator>
  <separator name="dos" >
   <i type="int" name="LORBIT">     0</i>
   <v name="RWIGS">     -1.00000000     -1.00000000     -1.00000000</v>
   <i type="int" name="NEDOS">   301</i>
   <i name="EMIN">     10.00000000</i>
   <i name="EMAX">    -10.00000000</i>
   <i name="EFERMI">      0.00000000</i>
  </separator>
  <separator name="writing" >
   <i type="int" name="NWRITE">     2</i>
   <i type="logical" name="LWAVE"> T  </i>
   <i type="logical" name="LDOWNSAMPLE"> F  </i>
   <i type="logical" name="LCHARG"> T  </i>
   <i type="logical" name="LPARD"> F  </i>
   <i type="logical" name="LVTOT"> F  </i>
   <i type="logical" name="LVHAR"> F  </i>
   <i type="logical" name="LELF"> F  </i>
   <i type="logical" name="LOPTICS"> F  </i>
   <v name="STM">      0.00000000      0.00000000      0.00000000      0.00000000      0.00000000      0.00000000      0.00000000</v>
  </separator>
  <separator name="performance" >
   <i type="int" name="NPAR">     6</i>
   <i type="int" name="NSIM">     4</i>
   <i type="int" name="NBLK">    -1</i>
   <i type="logical" name="LPLANE"> T  </i>
   <i type="logical" name="LSCALAPACK"> T  </i>
   <i type="logical" name="LSCAAWARE"> F  </i>
   <i type="logical" name="LSCALU"> F  </i>
   <i type="logical" name="LASYNC"> F  </i>
   <i type="logical" name="LORBITALREAL"> F  </i>
  </separator>
  <separator name="miscellaneous" >
   <i type="int" name="IDIOT">     3</i>
   <i type="int" name="PHON_NSTRUCT">    -1</i>
   <i type="logical" name="LMUSIC"> F  </i>
   <v name="POMASS">     10.81100000     95.94000000     28.08500000</v>
   <v name="DARWINR">      0.00000000      0.00000000      0.00000000</v>
   <v name="DARWINV">      1.00000000      1.00000000      1.00000000</v>
   <i type="logical" name="LCORR"> T  </i>
  </separator>
  <i type="logical" name="GGA_COMPAT"> T  </i>
  <i type="logical" name="LBERRY"> F  </i>
  <i type="int" name="ICORELEVEL">     0</i>
  <i type="logical" name="LDAU"> F  </i>
  <i type="int" name="I_CONSTRAINED_M">     0</i>
  <separator name="electronic exchange-correlation" >
   <i type="string" name="GGA">--</i>
   <i type="int" name="VOSKOWN">     0</i>
   <i type="logical" name="LHFCALC"> F  </i>
   <i type="string" name="PRECFOCK"></i>
   <i type="logical" name="LSYMGRAD"> F  </i>
   <i type="logical" name="LHFONE"> F  </i>
   <i type="logical" name="LRHFCALC"> F  </i>
   <i type="logical" name="LTHOMAS"> F  </i>
   <i type="logical" name="LMODELHF"> F  </i>
   <i type="logical" name="LFOCKACE"> F  </i>
   <i name="ENCUT4O">     -1.00000000</i>
   <i type="int" name="EXXOEP">     0</i>
   <i type="int" name="FOURORBIT">     0</i>
   <i name="AEXX">      0.00000000</i>
   <i name="HFALPHA">      0.00000000</i>
   <i name="MCALPHA">      0.00000000</i>
   <i name="ALDAX">      1.00000000</i>
   <i name="AGGAX">      1.00000000</i>
   <i name="ALDAC">      1.00000000</i>
   <i name="AGGAC">      1.00000000</i>
   <i type="int" name="NKREDX">     1</i>
   <i type="int" name="NKREDY">     1</i>
   <i type="int" name="NKREDZ">     1</i>
   <i type="logical" name="SHIFTRED"> F  </i>
   <i type="logical" name="ODDONLY"> F  </i>
   <i type="logical" name="EVENONLY"> F  </i>
   <i type="int" name="LMAXFOCK">     0</i>
   <i type="int" name="NMAXFOCKAE">     0</i>
   <i type="logical" name="LFOCKAEDFT"> F  </i>
   <i name="HFSCREEN">      0.00000000</i>
   <i name="HFSCREENC">      0.00000000</i>
   <i type="int" name="NBANDSGWLOW">     0</i>
  </separator>
  <separator name="vdW DFT" >
   <i type="logical" name="LUSE_VDW"> F  </i>
   <i name="Zab_VDW">     -0.84910000</i>
   <i name="PARAM1">      0.12340000</i>
   <i name="PARAM2">      1.00000000</i>
   <i name="PARAM3">      0.00000000</i>
  </separator>
  <separator name="model GW" >
   <i type="int" name="MODEL_GW">     0</i>
   <i name="MODEL_EPS0">      6.36855422</i>
   <i name="MODEL_ALPHA">      1.00000000</i>
  </separator>
  <separator name="linear response parameters" >
   <i type="logical" name="LEPSILON"> F  </i>
   <i type="logical" name="LRPA"> F  </i>
   <i type="logical" name="LNABLA"> F  </i>
   <i type="logical" name="LVEL"> F  </i>
   <i type="int" name="KINTER">     0</i>
   <i name="CSHIFT">      0.10000000</i>
   <i name="OMEGAMAX">     -1.00000000</i>
   <i name="DEG_THRESHOLD">      0.00200000</i>
   <i name="RTIME">     -0.10000000</i>
   <i name="WPLASMAI">      0.00000000</i>
   <v name="DFIELD">      0.00000000      0.00000000      0.00000000</v>
   <v name="WPLASMA">      0.00000000      0.00000000      0.00000000      0.00000000      0.00000000      0.00000000      0.00000000      0.00000000      0.00000000</v>
  </separator>
  <separator name="orbital magnetization" >
   <i type="logical" name="NUCIND"> F  </i>
   <v name="MAGPOS">      0.00000000      0.00000000      0.00000000</v>
   <i type="logical" name="LNICSALL"> T  </i>
   <i type="logical" name="ORBITALMAG"> F  </i>
   <i type="logical" name="LMAGBLOCH"> F  </i>
   <i type="logical" name="LCHIMAG"> F  </i>
   <i type="logical" name="LGAUGE"> T  </i>
   <i type="int" name="MAGATOM">     0</i>
   <v name="MAGDIPOL">      0.00000000      0.00000000      0.00000000</v>
   <v name="AVECCONST">      0.00000000      0.00000000      0.00000000</v>
  </separator>
  <separator name="response functions" >
   <i type="logical" name="LFINITE_TEMPERATURE"> F  </i>
   <i type="logical" name="LADDER"> F  </i>
   <i type="logical" name="LRPAFORCE"> F  </i>
   <i type="logical" name="LFXC"> F  </i>
   <i type="logical" name="LHARTREE"> T  </i>
   <i type="int" name="IBSE">     0</i>
   <v type="int" name="KPOINT">    -1     0     0     0</v>
   <i type="logical" name="LTCTC"> F  </i>
   <i type="logical" name="LTCTE"> F  </i>
   <i type="logical" name="LTETE"> F  </i>
   <i type="logical" name="LTRIPLET"> F  </i>
   <i type="logical" name="LFXCEPS"> F  </i>
   <i type="logical" name="LFXHEG"> F  </i>
   <i type="int" name="NATURALO">     2</i>
   <i type="logical" name="LHOLEGF"> F  </i>
   <i type="logical" name="L2ORDER"> F  </i>
   <i type="logical" name="LDMP1"> F  </i>
   <i type="logical" name="LMP2LT"> F  </i>
   <i type="logical" name="LSMP2LT"> F  </i>
   <i type="logical" name="LGWLF"> F  </i>
   <i name="ENCUTGW">     -2.00000000</i>
   <i name="ENCUTGWSOFT">     -2.00000000</i>
   <i name="ENCUTLF">     -1.00000000</i>
   <i type="logical" name="LESF_SPLINES"> F  </i>
   <i type="int" name="LMAXMP2">    -1</i>
   <i name="SCISSOR">      0.00000000</i>
   <i type="int" name="NOMEGA">     0</i>
   <i type="int" name="NOMEGAR">     0</i>
   <i type="int" name="NBANDSGW">    -1</i>
   <i type="int" name="NBANDSO">    -1</i>
   <i type="int" name="NBANDSV">    -1</i>
   <i type="int" name="NELM">   100</i>
   <i type="int" name="NELMHF">     1</i>
   <i type="int" name="DIM">     3</i>
   <i type="int" name="IESPILON">     4</i>
   <i type="int" name="ANTIRES">     0</i>
   <i name="OMEGAMAX">    -30.00000000</i>
   <i name="OMEGAMIN">    -30.00000000</i>
   <i name="OMEGATL">   -200.00000000</i>
   <i type="int" name="OMEGAGRID">     0</i>
   <i name="CSHIFT">     -0.10000000</i>
   <i type="logical" name="LSELFENERGY"> F  </i>
   <i type="logical" name="LSPECTRAL"> F  </i>
   <i type="logical" name="LSPECTRALGW"> F  </i>
   <i type="logical" name="LSINGLES"> F  </i>
   <i type="logical" name="LFERMIGW"> F  </i>
   <i type="logical" name="ODDONLYGW"> F  </i>
   <i type="logical" name="EVENONLYGW"> F  </i>
   <i type="int" name="NKREDLFX">     1</i>
   <i type="int" name="NKREDLFY">     1</i>
   <i type="int" name="NKREDLFZ">     1</i>
   <i type="int" name="MAXMEM">  2800</i>
   <i type="int" name="TELESCOPE">     0</i>
   <i type="int" name="NTAUPAR">    -1</i>
   <i type="int" name="NOMEGAPAR">    -1</i>
   <i name="DAMP_NEWTON">      0.80000001</i>
   <i name="LAMBDA">      1.00000000</i>
  </separator>
  <separator name="External order field" >
   <i name="OFIELD_KAPPA">      0.00000000</i>
   <v name="OFIELD_K">      0.00000000      0.00000000      0.00000000</v>
   <i name="OFIELD_Q6_NEAR">      0.00000000</i>
   <i name="OFIELD_Q6_FAR">      0.00000000</i>
   <i name="OFIELD_A">      0.00000000</i>
  </separator>
 </parameters>
 <atominfo>
  <atoms>      12 </atoms>
  <types>       3 </types>
  <array name="atoms" >
   <dimension dim="1">ion</dimension>
   <field type="string">element</field>
   <field type="int">atomtype</field>
   <set>
    <rc><c>B </c><c>   1</c></rc>
    <rc><c>B </c><c>   1</c></rc>
    <rc><c>Mo</c><c>   2</c></rc>
    <rc><c>Mo</c><c>   2</c></rc>
    <rc><c>Mo</c><c>   2</c></rc>
    <rc><c>Mo</c><c>   2</c></rc>
    <rc><c>Mo</c><c>   2</c></rc>
    <rc><c>Mo</c><c>   2</c></rc>
    <rc><c>Si</c><c>   3</c></rc>
    <rc><c>Si</c><c>   3</c></rc>
    <rc><c>Si</c><c>   3</c></rc>
    <rc><c>Si</c><c>   3</c></rc>
   </set>
  </array>
  <array name="atomtypes" >
   <dimension dim="1">type</dimension>
   <field type="int">atomspertype</field>
   <field type="string">element</field>
   <field>mass</field>
   <field>valence</field>
   <field type="string">pseudopotential</field>
   <set>
    <rc><c>   2</c><c>B </c><c>     10.81100000</c><c>      3.00000000</c><c>  PAW_PBE B 06Sep2000                   </c></rc>
    <rc><c>   6</c><c>Mo</c><c>     95.94000000</c><c>     14.00000000</c><c>  PAW_PBE Mo_sv 02Feb2006               </c></rc>
    <rc><c>   4</c><c>Si</c><c>     28.08500000</c><c>      4.00000000</c><c>  PAW_PBE Si 05Jan2001                  </c></rc>
   </set>
  </array>
 </atominfo>
 <structure name="initialpos" >
  <crystal>
   <varray name="basis" >
    <v>       4.91640375       0.00000000      -2.72184290 </v>
    <v>      -1.70791152       4.61021302      -2.72184290 </v>
    <v>       0.00000000       0.00000000       5.61956000 </v>
   </varray>
   <i name="volume">    127.37108442 </i>
   <varray name="rec_basis" >
    <v>       0.20340071       0.07535236       0.00000000 </v>
    <v>       0.00000000       0.21690972       0.00000000 </v>
    <v>       0.09851746       0.14155760       0.17794988 </v>
   </varray>
  </crystal>
  <varray name="positions" >
   <v>       0.50000000       0.00000000       0.50000000 </v>
   <v>       0.00000000       0.50000000       0.50000000 </v>
   <v>       0.25000000       0.25000000       0.00000000 </v>
   <v>       0.24161000       0.74161000       0.98322000 </v>
   <v>       0.75000000       0.75000000       0.00000000 </v>
   <v>       0.75839000       0.25839000       0.01678000 </v>
   <v>       0.74161000       0.75839000       0.50000000 </v>
   <v>       0.25839000       0.24161000       0.50000000 </v>
   <v>       0.25303000       0.75303000       0.00607000 </v>
   <v>       0.74697000       0.24697000       0.99393000 </v>
   <v>       0.75303000       0.74697000       0.50000000 </v>
   <v>       0.24697000       0.25303000       0.50000000 </v>
  </varray>
 </structure>
 <calculation>
  <scstep>
   <time name="total">   27.67   27.94</time>
   <energy>
    <i name="alphaZ">    723.46519426 </i>
    <i name="ewald">  22431.08255773 </i>
    <i name="hartreedc">  -2726.59694831 </i>
    <i name="XCdc">    457.76409115 </i>
    <i name="pawpsdc">   9333.50011946 </i>
    <i name="pawaedc">  -9270.82734050 </i>
    <i name="eentropy">     -0.00031605 </i>
    <i name="bandstr">  -1971.54019981 </i>
    <i name="atom">  11728.30056431 </i>
    <i name="e_fr_energy">  30705.14772223 </i>
    <i name="e_wo_entrp">  30705.14803829 </i>
    <i name="e_0_energy">  30705.14788026 </i>
   </energy>
  </scstep>
  <scstep>
   <time name="total">   25.30   25.55</time>
   <energy>
    <i name="e_fr_energy">  29295.01881773 </i>
    <i name="e_wo_entrp">  29295.01918354 </i>
    <i name="e_0_energy">  29295.01900064 </i>
   </energy>
  </scstep>
  <scstep>
   <time name="total">   26.09   26.34</time>
   <energy>
    <i name="e_fr_energy">  29242.74801029 </i>
    <i name="e_wo_entrp">  29242.74869331 </i>
    <i name="e_0_energy">  29242.74835180 </i>
   </energy>
  </scstep>
  <scstep>
   <time name="total">   26.89   27.15</time>
   <energy>
    <i name="e_fr_energy">  29241.37674732 </i>
    <i name="e_wo_entrp">  29241.37742649 </i>
    <i name="e_0_energy">  29241.37708690 </i>
   </energy>
  </scstep>
  <scstep>
   <time name="total">   29.28   29.55</time>
   <energy>
    <i name="e_fr_energy">  29241.33040734 </i>
    <i name="e_wo_entrp">  29241.33106408 </i>
    <i name="e_0_energy">  29241.33073571 </i>
   </energy>
  </scstep>
  <scstep>
   <time name="total">   28.50   28.75</time>
   <energy>
    <i name="e_fr_energy">  30472.30170062 </i>
    <i name="e_wo_entrp">  30472.30367847 </i>
    <i name="e_0_energy">  30472.30268954 </i>
   </energy>
  </scstep>
  <scstep>
   <time name="total">   28.23   28.48</time>
   <energy>
    <i name="e_fr_energy">  30024.08641770 </i>
    <i name="e_wo_entrp">  30024.08749564 </i>
    <i name="e_0_energy">  30024.08695667 </i>
   </energy>
  </scstep>
  <scstep>
   <time name="total">   28.28   28.52</time>
   <energy>
    <i name="e_fr_energy">  29954.45124471 </i>
    <i name="e_wo_entrp">  29954.45246451 </i>
    <i name="e_0_energy">  29954.45185461 </i>
   </energy>
  </scstep>
  <scstep>
   <time name="total">   28.40   28.64</time>
   <energy>
    <i name="e_fr_energy">  29923.13707777 </i>
    <i name="e_wo_entrp">  29923.13833154 </i>
    <i name="e_0_energy">  29923.13770466 </i>
   </energy>
  </scstep>
  <scstep>
   <time name="total">   28.31   28.55</time>
   <energy>
    <i name="e_fr_energy">  29908.33755409 </i>
    <i name="e_wo_entrp">  29908.33950749 </i>
    <i name="e_0_energy">  29908.33853079 </i>
   </energy>
  </scstep>
  <scstep>
   <time name="total">   28.42   28.66</time>
   <energy>
    <i name="e_fr_energy">  29898.07928451 </i>
    <i name="e_wo_entrp">  29898.08232952 </i>
    <i name="e_0_energy">  29898.08080702 </i>
   </energy>
  </scstep>
  <scstep>
   <time name="total">   28.47   28.72</time>
   <energy>
    <i name="e_fr_energy">  29892.11332246 </i>
    <i name="e_wo_entrp">  29892.11620322 </i>
    <i name="e_0_energy">  29892.11476284 </i>
   </energy>
  </scstep>
  <scstep>
   <time name="total">   28.51   28.75</time>
   <energy>
    <i name="e_fr_energy">  29890.10516890 </i>
    <i name="e_wo_entrp">  29890.10797912 </i>
    <i name="e_0_energy">  29890.10657401 </i>
   </energy>
  </scstep>
  <scstep>
   <time name="total">   28.35   28.60</time>
   <energy>
    <i name="e_fr_energy">  29888.60874843 </i>
    <i name="e_wo_entrp">  29888.61168407 </i>
    <i name="e_0_energy">  29888.61021625 </i>
   </energy>
  </scstep>
  <scstep>
   <time name="total">   28.36   28.61</time>
   <energy>
    <i name="e_fr_energy">  29887.82496711 </i>
    <i name="e_wo_entrp">  29887.82778984 </i>
    <i name="e_0_energy">  29887.82637848 </i>
   </energy>
  </scstep>
  <scstep>
   <time name="total">   28.71   28.94</time>
   <energy>
    <i name="e_fr_energy">  29887.19119215 </i>
    <i name="e_wo_entrp">  29887.19404017 </i>
    <i name="e_0_energy">  29887.19261616 </i>
   </energy>
  </scstep>
  <scstep>
   <time name="total">   28.72   28.96</time>
   <energy>
    <i name="e_fr_energy">  29886.76193246 </i>
    <i name="e_wo_entrp">  29886.76495760 </i>
    <i name="e_0_energy">  29886.76344503 </i>
   </energy>
  </scstep>
  <scstep>
   <time name="total">   28.41   28.65</time>
   <energy>
    <i name="e_fr_energy">  29886.46115112 </i>
    <i name="e_wo_entrp">  29886.46384465 </i>
    <i name="e_0_energy">  29886.46249788 </i>
   </energy>
  </scstep>
  <scstep>
   <time name="total">   28.49   28.73</time>
   <energy>
    <i name="e_fr_energy">  29886.17567691 </i>
    <i name="e_wo_entrp">  29886.17849516 </i>
    <i name="e_0_energy">  29886.17708603 </i>
   </energy>
  </scstep>
  <scstep>
   <time name="total">   28.26   28.50</time>
   <energy>
    <i name="e_fr_energy">  29885.96126344 </i>
    <i name="e_wo_entrp">  29885.96439575 </i>
    <i name="e_0_energy">  29885.96282960 </i>
   </energy>
  </scstep>
  <scstep>
   <time name="total">   28.15   28.40</time>
   <energy>
    <i name="e_fr_energy">  29885.82221475 </i>
    <i name="e_wo_entrp">  29885.82578848 </i>
    <i name="e_0_energy">  29885.82400162 </i>
   </energy>
  </scstep>
  <scstep>
   <time name="total">   28.39   28.63</time>
   <energy>
    <i name="e_fr_energy">  29885.70129028 </i>
    <i name="e_wo_entrp">  29885.70472798 </i>
    <i name="e_0_energy">  29885.70300913 </i>
   </energy>
  </scstep>
  <scstep>
   <time name="total">   28.42   28.66</time>
   <energy>
    <i name="e_fr_energy">  29885.63012319 </i>
    <i name="e_wo_entrp">  29885.63362827 </i>
    <i name="e_0_energy">  29885.63187573 </i>
   </energy>
  </scstep>
  <scstep>
   <time name="total">   28.38   28.61</time>
   <energy>
    <i name="e_fr_energy">  29885.57822483 </i>
    <i name="e_wo_entrp">  29885.58185800 </i>
    <i name="e_0_energy">  29885.58004142 </i>
   </energy>
  </scstep>
  <scstep>
   <time name="total">   28.30   28.54</time>
   <energy>
    <i name="e_fr_energy">  29885.53541845 </i>
    <i name="e_wo_entrp">  29885.53879738 </i>
    <i name="e_0_energy">  29885.53710791 </i>
   </energy>
  </scstep>
  <scstep>
   <time name="total">   28.23   28.46</time>
   <energy>
    <i name="e_fr_energy">  29885.50582781 </i>
    <i name="e_wo_entrp">  29885.50885905 </i>
    <i name="e_0_energy">  29885.50734343 </i>
   </energy>
  </scstep>
  <scstep>
   <time name="total">   28.32   28.55</time>
   <energy>
    <i name="e_fr_energy">  29885.48326617 </i>
    <i name="e_wo_entrp">  29885.48623993 </i>
    <i name="e_0_energy">  29885.48475305 </i>
   </energy>
  </scstep>
  <scstep>
   <time name="total">   28.33   28.56</time>
   <energy>
    <i name="e_fr_energy">  29885.46184307 </i>
    <i name="e_wo_entrp">  29885.46490202 </i>
    <i name="e_0_energy">  29885.46337255 </i>
   </energy>
  </scstep>
  <scstep>
   <time name="total">   28.28   28.52</time>
   <energy>
    <i name="e_fr_energy">  29885.44622266 </i>
    <i name="e_wo_entrp">  29885.44934216 </i>
    <i name="e_0_energy">  29885.44778241 </i>
   </energy>
  </scstep>
  <scstep>
   <time name="total">   28.33   28.57</time>
   <energy>
    <i name="e_fr_energy">  29885.43382206 </i>
    <i name="e_wo_entrp">  29885.43696543 </i>
    <i name="e_0_energy">  29885.43539375 </i>
   </energy>
  </scstep>
  <scstep>
   <time name="total">   28.36   28.60</time>
   <energy>
    <i name="e_fr_energy">  29885.42435076 </i>
    <i name="e_wo_entrp">  29885.42747883 </i>
    <i name="e_0_energy">  29885.42591480 </i>
   </energy>
  </scstep>
  <scstep>
   <time name="total">   28.35   28.59</time>
   <energy>
    <i name="e_fr_energy">  29885.41785508 </i>
    <i name="e_wo_entrp">  29885.42096171 </i>
    <i name="e_0_energy">  29885.41940839 </i>
   </energy>
  </scstep>
  <scstep>
   <time name="total">   28.28   28.52</time>
   <energy>
    <i name="e_fr_energy">  29885.41253313 </i>
    <i name="e_wo_entrp">  29885.41558305 </i>
    <i name="e_0_energy">  29885.41405809 </i>
   </energy>
  </scstep>
  <scstep>
   <time name="total">   28.32   28.57</time>
   <energy>
    <i name="e_fr_energy">  29885.40834209 </i>
    <i name="e_wo_entrp">  29885.41134441 </i>
    <i name="e_0_energy">  29885.40984325 </i>
   </energy>
  </scstep>
  <scstep>
   <time name="total">   28.39   28.63</time>
   <energy>
    <i name="e_fr_energy">  29885.40532353 </i>
    <i name="e_wo_entrp">  29885.40828454 </i>
    <i name="e_0_energy">  29885.40680404 </i>
   </energy>
  </scstep>
  <scstep>
   <time name="total">   28.25   28.49</time>
   <energy>
    <i name="e_fr_energy">  29885.40278226 </i>
    <i name="e_wo_entrp">  29885.40570322 </i>
    <i name="e_0_energy">  29885.40424274 </i>
   </energy>
  </scstep>
  <scstep>
   <time name="total">   28.38   28.62</time>
   <energy>
    <i name="e_fr_energy">  29885.40091559 </i>
    <i name="e_wo_entrp">  29885.40382211 </i>
    <i name="e_0_energy">  29885.40236885 </i>
   </energy>
  </scstep>
  <scstep>
   <time name="total">   28.39   28.63</time>
   <energy>
    <i name="e_fr_energy">  29885.39760187 </i>
    <i name="e_wo_entrp">  29885.40051053 </i>
    <i name="e_0_energy">  29885.39905620 </i>
   </energy>
  </scstep>
  <scstep>
   <time name="total">   28.46   28.70</time>
   <energy>
    <i name="e_fr_energy">  29885.39671129 </i>
    <i name="e_wo_entrp">  29885.39960964 </i>
    <i name="e_0_energy">  29885.39816046 </i>
   </energy>
  </scstep>
  <scstep>
   <time name="total">   28.24   28.49</time>
   <energy>
    <i name="e_fr_energy">  29885.39638668 </i>
    <i name="e_wo_entrp">  29885.39927847 </i>
    <i name="e_0_energy">  29885.39783258 </i>
   </energy>
  </scstep>
  <scstep>
   <time name="total">   28.19   28.43</time>
   <energy>
    <i name="e_fr_energy">  29885.39624628 </i>
    <i name="e_wo_entrp">  29885.39913208 </i>
    <i name="e_0_energy">  29885.39768918 </i>
   </energy>
  </scstep>
  <scstep>
   <time name="total">   28.10   28.34</time>
   <energy>
    <i name="e_fr_energy">  29885.39621099 </i>
    <i name="e_wo_entrp">  29885.39909096 </i>
    <i name="e_0_energy">  29885.39765098 </i>
   </energy>
  </scstep>
  <scstep>
   <time name="total">   28.19   28.43</time>
   <energy>
    <i name="e_fr_energy">  29885.39619383 </i>
    <i name="e_wo_entrp">  29885.39906858 </i>
    <i name="e_0_energy">  29885.39763120 </i>
   </energy>
  </scstep>
  <scstep>
   <time name="total">   27.59   27.83</time>
   <energy>
    <i name="e_fr_energy">  29885.39618647 </i>
    <i name="e_wo_entrp">  29885.39905793 </i>
    <i name="e_0_energy">  29885.39762220 </i>
   </energy>
  </scstep>
  <scstep>
   <time name="total">   25.82   26.04</time>
   <energy>
    <i name="e_fr_energy">  29885.39618185 </i>
    <i name="e_wo_entrp">  29885.39905206 </i>
    <i name="e_0_energy">  29885.39761696 </i>
   </energy>
  </scstep>
  <scstep>
   <time name="total">   25.75   25.96</time>
   <energy>
    <i name="e_fr_energy">  29885.39617917 </i>
    <i name="e_wo_entrp">  29885.39904891 </i>
    <i name="e_0_energy">  29885.39761404 </i>
   </energy>
  </scstep>
  <scstep>
   <time name="total">   44.31   44.67</time>
   <energy>
    <i name="e_fr_energy">  29885.39617875 </i>
    <i name="e_wo_entrp">  29885.39904642 </i>
    <i name="e_0_energy">  29885.39761258 </i>
   </energy>
  </scstep>
  <scstep>
   <time name="total">   25.73   25.94</time>
   <energy>
    <i name="e_fr_energy">  29885.39617747 </i>
    <i name="e_wo_entrp">  29885.39904464 </i>
    <i name="e_0_energy">  29885.39761105 </i>
   </energy>
  </scstep>
  <scstep>
   <time name="total">   25.81   26.03</time>
   <energy>
    <i name="e_fr_energy">  29885.39617678 </i>
    <i name="e_wo_entrp">  29885.39904383 </i>
    <i name="e_0_energy">  29885.39761030 </i>
   </energy>
  </scstep>
  <scstep>
   <time name="total">   25.67   25.88</time>
   <energy>
    <i name="e_fr_energy">  29885.39617672 </i>
    <i name="e_wo_entrp">  29885.39904370 </i>
    <i name="e_0_energy">  29885.39761021 </i>
   </energy>
  </scstep>
  <scstep>
   <time name="total">   25.84   26.06</time>
   <energy>
    <i name="e_fr_energy">  29885.39617660 </i>
    <i name="e_wo_entrp">  29885.39904357 </i>
    <i name="e_0_energy">  29885.39761008 </i>
   </energy>
  </scstep>
  <scstep>
   <time name="total">   25.24   25.45</time>
   <energy>
    <i name="e_fr_energy">  29885.39617711 </i>
    <i name="e_wo_entrp">  29885.39904387 </i>
    <i name="e_0_energy">  29885.39761049 </i>
   </energy>
  </scstep>
  <scstep>
   <time name="total">   25.07   25.27</time>
   <energy>
    <i name="e_fr_energy">  29885.39617693 </i>
    <i name="e_wo_entrp">  29885.39904350 </i>
    <i name="e_0_energy">  29885.39761022 </i>
   </energy>
  </scstep>
  <scstep>
   <time name="total">   25.11   25.31</time>
   <energy>
    <i name="e_fr_energy">  29885.39617660 </i>
    <i name="e_wo_entrp">  29885.39904303 </i>
    <i name="e_0_energy">  29885.39760982 </i>
   </energy>
  </scstep>
  <scstep>
   <time name="total">   25.56   25.76</time>
   <energy>
    <i name="e_fr_energy">  29885.39617630 </i>
    <i name="e_wo_entrp">  29885.39904273 </i>
    <i name="e_0_energy">  29885.39760952 </i>
   </energy>
  </scstep>
  <scstep>
   <time name="total">   25.60   25.80</time>
   <energy>
    <i name="e_fr_energy">  29885.39617610 </i>
    <i name="e_wo_entrp">  29885.39904252 </i>
    <i name="e_0_energy">  29885.39760931 </i>
   </energy>
  </scstep>
  <scstep>
   <time name="total">   25.60   25.80</time>
   <energy>
    <i name="e_fr_energy">  29885.39617648 </i>
    <i name="e_wo_entrp">  29885.39904290 </i>
    <i name="e_0_energy">  29885.39760969 </i>
   </energy>
  </scstep>
  <scstep>
   <time name="total">   25.52   25.72</time>
   <energy>
    <i name="e_fr_energy">  29885.39617669 </i>
    <i name="e_wo_entrp">  29885.39904311 </i>
    <i name="e_0_energy">  29885.39760990 </i>
   </energy>
  </scstep>
  <scstep>
   <time name="total">   25.61   25.81</time>
   <energy>
    <i name="e_fr_energy">  29885.39617663 </i>
    <i name="e_wo_entrp">  29885.39904304 </i>
    <i name="e_0_energy">  29885.39760984 </i>
   </energy>
  </scstep>
  <scstep>
   <time name="total">   25.52   25.71</time>
   <energy>
    <i name="e_fr_energy">  29885.39617696 </i>
    <i name="e_wo_entrp">  29885.39904336 </i>
    <i name="e_0_energy">  29885.39761016 </i>
   </energy>
  </scstep>
  <scstep>
   <time name="total">   25.49   25.69</time>
   <energy>
    <i name="e_fr_energy">  29885.39617672 </i>
    <i name="e_wo_entrp">  29885.39904312 </i>
    <i name="e_0_energy">  29885.39760992 </i>
   </energy>
  </scstep>
  <scstep>
   <time name="total">   24.94   25.14</time>
   <energy>
    <i name="e_fr_energy">  29885.39617723 </i>
    <i name="e_wo_entrp">  29885.39904352 </i>
    <i name="e_0_energy">  29885.39761037 </i>
   </energy>
  </scstep>
  <scstep>
   <time name="total">   25.63   25.83</time>
   <energy>
    <i name="e_fr_energy">  29885.39617672 </i>
    <i name="e_wo_entrp">  29885.39904301 </i>
    <i name="e_0_energy">  29885.39760986 </i>
   </energy>
  </scstep>
  <scstep>
   <time name="total">   24.93   25.13</time>
   <energy>
    <i name="e_fr_energy">  29885.39617732 </i>
    <i name="e_wo_entrp">  29885.39904353 </i>
    <i name="e_0_energy">  29885.39761042 </i>
   </energy>
  </scstep>
  <scstep>
   <time name="total">   25.58   25.78</time>
   <energy>
    <i name="e_fr_energy">  29885.39617690 </i>
    <i name="e_wo_entrp">  29885.39904311 </i>
    <i name="e_0_energy">  29885.39761000 </i>
   </energy>
  </scstep>
  <scstep>
   <time name="total">   25.13   25.32</time>
   <energy>
    <i name="e_fr_energy">  29885.39617696 </i>
    <i name="e_wo_entrp">  29885.39904317 </i>
    <i name="e_0_energy">  29885.39761006 </i>
   </energy>
  </scstep>
  <scstep>
   <time name="total">   25.09   25.27</time>
   <energy>
    <i name="e_fr_energy">  29885.39617610 </i>
    <i name="e_wo_entrp">  29885.39904230 </i>
    <i name="e_0_energy">  29885.39760920 </i>
   </energy>
  </scstep>
  <scstep>
   <time name="total">   25.10   25.29</time>
   <energy>
    <i name="e_fr_energy">  29885.39617678 </i>
    <i name="e_wo_entrp">  29885.39904299 </i>
    <i name="e_0_energy">  29885.39760988 </i>
   </energy>
  </scstep>
  <scstep>
   <time name="total">   28.90   29.12</time>
   <energy>
    <i name="alphaZ">    723.46519426 </i>
    <i name="ewald">  22431.08255773 </i>
    <i name="hartreedc">  -4868.14286699 </i>
    <i name="XCdc">    556.41600344 </i>
    <i name="pawpsdc">**************** </i>
    <i name="pawaedc">**************** </i>
    <i name="eentropy">     -0.00286620 </i>
    <i name="bandstr">  -1072.81089804 </i>
    <i name="atom">  11728.30056431 </i>
    <i name="e_fr_energy">  29885.39617678 </i>
    <i name="e_wo_entrp">  29885.39904298 </i>
    <i name="e_0_energy">  29885.39760988 </i>
   </energy>
  </scstep>
  <structure>
   <crystal>
    <varray name="basis" >
     <v>       4.91640375       0.00000000      -2.72184290 </v>
     <v>      -1.70791152       4.61021302      -2.72184290 </v>
     <v>       0.00000000       0.00000000       5.61956000 </v>
    </varray>
    <i name="volume">    127.37108442 </i>
    <varray name="rec_basis" >
     <v>       0.20340071       0.07535236       0.00000000 </v>
     <v>       0.00000000       0.21690972       0.00000000 </v>
     <v>       0.09851746       0.14155760       0.17794988 </v>
    </varray>
   </crystal>
   <varray name="positions" >
    <v>       0.50000000       0.00000000       0.50000000 </v>
    <v>       0.00000000       0.50000000       0.50000000 </v>
    <v>       0.25000000       0.25000000       0.00000000 </v>
    <v>       0.24161000       0.74161000       0.98322000 </v>
    <v>       0.75000000       0.75000000       0.00000000 </v>
    <v>       0.75839000       0.25839000       0.01678000 </v>
    <v>       0.74161000       0.75839000       0.50000000 </v>
    <v>       0.25839000       0.24161000       0.50000000 </v>
    <v>       0.25303000       0.75303000       0.00607000 </v>
    <v>       0.74697000       0.24697000       0.99393000 </v>
    <v>       0.75303000       0.74697000       0.50000000 </v>
    <v>       0.24697000       0.25303000       0.50000000 </v>
   </varray>
  </structure>
  <varray name="forces" >
   <v>       0.00000000       0.00000000       0.00000000 </v>
   <v>       0.00000000       0.00000000       0.00000000 </v>
   <v>       0.00000000       0.00000000       0.00000000 </v>
   <v>       0.00000000       0.00000000       0.00000000 </v>
   <v>       0.00000000       0.00000000       0.00000000 </v>
   <v>       0.00000000       0.00000000       0.00000000 </v>
   <v>       0.00000000       0.00000000       0.00000000 </v>
   <v>       0.00000000       0.00000000       0.00000000 </v>
   <v>       0.00000000       0.00000000       0.00000000 </v>
   <v>       0.00000000       0.00000000       0.00000000 </v>
   <v>       0.00000000       0.00000000       0.00000000 </v>
   <v>       0.00000000       0.00000000       0.00000000 </v>
  </varray>
  <varray name="stress" >
   <v>       0.00000000       0.00000000       0.00000000 </v>
   <v>       0.00000000       0.00000000       0.00000000 </v>
   <v>       0.00000000       0.00000000       0.00000000 </v>
  </varray>
  <energy>
   <i name="e_fr_energy">  29885.39617678 </i>
   <i name="e_wo_entrp">  29885.39904298 </i>
   <i name="e_0_energy">  29885.39760988 </i>
  </energy>
  <time name="totalsc"> 1902.01 1918.41</time>
  <eigenvalues>
   <array>
    <dimension dim="1">band</dimension>
    <dimension dim="2">kpoint</dimension>
    <dimension dim="3">spin</dimension>
    <field>eigene</field>
    <field>occ</field>
    <set>
     <set comment="spin 1">
      <set comment="kpoint 1">
       <r>  -53.8015    1.0000 </r>
       <r>  -53.7996    1.0000 </r>
       <r>  -30.4184    1.0000 </r>
       <r>  -30.4154    1.0000 </r>
       <r>  -30.4132    1.0000 </r>
       <r>  -30.4109    1.0000 </r>
       <r>  -27.3047    1.0000 </r>
       <r>  -27.3047    1.0000 </r>
       <r>  -27.2893    1.0000 </r>
       <r>  -27.2893    1.0000 </r>
       <r>  -27.2703    1.0000 </r>
       <r>  -27.2365    1.0000 </r>
       <r>  -19.7483    1.0000 </r>
       <r>  -19.4156    1.0000 </r>
       <r>  -19.4138    1.0000 </r>
       <r>  -18.9470    1.0000 </r>
       <r>  -18.7873    1.0000 </r>
       <r>  -18.4194    1.0000 </r>
       <r>  -18.4189    1.0000 </r>
       <r>  -18.4124    1.0000 </r>
       <r>  -18.3661    1.0000 </r>
       <r>  -18.3630    1.0000 </r>
       <r>  -18.2901    1.0000 </r>
       <r>  -18.2077    1.0000 </r>
       <r>   -2.9166    1.0000 </r>
       <r>   -0.9075    1.0000 </r>
       <r>   -0.9072    1.0000 </r>
       <r>   -0.3975    1.0000 </r>
       <r>   -0.3539    1.0000 </r>
       <r>    0.2934    1.0000 </r>
       <r>    0.4314    1.0000 </r>
       <r>    0.6252    1.0000 </r>
       <r>    0.6254    1.0000 </r>
       <r>    0.8303    1.0000 </r>
       <r>    0.8303    1.0000 </r>
       <r>    1.1918    1.0000 </r>
       <r>    1.7457    1.0000 </r>
       <r>    1.8001    1.0000 </r>
       <r>    1.8003    1.0000 </r>
       <r>    1.9769    1.0000 </r>
       <r>    2.0689    1.0000 </r>
       <r>    2.2572    1.0000 </r>
       <r>    2.2576    1.0000 </r>
       <r>    2.9152    1.0000 </r>
       <r>    3.5053    1.0000 </r>
       <r>    3.6848    1.0000 </r>
       <r>    8.2166    1.0000 </r>
       <r>    8.3732    1.0000 </r>
       <r>    8.3736    1.0000 </r>
       <r>    8.3794    1.0000 </r>
       <r>    8.5707    1.0000 </r>
       <r>    8.6934    0.9999 </r>
       <r>    9.2906    0.0000 </r>
       <r>    9.4047    0.0000 </r>
       <r>    9.4051    0.0000 </r>
       <r>    9.4266    0.0000 </r>
       <r>    9.7226    0.0000 </r>
       <r>   10.0074    0.0000 </r>
       <r>   10.0075    0.0000 </r>
       <r>   11.1509    0.0000 </r>
       <r>   11.4564    0.0000 </r>
       <r>   11.5309    0.0000 </r>
       <r>   11.5311    0.0000 </r>
       <r>   13.0399    0.0000 </r>
       <r>   15.1845    0.0000 </r>
       <r>   15.1931    0.0000 </r>
      </set>
      <set comment="kpoint 2">
       <r>  -53.8015    1.0000 </r>
       <r>  -53.7997    1.0000 </r>
       <r>  -30.4185    1.0000 </r>
       <r>  -30.4155    1.0000 </r>
       <r>  -30.4131    1.0000 </r>
       <r>  -30.4109    1.0000 </r>
       <r>  -27.3036    1.0000 </r>
       <r>  -27.3036    1.0000 </r>
       <r>  -27.2894    1.0000 </r>
       <r>  -27.2893    1.0000 </r>
       <r>  -27.2679    1.0000 </r>
       <r>  -27.2367    1.0000 </r>
       <r>  -19.7339    1.0000 </r>
       <r>  -19.4259    1.0000 </r>
       <r>  -19.3960    1.0000 </r>
       <r>  -18.9630    1.0000 </r>
       <r>  -18.7793    1.0000 </r>
       <r>  -18.4394    1.0000 </r>
       <r>  -18.4141    1.0000 </r>
       <r>  -18.4128    1.0000 </r>
       <r>  -18.3691    1.0000 </r>
       <r>  -18.3624    1.0000 </r>
       <r>  -18.2942    1.0000 </r>
       <r>  -18.2198    1.0000 </r>
       <r>   -2.8483    1.0000 </r>
       <r>   -0.9890    1.0000 </r>
       <r>   -0.8267    1.0000 </r>
       <r>   -0.3511    1.0000 </r>
       <r>   -0.2921    1.0000 </r>
       <r>    0.3510    1.0000 </r>
       <r>    0.4767    1.0000 </r>
       <r>    0.6297    1.0000 </r>
       <r>    0.6777    1.0000 </r>
       <r>    0.7472    1.0000 </r>
       <r>    0.8888    1.0000 </r>
       <r>    1.1456    1.0000 </r>
       <r>    1.7302    1.0000 </r>
       <r>    1.7390    1.0000 </r>
       <r>    1.8079    1.0000 </r>
       <r>    1.9517    1.0000 </r>
       <r>    2.0434    1.0000 </r>
       <r>    2.1586    1.0000 </r>
       <r>    2.2531    1.0000 </r>
       <r>    2.8135    1.0000 </r>
       <r>    3.6416    1.0000 </r>
       <r>    3.7662    1.0000 </r>
       <r>    8.2275    1.0000 </r>
       <r>    8.2727    1.0000 </r>
       <r>    8.3486    1.0000 </r>
       <r>    8.3931    1.0000 </r>
       <r>    8.4353    1.0000 </r>
       <r>    8.7859    0.0031 </r>
       <r>    9.0154    0.0000 </r>
       <r>    9.2156    0.0000 </r>
       <r>    9.4552    0.0000 </r>
       <r>    9.4893    0.0000 </r>
       <r>    9.5040    0.0000 </r>
       <r>   10.0226    0.0000 </r>
       <r>   10.0494    0.0000 </r>
       <r>   10.4402    0.0000 </r>
       <r>   11.2987    0.0000 </r>
       <r>   11.8185    0.0000 </r>
       <r>   12.2005    0.0000 </r>
       <r>   13.2219    0.0000 </r>
       <r>   15.0404    0.0000 </r>
       <r>   15.1494    0.0000 </r>
      </set>
      <set comment="kpoint 3">
       <r>  -53.8013    1.0000 </r>
       <r>  -53.8000    1.0000 </r>
       <r>  -30.4183    1.0000 </r>
       <r>  -30.4154    1.0000 </r>
       <r>  -30.4131    1.0000 </r>
       <r>  -30.4109    1.0000 </r>
       <r>  -27.3008    1.0000 </r>
       <r>  -27.3006    1.0000 </r>
       <r>  -27.2899    1.0000 </r>
       <r>  -27.2897    1.0000 </r>
       <r>  -27.2615    1.0000 </r>
       <r>  -27.2377    1.0000 </r>
       <r>  -19.6936    1.0000 </r>
       <r>  -19.4580    1.0000 </r>
       <r>  -19.3429    1.0000 </r>
       <r>  -19.0097    1.0000 </r>
       <r>  -18.7543    1.0000 </r>
       <r>  -18.4948    1.0000 </r>
       <r>  -18.4127    1.0000 </r>
       <r>  -18.3988    1.0000 </r>
       <r>  -18.3795    1.0000 </r>
       <r>  -18.3575    1.0000 </r>
       <r>  -18.3049    1.0000 </r>
       <r>  -18.2519    1.0000 </r>
       <r>   -2.6504    1.0000 </r>
       <r>   -1.2240    1.0000 </r>
       <r>   -0.5953    1.0000 </r>
       <r>   -0.2253    1.0000 </r>
       <r>   -0.1186    1.0000 </r>
       <r>    0.5206    1.0000 </r>
       <r>    0.5381    1.0000 </r>
       <r>    0.6233    1.0000 </r>
       <r>    0.6314    1.0000 </r>
       <r>    0.8204    1.0000 </r>
       <r>    0.9753    1.0000 </r>
       <r>    1.0561    1.0000 </r>
       <r>    1.5354    1.0000 </r>
       <r>    1.6784    1.0000 </r>
       <r>    1.8274    1.0000 </r>
       <r>    1.9001    1.0000 </r>
       <r>    1.9056    1.0000 </r>
       <r>    1.9930    1.0000 </r>
       <r>    2.2424    1.0000 </r>
       <r>    2.5614    1.0000 </r>
       <r>    3.9572    1.0000 </r>
       <r>    4.0048    1.0000 </r>
       <r>    8.0699    1.0000 </r>
       <r>    8.1582    1.0000 </r>
       <r>    8.2148    1.0000 </r>
       <r>    8.2525    1.0000 </r>
       <r>    8.4733    1.0000 </r>
       <r>    8.5831    1.0000 </r>
       <r>    8.8556    0.0000 </r>
       <r>    9.0197    0.0000 </r>
       <r>    9.0438    0.0000 </r>
       <r>    9.2415    0.0000 </r>
       <r>    9.4216    0.0000 </r>
       <r>    9.5841    0.0000 </r>
       <r>    9.9704    0.0000 </r>
       <r>   10.5373    0.0000 </r>
       <r>   11.0728    0.0000 </r>
       <r>   12.3332    0.0000 </r>
       <r>   13.1551    0.0000 </r>
       <r>   13.6270    0.0000 </r>
       <r>   14.9694    0.0000 </r>
       <r>   15.3015    0.0000 </r>
      </set>
      <set comment="kpoint 4">
       <r>  -53.8011    1.0000 </r>
       <r>  -53.8004    1.0000 </r>
       <r>  -30.4183    1.0000 </r>
       <r>  -30.4155    1.0000 </r>
       <r>  -30.4131    1.0000 </r>
       <r>  -30.4110    1.0000 </r>
       <r>  -27.2973    1.0000 </r>
       <r>  -27.2968    1.0000 </r>
       <r>  -27.2914    1.0000 </r>
       <r>  -27.2909    1.0000 </r>
       <r>  -27.2532    1.0000 </r>
       <r>  -27.2403    1.0000 </r>
       <r>  -19.6353    1.0000 </r>
       <r>  -19.5079    1.0000 </r>
       <r>  -19.2639    1.0000 </r>
       <r>  -19.0825    1.0000 </r>
       <r>  -18.7100    1.0000 </r>
       <r>  -18.5699    1.0000 </r>
       <r>  -18.4103    1.0000 </r>
       <r>  -18.3925    1.0000 </r>
       <r>  -18.3732    1.0000 </r>
       <r>  -18.3487    1.0000 </r>
       <r>  -18.3192    1.0000 </r>
       <r>  -18.2939    1.0000 </r>
       <r>   -2.3450    1.0000 </r>
       <r>   -1.5726    1.0000 </r>
       <r>   -0.2484    1.0000 </r>
       <r>   -0.0466    1.0000 </r>
       <r>    0.1137    1.0000 </r>
       <r>    0.3586    1.0000 </r>
       <r>    0.5684    1.0000 </r>
       <r>    0.6363    1.0000 </r>
       <r>    0.7839    1.0000 </r>
       <r>    0.8149    1.0000 </r>
       <r>    1.0469    1.0000 </r>
       <r>    1.2599    1.0000 </r>
       <r>    1.3052    1.0000 </r>
       <r>    1.5277    1.0000 </r>
       <r>    1.5578    1.0000 </r>
       <r>    1.8486    1.0000 </r>
       <r>    1.8810    1.0000 </r>
       <r>    1.8819    1.0000 </r>
       <r>    2.2301    1.0000 </r>
       <r>    2.3128    1.0000 </r>
       <r>    4.2934    1.0000 </r>
       <r>    4.3162    1.0000 </r>
       <r>    7.6020    1.0000 </r>
       <r>    7.9445    1.0000 </r>
       <r>    8.1670    1.0000 </r>
       <r>    8.1716    1.0000 </r>
       <r>    8.4596    1.0000 </r>
       <r>    8.4858    1.0000 </r>
       <r>    8.6503    1.0000 </r>
       <r>    8.6994    0.9996 </r>
       <r>    8.8412    0.0000 </r>
       <r>    8.9104    0.0000 </r>
       <r>    9.0502    0.0000 </r>
       <r>    9.5518    0.0000 </r>
       <r>   10.0826    0.0000 </r>
       <r>   10.6611    0.0000 </r>
       <r>   11.3887    0.0000 </r>
       <r>   12.4577    0.0000 </r>
       <r>   14.0148    0.0000 </r>
       <r>   14.0316    0.0000 </r>
       <r>   14.9801    0.0000 </r>
       <r>   15.2213    0.0000 </r>
      </set>
      <set comment="kpoint 5">
       <r>  -53.8008    1.0000 </r>
       <r>  -53.8008    1.0000 </r>
       <r>  -30.4184    1.0000 </r>
       <r>  -30.4156    1.0000 </r>
       <r>  -30.4131    1.0000 </r>
       <r>  -30.4111    1.0000 </r>
       <r>  -27.2940    1.0000 </r>
       <r>  -27.2940    1.0000 </r>
       <r>  -27.2933    1.0000 </r>
       <r>  -27.2933    1.0000 </r>
       <r>  -27.2456    1.0000 </r>
       <r>  -27.2456    1.0000 </r>
       <r>  -19.5700    1.0000 </r>
       <r>  -19.5696    1.0000 </r>
       <r>  -19.1721    1.0000 </r>
       <r>  -19.1718    1.0000 </r>
       <r>  -18.6465    1.0000 </r>
       <r>  -18.6462    1.0000 </r>
       <r>  -18.4036    1.0000 </r>
       <r>  -18.4035    1.0000 </r>
       <r>  -18.3428    1.0000 </r>
       <r>  -18.3423    1.0000 </r>
       <r>  -18.3303    1.0000 </r>
       <r>  -18.3289    1.0000 </r>
       <r>   -1.9686    1.0000 </r>
       <r>   -1.9682    1.0000 </r>
       <r>    0.0812    1.0000 </r>
       <r>    0.0815    1.0000 </r>
       <r>    0.2312    1.0000 </r>
       <r>    0.2313    1.0000 </r>
       <r>    0.4239    1.0000 </r>
       <r>    0.4240    1.0000 </r>
       <r>    0.9945    1.0000 </r>
       <r>    0.9946    1.0000 </r>
       <r>    1.1738    1.0000 </r>
       <r>    1.1738    1.0000 </r>
       <r>    1.2838    1.0000 </r>
       <r>    1.2840    1.0000 </r>
       <r>    1.6281    1.0000 </r>
       <r>    1.6282    1.0000 </r>
       <r>    1.8666    1.0000 </r>
       <r>    1.8666    1.0000 </r>
       <r>    2.2293    1.0000 </r>
       <r>    2.2293    1.0000 </r>
       <r>    4.4636    1.0000 </r>
       <r>    4.4647    1.0000 </r>
       <r>    7.5330    1.0000 </r>
       <r>    7.5339    1.0000 </r>
       <r>    8.2017    1.0000 </r>
       <r>    8.2019    1.0000 </r>
       <r>    8.3316    1.0000 </r>
       <r>    8.3318    1.0000 </r>
       <r>    8.6504    1.0000 </r>
       <r>    8.6507    1.0000 </r>
       <r>    8.7777    0.0154 </r>
       <r>    8.7777    0.0153 </r>
       <r>    9.2587    0.0000 </r>
       <r>    9.2588    0.0000 </r>
       <r>   10.3878    0.0000 </r>
       <r>   10.3887    0.0000 </r>
       <r>   12.0428    0.0000 </r>
       <r>   12.0439    0.0000 </r>
       <r>   14.2788    0.0000 </r>
       <r>   14.2799    0.0000 </r>
       <r>   15.4068    0.0000 </r>
       <r>   15.4173    0.0000 </r>
      </set>
      <set comment="kpoint 6">
       <r>  -53.8014    1.0000 </r>
       <r>  -53.7999    1.0000 </r>
       <r>  -30.4185    1.0000 </r>
       <r>  -30.4155    1.0000 </r>
       <r>  -30.4132    1.0000 </r>
       <r>  -30.4109    1.0000 </r>
       <r>  -27.3036    1.0000 </r>
       <r>  -27.3005    1.0000 </r>
       <r>  -27.2900    1.0000 </r>
       <r>  -27.2882    1.0000 </r>
       <r>  -27.2629    1.0000 </r>
       <r>  -27.2380    1.0000 </r>
       <r>  -19.7198    1.0000 </r>
       <r>  -19.4075    1.0000 </r>
       <r>  -19.4073    1.0000 </r>
       <r>  -18.9787    1.0000 </r>
       <r>  -18.7750    1.0000 </r>
       <r>  -18.4389    1.0000 </r>
       <r>  -18.4321    1.0000 </r>
       <r>  -18.4161    1.0000 </r>
       <r>  -18.3692    1.0000 </r>
       <r>  -18.3639    1.0000 </r>
       <r>  -18.2999    1.0000 </r>
       <r>  -18.2321    1.0000 </r>
       <r>   -2.7731    1.0000 </r>
       <r>   -0.9675    1.0000 </r>
       <r>   -0.8551    1.0000 </r>
       <r>   -0.2998    1.0000 </r>
       <r>   -0.2035    1.0000 </r>
       <r>    0.4356    1.0000 </r>
       <r>    0.5435    1.0000 </r>
       <r>    0.6897    1.0000 </r>
       <r>    0.6968    1.0000 </r>
       <r>    0.7822    1.0000 </r>
       <r>    0.8471    1.0000 </r>
       <r>    1.1085    1.0000 </r>
       <r>    1.7147    1.0000 </r>
       <r>    1.7413    1.0000 </r>
       <r>    1.7576    1.0000 </r>
       <r>    1.9241    1.0000 </r>
       <r>    2.0356    1.0000 </r>
       <r>    2.1339    1.0000 </r>
       <r>    2.1382    1.0000 </r>
       <r>    2.7128    1.0000 </r>
       <r>    3.7123    1.0000 </r>
       <r>    3.9407    1.0000 </r>
       <r>    8.0375    1.0000 </r>
       <r>    8.1832    1.0000 </r>
       <r>    8.2850    1.0000 </r>
       <r>    8.4051    1.0000 </r>
       <r>    8.4593    1.0000 </r>
       <r>    8.7373    0.7570 </r>
       <r>    8.8782    0.0000 </r>
       <r>    8.9371    0.0000 </r>
       <r>    9.1867    0.0000 </r>
       <r>    9.3731    0.0000 </r>
       <r>    9.5048    0.0000 </r>
       <r>   10.0255    0.0000 </r>
       <r>   10.1907    0.0000 </r>
       <r>   10.3042    0.0000 </r>
       <r>   10.6563    0.0000 </r>
       <r>   12.3424    0.0000 </r>
       <r>   12.5988    0.0000 </r>
       <r>   13.3169    0.0000 </r>
       <r>   15.1254    0.0000 </r>
       <r>   15.2495    0.0000 </r>
      </set>
      <set comment="kpoint 7">
       <r>  -53.8012    1.0000 </r>
       <r>  -53.8002    1.0000 </r>
       <r>  -30.4184    1.0000 </r>
       <r>  -30.4154    1.0000 </r>
       <r>  -30.4131    1.0000 </r>
       <r>  -30.4109    1.0000 </r>
       <r>  -27.3018    1.0000 </r>
       <r>  -27.2967    1.0000 </r>
       <r>  -27.2915    1.0000 </r>
       <r>  -27.2875    1.0000 </r>
       <r>  -27.2550    1.0000 </r>
       <r>  -27.2404    1.0000 </r>
       <r>  -19.6792    1.0000 </r>
       <r>  -19.4398    1.0000 </r>
       <r>  -19.3545    1.0000 </r>
       <r>  -19.0247    1.0000 </r>
       <r>  -18.7516    1.0000 </r>
       <r>  -18.4901    1.0000 </r>
       <r>  -18.4225    1.0000 </r>
       <r>  -18.4148    1.0000 </r>
       <r>  -18.3760    1.0000 </r>
       <r>  -18.3598    1.0000 </r>
       <r>  -18.3115    1.0000 </r>
       <r>  -18.2647    1.0000 </r>
       <r>   -2.5709    1.0000 </r>
       <r>   -1.1750    1.0000 </r>
       <r>   -0.6602    1.0000 </r>
       <r>   -0.1688    1.0000 </r>
       <r>   -0.0132    1.0000 </r>
       <r>    0.5944    1.0000 </r>
       <r>    0.6098    1.0000 </r>
       <r>    0.6962    1.0000 </r>
       <r>    0.7000    1.0000 </r>
       <r>    0.8336    1.0000 </r>
       <r>    0.9348    1.0000 </r>
       <r>    0.9951    1.0000 </r>
       <r>    1.5199    1.0000 </r>
       <r>    1.6817    1.0000 </r>
       <r>    1.7605    1.0000 </r>
       <r>    1.8660    1.0000 </r>
       <r>    1.8690    1.0000 </r>
       <r>    2.0065    1.0000 </r>
       <r>    2.1155    1.0000 </r>
       <r>    2.4623    1.0000 </r>
       <r>    3.9644    1.0000 </r>
       <r>    4.2797    1.0000 </r>
       <r>    7.6408    1.0000 </r>
       <r>    8.0736    1.0000 </r>
       <r>    8.2838    1.0000 </r>
       <r>    8.3503    1.0000 </r>
       <r>    8.4601    1.0000 </r>
       <r>    8.5162    1.0000 </r>
       <r>    8.6144    1.0000 </r>
       <r>    8.7159    0.9864 </r>
       <r>    8.8717    0.0000 </r>
       <r>    9.2638    0.0000 </r>
       <r>    9.4701    0.0000 </r>
       <r>    9.6861    0.0000 </r>
       <r>    9.9395    0.0000 </r>
       <r>   10.4780    0.0000 </r>
       <r>   10.8096    0.0000 </r>
       <r>   12.3840    0.0000 </r>
       <r>   13.5793    0.0000 </r>
       <r>   13.6845    0.0000 </r>
       <r>   15.0400    0.0000 </r>
       <r>   15.2658    0.0000 </r>
      </set>
      <set comment="kpoint 8">
       <r>  -53.8009    1.0000 </r>
       <r>  -53.8006    1.0000 </r>
       <r>  -30.4183    1.0000 </r>
       <r>  -30.4154    1.0000 </r>
       <r>  -30.4132    1.0000 </r>
       <r>  -30.4110    1.0000 </r>
       <r>  -27.2989    1.0000 </r>
       <r>  -27.2942    1.0000 </r>
       <r>  -27.2931    1.0000 </r>
       <r>  -27.2880    1.0000 </r>
       <r>  -27.2469    1.0000 </r>
       <r>  -27.2445    1.0000 </r>
       <r>  -19.6201    1.0000 </r>
       <r>  -19.4899    1.0000 </r>
       <r>  -19.2759    1.0000 </r>
       <r>  -19.0964    1.0000 </r>
       <r>  -18.7067    1.0000 </r>
       <r>  -18.5617    1.0000 </r>
       <r>  -18.4161    1.0000 </r>
       <r>  -18.3916    1.0000 </r>
       <r>  -18.3863    1.0000 </r>
       <r>  -18.3499    1.0000 </r>
       <r>  -18.3259    1.0000 </r>
       <r>  -18.3072    1.0000 </r>
       <r>   -2.2646    1.0000 </r>
       <r>   -1.5240    1.0000 </r>
       <r>   -0.3189    1.0000 </r>
       <r>    0.0093    1.0000 </r>
       <r>    0.2108    1.0000 </r>
       <r>    0.4203    1.0000 </r>
       <r>    0.5761    1.0000 </r>
       <r>    0.5973    1.0000 </r>
       <r>    0.8467    1.0000 </r>
       <r>    0.9158    1.0000 </r>
       <r>    1.0582    1.0000 </r>
       <r>    1.2338    1.0000 </r>
       <r>    1.2451    1.0000 </r>
       <r>    1.4841    1.0000 </r>
       <r>    1.5498    1.0000 </r>
       <r>    1.7797    1.0000 </r>
       <r>    1.8372    1.0000 </r>
       <r>    1.8787    1.0000 </r>
       <r>    2.0974    1.0000 </r>
       <r>    2.2429    1.0000 </r>
       <r>    4.2470    1.0000 </r>
       <r>    4.6452    1.0000 </r>
       <r>    7.2752    1.0000 </r>
       <r>    7.7606    1.0000 </r>
       <r>    8.0890    1.0000 </r>
       <r>    8.2632    1.0000 </r>
       <r>    8.3153    1.0000 </r>
       <r>    8.4388    1.0000 </r>
       <r>    8.6623    1.0000 </r>
       <r>    8.7666    0.0852 </r>
       <r>    8.8549    0.0000 </r>
       <r>    8.9748    0.0000 </r>
       <r>    9.1094    0.0000 </r>
       <r>    9.6471    0.0000 </r>
       <r>    9.9888    0.0000 </r>
       <r>   10.5080    0.0000 </r>
       <r>   11.4473    0.0000 </r>
       <r>   12.1604    0.0000 </r>
       <r>   13.7674    0.0000 </r>
       <r>   14.7610    0.0000 </r>
       <r>   14.9506    0.0000 </r>
       <r>   15.5632    0.0000 </r>
      </set>
      <set comment="kpoint 9">
       <r>  -53.8009    1.0000 </r>
       <r>  -53.8006    1.0000 </r>
       <r>  -30.4183    1.0000 </r>
       <r>  -30.4154    1.0000 </r>
       <r>  -30.4132    1.0000 </r>
       <r>  -30.4111    1.0000 </r>
       <r>  -27.2976    1.0000 </r>
       <r>  -27.2960    1.0000 </r>
       <r>  -27.2905    1.0000 </r>
       <r>  -27.2901    1.0000 </r>
       <r>  -27.2508    1.0000 </r>
       <r>  -27.2405    1.0000 </r>
       <r>  -19.5535    1.0000 </r>
       <r>  -19.5522    1.0000 </r>
       <r>  -19.1848    1.0000 </r>
       <r>  -19.1846    1.0000 </r>
       <r>  -18.6410    1.0000 </r>
       <r>  -18.6342    1.0000 </r>
       <r>  -18.4070    1.0000 </r>
       <r>  -18.3954    1.0000 </r>
       <r>  -18.3556    1.0000 </r>
       <r>  -18.3526    1.0000 </r>
       <r>  -18.3391    1.0000 </r>
       <r>  -18.3333    1.0000 </r>
       <r>   -1.9205    1.0000 </r>
       <r>   -1.8910    1.0000 </r>
       <r>    0.0767    1.0000 </r>
       <r>    0.0869    1.0000 </r>
       <r>    0.2114    1.0000 </r>
       <r>    0.2193    1.0000 </r>
       <r>    0.4155    1.0000 </r>
       <r>    0.5030    1.0000 </r>
       <r>    0.9737    1.0000 </r>
       <r>    1.0360    1.0000 </r>
       <r>    1.1060    1.0000 </r>
       <r>    1.2504    1.0000 </r>
       <r>    1.2759    1.0000 </r>
       <r>    1.2928    1.0000 </r>
       <r>    1.5725    1.0000 </r>
       <r>    1.5832    1.0000 </r>
       <r>    1.7990    1.0000 </r>
       <r>    1.8169    1.0000 </r>
       <r>    2.0961    1.0000 </r>
       <r>    2.1988    1.0000 </r>
       <r>    4.3678    1.0000 </r>
       <r>    4.7549    1.0000 </r>
       <r>    7.3177    1.0000 </r>
       <r>    7.3775    1.0000 </r>
       <r>    8.2127    1.0000 </r>
       <r>    8.2390    1.0000 </r>
       <r>    8.3891    1.0000 </r>
       <r>    8.4663    1.0000 </r>
       <r>    8.6193    1.0000 </r>
       <r>    8.7159    0.9865 </r>
       <r>    8.8177    0.0000 </r>
       <r>    9.0103    0.0000 </r>
       <r>    9.2998    0.0000 </r>
       <r>    9.3514    0.0000 </r>
       <r>   10.2493    0.0000 </r>
       <r>   10.3824    0.0000 </r>
       <r>   11.7113    0.0000 </r>
       <r>   12.1681    0.0000 </r>
       <r>   13.6654    0.0000 </r>
       <r>   14.7065    0.0000 </r>
       <r>   15.3553    0.0000 </r>
       <r>   15.6417    0.0000 </r>
      </set>
      <set comment="kpoint 10">
       <r>  -53.8012    1.0000 </r>
       <r>  -53.8002    1.0000 </r>
       <r>  -30.4183    1.0000 </r>
       <r>  -30.4154    1.0000 </r>
       <r>  -30.4132    1.0000 </r>
       <r>  -30.4110    1.0000 </r>
       <r>  -27.3012    1.0000 </r>
       <r>  -27.2936    1.0000 </r>
       <r>  -27.2935    1.0000 </r>
       <r>  -27.2892    1.0000 </r>
       <r>  -27.2584    1.0000 </r>
       <r>  -27.2369    1.0000 </r>
       <r>  -19.6185    1.0000 </r>
       <r>  -19.4904    1.0000 </r>
       <r>  -19.2756    1.0000 </r>
       <r>  -19.0963    1.0000 </r>
       <r>  -18.6953    1.0000 </r>
       <r>  -18.5627    1.0000 </r>
       <r>  -18.4019    1.0000 </r>
       <r>  -18.3935    1.0000 </r>
       <r>  -18.3877    1.0000 </r>
       <r>  -18.3532    1.0000 </r>
       <r>  -18.3188    1.0000 </r>
       <r>  -18.3089    1.0000 </r>
       <r>   -2.2954    1.0000 </r>
       <r>   -1.5018    1.0000 </r>
       <r>   -0.3045    1.0000 </r>
       <r>   -0.0048    1.0000 </r>
       <r>    0.1156    1.0000 </r>
       <r>    0.4025    1.0000 </r>
       <r>    0.5446    1.0000 </r>
       <r>    0.6139    1.0000 </r>
       <r>    0.7620    1.0000 </r>
       <r>    0.7674    1.0000 </r>
       <r>    1.0034    1.0000 </r>
       <r>    1.2286    1.0000 </r>
       <r>    1.3157    1.0000 </r>
       <r>    1.5103    1.0000 </r>
       <r>    1.6400    1.0000 </r>
       <r>    1.7925    1.0000 </r>
       <r>    1.8146    1.0000 </r>
       <r>    1.8205    1.0000 </r>
       <r>    2.1926    1.0000 </r>
       <r>    2.2025    1.0000 </r>
       <r>    4.2116    1.0000 </r>
       <r>    4.5269    1.0000 </r>
       <r>    7.5027    1.0000 </r>
       <r>    7.7648    1.0000 </r>
       <r>    8.2647    1.0000 </r>
       <r>    8.3544    1.0000 </r>
       <r>    8.3960    1.0000 </r>
       <r>    8.5173    1.0000 </r>
       <r>    8.7811    0.0082 </r>
       <r>    8.7999    0.0001 </r>
       <r>    8.9034    0.0000 </r>
       <r>    9.0775    0.0000 </r>
       <r>    9.4100    0.0000 </r>
       <r>    9.5216    0.0000 </r>
       <r>   10.1725    0.0000 </r>
       <r>   10.4423    0.0000 </r>
       <r>   11.1693    0.0000 </r>
       <r>   12.7380    0.0000 </r>
       <r>   13.2080    0.0000 </r>
       <r>   14.2223    0.0000 </r>
       <r>   15.0330    0.0000 </r>
       <r>   15.6695    0.0000 </r>
      </set>
      <set comment="kpoint 11">
       <r>  -53.8014    1.0000 </r>
       <r>  -53.7999    1.0000 </r>
       <r>  -30.4184    1.0000 </r>
       <r>  -30.4154    1.0000 </r>
       <r>  -30.4131    1.0000 </r>
       <r>  -30.4109    1.0000 </r>
       <r>  -27.3040    1.0000 </r>
       <r>  -27.2977    1.0000 </r>
       <r>  -27.2917    1.0000 </r>
       <r>  -27.2889    1.0000 </r>
       <r>  -27.2651    1.0000 </r>
       <r>  -27.2357    1.0000 </r>
       <r>  -19.6777    1.0000 </r>
       <r>  -19.4397    1.0000 </r>
       <r>  -19.3540    1.0000 </r>
       <r>  -19.0245    1.0000 </r>
       <r>  -18.7397    1.0000 </r>
       <r>  -18.4873    1.0000 </r>
       <r>  -18.4157    1.0000 </r>
       <r>  -18.4051    1.0000 </r>
       <r>  -18.3786    1.0000 </r>
       <r>  -18.3617    1.0000 </r>
[...]
       <r>    2.0351    1.0000 </r>
       <r>    2.1804    1.0000 </r>
       <r>    4.3445    1.0000 </r>
       <r>    4.4601    1.0000 </r>
       <r>    7.3999    1.0000 </r>
       <r>    8.0036    1.0000 </r>
       <r>    8.1398    1.0000 </r>
       <r>    8.3090    1.0000 </r>
       <r>    8.3493    1.0000 </r>
       <r>    8.5000    1.0000 </r>
       <r>    8.6395    1.0000 </r>
       <r>    8.7789    0.0125 </r>
       <r>    8.8877    0.0000 </r>
       <r>    9.2530    0.0000 </r>
       <r>    9.3662    0.0000 </r>
       <r>    9.7628    0.0000 </r>
       <r>    9.9653    0.0000 </r>
       <r>   10.2428    0.0000 </r>
       <r>   11.0066    0.0000 </r>
       <r>   12.4744    0.0000 </r>
       <r>   13.9616    0.0000 </r>
       <r>   14.0292    0.0000 </r>
       <r>   14.9884    0.0000 </r>
       <r>   15.8438    0.0000 </r>
      </set>
      <set comment="kpoint 165">
       <r>  -53.8012    1.0000 </r>
       <r>  -53.8003    1.0000 </r>
       <r>  -30.4183    1.0000 </r>
       <r>  -30.4152    1.0000 </r>
       <r>  -30.4134    1.0000 </r>
       <r>  -30.4111    1.0000 </r>
       <r>  -27.3045    1.0000 </r>
       <r>  -27.2959    1.0000 </r>
       <r>  -27.2890    1.0000 </r>
       <r>  -27.2873    1.0000 </r>
       <r>  -27.2579    1.0000 </r>
       <r>  -27.2369    1.0000 </r>
       <r>  -19.5689    1.0000 </r>
       <r>  -19.3788    1.0000 </r>
       <r>  -19.3716    1.0000 </r>
       <r>  -19.1379    1.0000 </r>
       <r>  -18.6681    1.0000 </r>
       <r>  -18.5012    1.0000 </r>
       <r>  -18.4758    1.0000 </r>
       <r>  -18.3950    1.0000 </r>
       <r>  -18.3811    1.0000 </r>
       <r>  -18.3674    1.0000 </r>
       <r>  -18.3523    1.0000 </r>
       <r>  -18.3258    1.0000 </r>
       <r>   -2.1038    1.0000 </r>
       <r>   -1.2050    1.0000 </r>
       <r>   -0.6228    1.0000 </r>
       <r>    0.1692    1.0000 </r>
       <r>    0.2459    1.0000 </r>
       <r>    0.2850    1.0000 </r>
       <r>    0.7530    1.0000 </r>
       <r>    0.7721    1.0000 </r>
       <r>    0.7855    1.0000 </r>
       <r>    0.8527    1.0000 </r>
       <r>    0.8860    1.0000 </r>
       <r>    0.9184    1.0000 </r>
       <r>    1.4405    1.0000 </r>
       <r>    1.5331    1.0000 </r>
       <r>    1.5515    1.0000 </r>
       <r>    1.5848    1.0000 </r>
       <r>    1.7748    1.0000 </r>
       <r>    1.7755    1.0000 </r>
       <r>    1.8666    1.0000 </r>
       <r>    1.8846    1.0000 </r>
       <r>    4.5021    1.0000 </r>
       <r>    4.7506    1.0000 </r>
       <r>    7.1368    1.0000 </r>
       <r>    7.7979    1.0000 </r>
       <r>    8.1863    1.0000 </r>
       <r>    8.3064    1.0000 </r>
       <r>    8.4511    1.0000 </r>
       <r>    8.5723    1.0000 </r>
       <r>    8.7191    0.9764 </r>
       <r>    8.9035    0.0000 </r>
       <r>    9.0038    0.0000 </r>
       <r>    9.1654    0.0000 </r>
       <r>    9.5988    0.0000 </r>
       <r>    9.7106    0.0000 </r>
       <r>   10.0981    0.0000 </r>
       <r>   10.2178    0.0000 </r>
       <r>   11.1042    0.0000 </r>
       <r>   12.5108    0.0000 </r>
       <r>   13.0352    0.0000 </r>
       <r>   14.2483    0.0000 </r>
       <r>   14.6986    0.0000 </r>
       <r>   16.1865    0.0000 </r>
      </set>
     </set>
    </set>
   </array>
  </eigenvalues>
  <separator name="orbital magnetization" >
   <v name="MAGDIPOLOUT">      0.00000000      0.00000000      0.00000000</v>
  </separator>
  <dos>
   <i name="efermi">      8.74716137 </i>
   <total>
    <array>
     <dimension dim="1">gridpoints</dimension>
     <dimension dim="2">spin</dimension>
     <field>energy</field>
     <field>total</field>
     <field>integrated</field>
     <set>
      <set comment="spin 1">
       <r>   -57.3744     0.0000     0.0000 </r>
       <r>   -57.1124     0.0000     0.0000 </r>
       <r>   -56.8504     0.0000     0.0000 </r>
       <r>   -56.5884     0.0000     0.0000 </r>
       <r>   -56.3264     0.0000     0.0000 </r>
       <r>   -56.0644     0.0000     0.0000 </r>
       <r>   -55.8024     0.0000     0.0000 </r>
       <r>   -55.5404     0.0000     0.0000 </r>
       <r>   -55.2783     0.0000     0.0000 </r>
       <r>   -55.0163     0.0000     0.0000 </r>
       <r>   -54.7543     0.0000     0.0000 </r>
       <r>   -54.4923     0.0000     0.0000 </r>
       <r>   -54.2303     0.0000     0.0000 </r>
       <r>   -53.9683     0.0000     0.0000 </r>
       <r>   -53.7063    15.2664     4.0000 </r>
       <r>   -53.4443     0.0000     4.0000 </r>
       <r>   -53.1822     0.0000     4.0000 </r>
       <r>   -52.9202     0.0000     4.0000 </r>
       <r>   -52.6582     0.0000     4.0000 </r>
       <r>   -52.3962     0.0000     4.0000 </r>
       <r>   -52.1342     0.0000     4.0000 </r>
       <r>   -51.8722     0.0000     4.0000 </r>
       <r>   -51.6102     0.0000     4.0000 </r>
       <r>   -51.3481     0.0000     4.0000 </r>
       <r>   -51.0861     0.0000     4.0000 </r>
       <r>   -50.8241     0.0000     4.0000 </r>
       <r>   -50.5621     0.0000     4.0000 </r>
       <r>   -50.3001     0.0000     4.0000 </r>
       <r>   -50.0381     0.0000     4.0000 </r>
       <r>   -49.7761     0.0000     4.0000 </r>
       <r>   -49.5141     0.0000     4.0000 </r>
       <r>   -49.2520     0.0000     4.0000 </r>
       <r>   -48.9900     0.0000     4.0000 </r>
       <r>   -48.7280     0.0000     4.0000 </r>
       <r>   -48.4660     0.0000     4.0000 </r>
       <r>   -48.2040     0.0000     4.0000 </r>
       <r>   -47.9420     0.0000     4.0000 </r>
       <r>   -47.6800     0.0000     4.0000 </r>
       <r>   -47.4179     0.0000     4.0000 </r>
       <r>   -47.1559     0.0000     4.0000 </r>
       <r>   -46.8939     0.0000     4.0000 </r>
       <r>   -46.6319     0.0000     4.0000 </r>
       <r>   -46.3699     0.0000     4.0000 </r>
       <r>   -46.1079     0.0000     4.0000 </r>
       <r>   -45.8459     0.0000     4.0000 </r>
       <r>   -45.5839     0.0000     4.0000 </r>
       <r>   -45.3218     0.0000     4.0000 </r>
       <r>   -45.0598     0.0000     4.0000 </r>
       <r>   -44.7978     0.0000     4.0000 </r>
       <r>   -44.5358     0.0000     4.0000 </r>
       <r>   -44.2738     0.0000     4.0000 </r>
       <r>   -44.0118     0.0000     4.0000 </r>
       <r>   -43.7498     0.0000     4.0000 </r>
       <r>   -43.4877     0.0000     4.0000 </r>
       <r>   -43.2257     0.0000     4.0000 </r>
       <r>   -42.9637     0.0000     4.0000 </r>
       <r>   -42.7017     0.0000     4.0000 </r>
       <r>   -42.4397     0.0000     4.0000 </r>
       <r>   -42.1777     0.0000     4.0000 </r>
       <r>   -41.9157     0.0000     4.0000 </r>
       <r>   -41.6537     0.0000     4.0000 </r>
       <r>   -41.3916     0.0000     4.0000 </r>
       <r>   -41.1296     0.0000     4.0000 </r>
       <r>   -40.8676     0.0000     4.0000 </r>
       <r>   -40.6056     0.0000     4.0000 </r>
       <r>   -40.3436     0.0000     4.0000 </r>
       <r>   -40.0816     0.0000     4.0000 </r>
       <r>   -39.8196     0.0000     4.0000 </r>
       <r>   -39.5575     0.0000     4.0000 </r>
       <r>   -39.2955     0.0000     4.0000 </r>
       <r>   -39.0335     0.0000     4.0000 </r>
       <r>   -38.7715     0.0000     4.0000 </r>
       <r>   -38.5095     0.0000     4.0000 </r>
       <r>   -38.2475     0.0000     4.0000 </r>
       <r>   -37.9855     0.0000     4.0000 </r>
       <r>   -37.7235     0.0000     4.0000 </r>
       <r>   -37.4614     0.0000     4.0000 </r>
       <r>   -37.1994     0.0000     4.0000 </r>
       <r>   -36.9374     0.0000     4.0000 </r>
       <r>   -36.6754     0.0000     4.0000 </r>
       <r>   -36.4134     0.0000     4.0000 </r>
       <r>   -36.1514     0.0000     4.0000 </r>
       <r>   -35.8894     0.0000     4.0000 </r>
       <r>   -35.6273     0.0000     4.0000 </r>
       <r>   -35.3653     0.0000     4.0000 </r>
       <r>   -35.1033     0.0000     4.0000 </r>
       <r>   -34.8413     0.0000     4.0000 </r>
       <r>   -34.5793     0.0000     4.0000 </r>
       <r>   -34.3173     0.0000     4.0000 </r>
       <r>   -34.0553     0.0000     4.0000 </r>
       <r>   -33.7933     0.0000     4.0000 </r>
       <r>   -33.5312     0.0000     4.0000 </r>
       <r>   -33.2692     0.0000     4.0000 </r>
       <r>   -33.0072     0.0000     4.0000 </r>
       <r>   -32.7452     0.0000     4.0000 </r>
       <r>   -32.4832     0.0000     4.0000 </r>
       <r>   -32.2212     0.0000     4.0000 </r>
       <r>   -31.9592     0.0000     4.0000 </r>
       <r>   -31.6971     0.0000     4.0000 </r>
       <r>   -31.4351     0.0000     4.0000 </r>
       <r>   -31.1731     0.0000     4.0000 </r>
       <r>   -30.9111     0.0000     4.0000 </r>
       <r>   -30.6491     0.0000     4.0000 </r>
       <r>   -30.3871    29.6666    11.7731 </r>
       <r>   -30.1251     0.0000    12.0000 </r>
       <r>   -29.8631     0.0000    12.0000 </r>
       <r>   -29.6010     0.0000    12.0000 </r>
       <r>   -29.3390     0.0000    12.0000 </r>
       <r>   -29.0770     0.0000    12.0000 </r>
       <r>   -28.8150     0.0000    12.0000 </r>
       <r>   -28.5530     0.0000    12.0000 </r>
       <r>   -28.2910     0.0000    12.0000 </r>
       <r>   -28.0290     0.0000    12.0000 </r>
       <r>   -27.7670     0.0000    12.0000 </r>
       <r>   -27.5049     0.0000    12.0000 </r>
       <r>   -27.2429    39.1241    22.2510 </r>
       <r>   -26.9809     0.0000    24.0000 </r>
       <r>   -26.7189     0.0000    24.0000 </r>
       <r>   -26.4569     0.0000    24.0000 </r>
       <r>   -26.1949     0.0000    24.0000 </r>
       <r>   -25.9329     0.0000    24.0000 </r>
       <r>   -25.6708     0.0000    24.0000 </r>
       <r>   -25.4088     0.0000    24.0000 </r>
       <r>   -25.1468     0.0000    24.0000 </r>
       <r>   -24.8848     0.0000    24.0000 </r>
       <r>   -24.6228     0.0000    24.0000 </r>
       <r>   -24.3608     0.0000    24.0000 </r>
       <r>   -24.0988     0.0000    24.0000 </r>
       <r>   -23.8368     0.0000    24.0000 </r>
       <r>   -23.5747     0.0000    24.0000 </r>
       <r>   -23.3127     0.0000    24.0000 </r>
       <r>   -23.0507     0.0000    24.0000 </r>
       <r>   -22.7887     0.0000    24.0000 </r>
       <r>   -22.5267     0.0000    24.0000 </r>
       <r>   -22.2647     0.0000    24.0000 </r>
       <r>   -22.0027     0.0000    24.0000 </r>
       <r>   -21.7406     0.0000    24.0000 </r>
       <r>   -21.4786     0.0000    24.0000 </r>
       <r>   -21.2166     0.0000    24.0000 </r>
       <r>   -20.9546     0.0000    24.0000 </r>
       <r>   -20.6926     0.0000    24.0000 </r>
       <r>   -20.4306     0.0000    24.0000 </r>
       <r>   -20.1686     0.0000    24.0000 </r>
       <r>   -19.9066     0.0000    24.0000 </r>
       <r>   -19.6445     2.9099    24.7624 </r>
       <r>   -19.3825     9.3923    28.1727 </r>
       <r>   -19.1205     5.1723    30.8517 </r>
       <r>   -18.8585     1.7161    32.0017 </r>
       <r>   -18.5965     6.1956    34.1337 </r>
       <r>   -18.3345    37.0239    45.1973 </r>
       <r>   -18.0725     0.7554    48.0000 </r>
       <r>   -17.8104     0.0000    48.0000 </r>
       <r>   -17.5484     0.0000    48.0000 </r>
       <r>   -17.2864     0.0000    48.0000 </r>
       <r>   -17.0244     0.0000    48.0000 </r>
       <r>   -16.7624     0.0000    48.0000 </r>
       <r>   -16.5004     0.0000    48.0000 </r>
       <r>   -16.2384     0.0000    48.0000 </r>
       <r>   -15.9764     0.0000    48.0000 </r>
       <r>   -15.7143     0.0000    48.0000 </r>
       <r>   -15.4523     0.0000    48.0000 </r>
       <r>   -15.1903     0.0000    48.0000 </r>
       <r>   -14.9283     0.0000    48.0000 </r>
       <r>   -14.6663     0.0000    48.0000 </r>
       <r>   -14.4043     0.0000    48.0000 </r>
       <r>   -14.1423     0.0000    48.0000 </r>
       <r>   -13.8802     0.0000    48.0000 </r>
       <r>   -13.6182     0.0000    48.0000 </r>
       <r>   -13.3562     0.0000    48.0000 </r>
       <r>   -13.0942     0.0000    48.0000 </r>
       <r>   -12.8322     0.0000    48.0000 </r>
       <r>   -12.5702     0.0000    48.0000 </r>
       <r>   -12.3082     0.0000    48.0000 </r>
       <r>   -12.0462     0.0000    48.0000 </r>
       <r>   -11.7841     0.0000    48.0000 </r>
       <r>   -11.5221     0.0000    48.0000 </r>
       <r>   -11.2601     0.0000    48.0000 </r>
       <r>   -10.9981     0.0000    48.0000 </r>
       <r>   -10.7361     0.0000    48.0000 </r>
       <r>   -10.4741     0.0000    48.0000 </r>
       <r>   -10.2121     0.0000    48.0000 </r>
       <r>    -9.9500     0.0000    48.0000 </r>
       <r>    -9.6880     0.0000    48.0000 </r>
       <r>    -9.4260     0.0000    48.0000 </r>
       <r>    -9.1640     0.0000    48.0000 </r>
       <r>    -8.9020     0.0000    48.0000 </r>
       <r>    -8.6400     0.0000    48.0000 </r>
       <r>    -8.3780     0.0000    48.0000 </r>
       <r>    -8.1160     0.0000    48.0000 </r>
       <r>    -7.8539     0.0000    48.0000 </r>
       <r>    -7.5919     0.0000    48.0000 </r>
       <r>    -7.3299     0.0000    48.0000 </r>
       <r>    -7.0679     0.0000    48.0000 </r>
       <r>    -6.8059     0.0000    48.0000 </r>
       <r>    -6.5439     0.0000    48.0000 </r>
       <r>    -6.2819     0.0000    48.0000 </r>
       <r>    -6.0198     0.0000    48.0000 </r>
       <r>    -5.7578     0.0000    48.0000 </r>
       <r>    -5.4958     0.0000    48.0000 </r>
       <r>    -5.2338     0.0000    48.0000 </r>
       <r>    -4.9718     0.0000    48.0000 </r>
       <r>    -4.7098     0.0000    48.0000 </r>
       <r>    -4.4478     0.0000    48.0000 </r>
       <r>    -4.1858     0.0000    48.0000 </r>
       <r>    -3.9237     0.0000    48.0000 </r>
       <r>    -3.6617     0.0000    48.0000 </r>
       <r>    -3.3997     0.0000    48.0000 </r>
       <r>    -3.1377     0.0000    48.0000 </r>
       <r>    -2.8757     0.0522    48.0137 </r>
       <r>    -2.6137     0.9541    48.3993 </r>
       <r>    -2.3517     1.0388    48.8243 </r>
       <r>    -2.0897     1.1157    49.3028 </r>
       <r>    -1.8276     0.9098    49.7419 </r>
       <r>    -1.5656     1.2557    50.3603 </r>
       <r>    -1.3036     2.1003    51.1441 </r>
       <r>    -1.0416     1.3181    51.7863 </r>
       <r>    -0.7796     1.2268    52.2971 </r>
       <r>    -0.5176     1.8769    52.9883 </r>
       <r>    -0.2556     2.7451    53.9936 </r>
       <r>     0.0065     3.9518    55.5528 </r>
       <r>     0.2685     4.7679    57.4263 </r>
       <r>     0.5305     6.0955    59.8263 </r>
       <r>     0.7925    11.4422    64.5223 </r>
       <r>     1.0545    12.5333    69.4297 </r>
       <r>     1.3165     7.7289    72.9140 </r>
       <r>     1.5785     8.9541    76.7593 </r>
       <r>     1.8405    13.1034    81.8048 </r>
       <r>     2.1026     6.8337    85.5440 </r>
       <r>     2.3646     3.3863    87.2727 </r>
       <r>     2.6266     0.8550    87.6928 </r>
       <r>     2.8886     0.5954    87.9998 </r>
       <r>     3.1506     0.1556    88.0755 </r>
       <r>     3.4126     0.2262    88.1843 </r>
       <r>     3.6746     0.4870    88.3811 </r>
       <r>     3.9367     0.7300    88.7191 </r>
       <r>     4.1987     1.3059    89.3699 </r>
       <r>     4.4607     1.4285    89.9715 </r>
       <r>     4.7227     1.5778    90.5801 </r>
       <r>     4.9847     1.5434    91.1822 </r>
       <r>     5.2467     0.8635    91.6464 </r>
       <r>     5.5087     0.6270    91.9351 </r>
       <r>     5.7707     0.0945    91.9900 </r>
       <r>     6.0328     0.1049    92.0275 </r>
       <r>     6.2948     0.3130    92.1098 </r>
       <r>     6.5568     0.5126    92.2906 </r>
       <r>     6.8188     1.0512    92.7025 </r>
       <r>     7.0808     2.0779    93.3951 </r>
       <r>     7.3428     2.2348    94.3390 </r>
       <r>     7.6048     1.3264    94.9239 </r>
       <r>     7.8669     1.8476    95.6161 </r>
       <r>     8.1289     3.5742    96.8705 </r>
       <r>     8.3909    11.1273   100.5960 </r>
       <r>     8.6529     7.4889   104.4795 </r>
       <r>     8.9149     8.8568   108.4213 </r>
       <r>     9.1769     4.4896   110.8986 </r>
       <r>     9.4389     5.6661   113.0922 </r>
       <r>     9.7009     3.6926   115.0161 </r>
       <r>     9.9630     2.1504   116.1155 </r>
       <r>    10.2250     3.7730   117.9747 </r>
       <r>    10.4870     1.5663   118.9035 </r>
       <r>    10.7490     1.4172   119.6074 </r>
       <r>    11.0110     1.2572   120.1870 </r>
       <r>    11.2730     1.8309   120.9276 </r>
       <r>    11.5350     2.1241   121.8378 </r>
       <r>    11.7971     1.2657   122.6927 </r>
       <r>    12.0591     1.4660   123.3529 </r>
       <r>    12.3211     1.9601   124.0830 </r>
       <r>    12.5831     0.7465   124.6053 </r>
       <r>    12.8451     0.9894   125.0440 </r>
       <r>    13.1071     1.0503   125.5113 </r>
       <r>    13.3691     0.7244   125.8322 </r>
       <r>    13.6311     0.9063   126.1784 </r>
       <r>    13.8932     0.8564   126.5404 </r>
       <r>    14.1552     0.6937   126.7894 </r>
       <r>    14.4172     0.9394   127.1767 </r>
       <r>    14.6792     1.1460   127.6892 </r>
       <r>    14.9412     1.5104   128.3194 </r>
       <r>    15.2032     1.5792   128.9832 </r>
       <r>    15.4652     1.4635   129.6821 </r>
       <r>    15.7273     1.9308   130.3809 </r>
       <r>    15.9893     1.4128   130.9743 </r>
       <r>    16.2513     0.9887   131.4049 </r>
       <r>    16.5133     0.5175   131.6738 </r>
       <r>    16.7753     0.2786   131.8404 </r>
       <r>    17.0373     0.1060   131.9063 </r>
       <r>    17.2993     0.0884   131.9329 </r>
       <r>    17.5613     0.0657   131.9825 </r>
       <r>    17.8234     0.0000   132.0000 </r>
       <r>    18.0854     0.0000   132.0000 </r>
       <r>    18.3474     0.0000   132.0000 </r>
       <r>    18.6094     0.0000   132.0000 </r>
       <r>    18.8714     0.0000   132.0000 </r>
       <r>    19.1334     0.0000   132.0000 </r>
       <r>    19.3954     0.0000   132.0000 </r>
       <r>    19.6575     0.0000   132.0000 </r>
       <r>    19.9195     0.0000   132.0000 </r>
       <r>    20.1815     0.0000   132.0000 </r>
       <r>    20.4435     0.0000   132.0000 </r>
       <r>    20.7055     0.0000   132.0000 </r>
       <r>    20.9675     0.0000   132.0000 </r>
       <r>    21.2295     0.0000   132.0000 </r>
      </set>
     </set>
    </array>
   </total>
  </dos>
 </calculation>
 <structure name="finalpos" >
  <crystal>
   <varray name="basis" >
    <v>       4.91640375       0.00000000      -2.72184290 </v>
    <v>      -1.70791152       4.61021302      -2.72184290 </v>
    <v>       0.00000000       0.00000000       5.61956000 </v>
   </varray>
   <i name="volume">    127.37108442 </i>
   <varray name="rec_basis" >
    <v>       0.20340071       0.07535236       0.00000000 </v>
    <v>       0.00000000       0.21690972       0.00000000 </v>
    <v>       0.09851746       0.14155760       0.17794988 </v>
   </varray>
  </crystal>
  <varray name="positions" >
   <v>       0.50000000       0.00000000       0.50000000 </v>
   <v>       0.00000000       0.50000000       0.50000000 </v>
   <v>       0.25000000       0.25000000       0.00000000 </v>
   <v>       0.24161000       0.74161000       0.98322000 </v>
   <v>       0.75000000       0.75000000       0.00000000 </v>
   <v>       0.75839000       0.25839000       0.01678000 </v>
   <v>       0.74161000       0.75839000       0.50000000 </v>
   <v>       0.25839000       0.24161000       0.50000000 </v>
   <v>       0.25303000       0.75303000       0.00607000 </v>
   <v>       0.74697000       0.24697000       0.99393000 </v>
   <v>       0.75303000       0.74697000       0.50000000 </v>
   <v>       0.24697000       0.25303000       0.50000000 </v>
  </varray>
 </structure>
</modeling>
