 vasp.6.2.0 18Jan21 (build Jan 05 2022 15:41:44) complex                        
  
 executed on             LinuxIFC date 2025.05.07  16:02:11
 running on   24 total cores
 distrk:  each k-point on   12 cores,    2 groups
 distr:  one band on NCORE=   2 cores,    6 groups


--------------------------------------------------------------------------------------------------------


 INCAR:
   SYSTEM = routine with relax: pwdword
   ICHARG = 2
   NPAR = 6
   KPAR = 2
   NCORE = 2
   ADDGRID = T
   PREC = Acc
   ENCUT = 600
   METAGGA = R2SCAN
   LASPH = .TRUE.
   LMIXTAU = .FALSE.
   ALGO = A
   EDIFF = 1E-9
   NELM = 100
   NELMIN = 6
   IALGO = 38
   LREAL = F
   NSW = 0
   ISIF = -1
   ISMEAR = 0
   SIGMA = 0.02
   SYMPREC = 1E-4

 POTCAR:    PAW_PBE B 06Sep2000                   
 POTCAR:    PAW_PBE Mo_sv 02Feb2006               
 POTCAR:    PAW_PBE Si 05Jan2001                  
 -----------------------------------------------------------------------------
|                                                                             |
|           W    W    AA    RRRRR   N    N  II  N    N   GGGG   !!!           |
|           W    W   A  A   R    R  NN   N  II  NN   N  G    G  !!!           |
|           W    W  A    A  R    R  N N  N  II  N N  N  G       !!!           |
|           W WW W  AAAAAA  RRRRR   N  N N  II  N  N N  G  GGG   !            |
|           WW  WW  A    A  R   R   N   NN  II  N   NN  G    G                |
|           W    W  A    A  R    R  N    N  II  N    N   GGGG   !!!           |
|                                                                             |
|     For optimal performance we recommend to set                             |
|       NCORE = 2 up to number-of-cores-per-socket                            |
|     NCORE specifies how many cores store one orbital (NPAR=cpu/NCORE).      |
|     This setting can greatly improve the performance of VASP for DFT.       |
|     The default, NCORE=1 might be grossly inefficient on modern             |
|     multi-core architectures or massively parallel machines. Do your        |
|     own testing! More info at https://www.vasp.at/wiki/index.php/NCORE      |
|     Unfortunately you need to use the default for GW and RPA                |
|     calculations (for HF NCORE is supported but not extensively tested      |
|     yet).                                                                   |
|                                                                             |
 -----------------------------------------------------------------------------

 POTCAR:    PAW_PBE B 06Sep2000                   
   VRHFIN =B: s2p1                                                                                  
   LEXCH  = PE                                                                                      
   EATOM  =    71.1703 eV,    5.2309 Ry                                                             
                                                                                                    
   TITEL  = PAW_PBE B 06Sep2000                                                                     
   LULTRA =        F    use ultrasoft PP ?                                                          
   IUNSCR =        1    unscreen: 0-lin 1-nonlin 2-no                                               
   RPACOR =    1.200    partial core radius                                                         
   POMASS =   10.811; ZVAL   =    3.000    mass and valenz                                          
   RCORE  =    1.700    outmost cutoff radius                                                       
   RWIGS  =    1.710; RWIGS  =    0.905    wigner-seitz radius (au A)                               
   ENMAX  =  318.614; ENMIN  =  238.960 eV                                                          
   ICORE  =        2    local potential                                                             
   LCOR   =        T    correct aug charges                                                         
   LPAW   =        T    paw PP                                                                      
   EAUG   =  535.514                                                                                
   DEXC   =    0.000                                                                                
   RMAX   =    1.732    core radius for proj-oper                                                   
   RAUG   =    1.300    factor for augmentation sphere                                              
   RDEP   =    1.757    radius for radial grids                                                     
   RDEPT  =    1.436    core radius for aug-charge                                                  
                                                                                                    
   Atomic configuration                                                                             
    4 entries                                                                                       
     n  l   j            E        occ.                                                              
     1  0  0.50      -180.5896   2.0000                                                             
     2  0  0.50        -9.4431   2.0000                                                             
     2  1  0.50        -3.6068   1.0000                                                             
     3  2  1.50        -4.0817   0.0000                                                             
   Description                                                                                      
     l       E           TYP  RCUT    TYP  RCUT                                                     
     0     -9.4430752     23  1.500                                                                 
     0      0.8675899     23  1.500                                                                 
     1     -3.6067955     23  1.700                                                                 
     1      6.1086146     23  1.700                                                                 
     2     -4.0817478      7  1.700                                                                 
  local pseudopotential read in
  partial core-charges read in
  partial kinetic energy density read in
  atomic valenz-charges read in
  non local Contribution for L=           0  read in
    real space projection operators read in
  non local Contribution for L=           0  read in
    real space projection operators read in
  non local Contribution for L=           1  read in
    real space projection operators read in
  non local Contribution for L=           1  read in
    real space projection operators read in
    PAW grid and wavefunctions read in
 
   number of l-projection  operators is LMAX  =           4
   number of lm-projection operators is LMMAX =           8
 
 POTCAR:    PAW_PBE Mo_sv 02Feb2006               
   VRHFIN =Mo: 4p5s4d                                                                               
   LEXCH  = PE                                                                                      
   EATOM  =  1862.2866 eV,  136.8742 Ry                                                             
                                                                                                    
   TITEL  = PAW_PBE Mo_sv 02Feb2006                                                                 
   LULTRA =        F    use ultrasoft PP ?                                                          
   IUNSCR =        1    unscreen: 0-lin 1-nonlin 2-no                                               
   RPACOR =    2.200    partial core radius                                                         
   POMASS =   95.940; ZVAL   =   14.000    mass and valenz                                          
   RCORE  =    2.500    outmost cutoff radius                                                       
   RWIGS  =    2.750; RWIGS  =    1.455    wigner-seitz radius (au A)                               
   ENMAX  =  242.676; ENMIN  =  182.007 eV                                                          
   ICORE  =        3    local potential                                                             
   LCOR   =        T    correct aug charges                                                         
   LPAW   =        T    paw PP                                                                      
   EAUG   =  446.014                                                                                
   DEXC   =    0.000                                                                                
   RMAX   =    2.563    core radius for proj-oper                                                   
   RAUG   =    1.300    factor for augmentation sphere                                              
   RDEP   =    2.641    radius for radial grids                                                     
   RDEPT  =    2.031    core radius for aug-charge                                                  
                                                                                                    
   Atomic configuration                                                                             
   11 entries                                                                                       
     n  l   j            E        occ.                                                              
     1  0  0.50    -19819.0341   2.0000                                                             
     2  0  0.50     -2799.0127   2.0000                                                             
     2  1  1.50     -2502.0276   6.0000                                                             
     3  0  0.50      -476.4449   2.0000                                                             
     3  1  1.50      -379.1496   6.0000                                                             
     3  2  2.50      -220.9367  10.0000                                                             
     4  0  0.50       -64.3378   2.0000                                                             
     5  0  0.50        -4.0862   1.0000                                                             
     4  1  1.50       -38.4773   6.0000                                                             
     4  2  2.50        -3.7535   5.0000                                                             
     4  3  2.50        -1.3606   0.0000                                                             
   Description                                                                                      
     l       E           TYP  RCUT    TYP  RCUT                                                     
     0    -64.3377829     23  2.100                                                                 
     0     -4.0861640     23  2.400                                                                 
     1    -38.4772993     23  2.100                                                                 
     1     13.6058260     23  2.100                                                                 
     2     -3.7534941     23  2.400                                                                 
     2     -5.1140767     23  2.400                                                                 
     3     -4.0817478     23  2.500                                                                 
  local pseudopotential read in
  partial core-charges read in
  partial kinetic energy density read in
  atomic valenz-charges read in
  non local Contribution for L=           0  read in
    real space projection operators read in
  non local Contribution for L=           0  read in
    real space projection operators read in
  non local Contribution for L=           1  read in
    real space projection operators read in
  non local Contribution for L=           1  read in
    real space projection operators read in
  non local Contribution for L=           2  read in
    real space projection operators read in
  non local Contribution for L=           2  read in
    real space projection operators read in
    PAW grid and wavefunctions read in
 
   number of l-projection  operators is LMAX  =           6
   number of lm-projection operators is LMMAX =          18
 
 POTCAR:    PAW_PBE Si 05Jan2001                  
   VRHFIN =Si: s2p2                                                                                 
   LEXCH  = PE                                                                                      
   EATOM  =   103.0669 eV,    7.5752 Ry                                                             
                                                                                                    
   TITEL  = PAW_PBE Si 05Jan2001                                                                    
   LULTRA =        F    use ultrasoft PP ?                                                          
   IUNSCR =        1    unscreen: 0-lin 1-nonlin 2-no                                               
   RPACOR =    1.500    partial core radius                                                         
   POMASS =   28.085; ZVAL   =    4.000    mass and valenz                                          
   RCORE  =    1.900    outmost cutoff radius                                                       
   RWIGS  =    2.480; RWIGS  =    1.312    wigner-seitz radius (au A)                               
   ENMAX  =  245.345; ENMIN  =  184.009 eV                                                          
   ICORE  =        2    local potential                                                             
   LCOR   =        T    correct aug charges                                                         
   LPAW   =        T    paw PP                                                                      
   EAUG   =  322.069                                                                                
   DEXC   =    0.000                                                                                
   RMAX   =    1.950    core radius for proj-oper                                                   
   RAUG   =    1.300    factor for augmentation sphere                                              
   RDEP   =    1.993    radius for radial grids                                                     
   RDEPT  =    1.837    core radius for aug-charge                                                  
                                                                                                    
   Atomic configuration                                                                             
    6 entries                                                                                       
     n  l   j            E        occ.                                                              
     1  0  0.50     -1785.8828   2.0000                                                             
     2  0  0.50      -139.4969   2.0000                                                             
     2  1  1.50       -95.5546   6.0000                                                             
     3  0  0.50       -10.8127   2.0000                                                             
     3  1  0.50        -4.0811   2.0000                                                             
     3  2  1.50        -4.0817   0.0000                                                             
   Description                                                                                      
     l       E           TYP  RCUT    TYP  RCUT                                                     
     0    -10.8127223     23  1.900                                                                 
     0     -7.6451159     23  1.900                                                                 
     1     -4.0811372     23  1.900                                                                 
     1      2.4879257     23  1.900                                                                 
     2     -4.0817478      7  1.900                                                                 
  local pseudopotential read in
  partial core-charges read in
  partial kinetic energy density read in
  atomic valenz-charges read in
  non local Contribution for L=           0  read in
    real space projection operators read in
  non local Contribution for L=           0  read in
    real space projection operators read in
  non local Contribution for L=           1  read in
    real space projection operators read in
  non local Contribution for L=           1  read in
    real space projection operators read in
    PAW grid and wavefunctions read in
 
   number of l-projection  operators is LMAX  =           4
   number of lm-projection operators is LMMAX =           8
 
 -----------------------------------------------------------------------------
|                                                                             |
|               ----> ADVICE to this user running VASP <----                  |
|                                                                             |
|     You have a (more or less) 'large supercell' and for larger cells it     |
|     might be more efficient to use real-space projection operators.         |
|     Therefore, try LREAL= Auto in the INCAR file.                           |
|     Mind: For very accurate calculation, you might also keep the            |
|     reciprocal projection scheme (i.e. LREAL=.FALSE.).                      |
|                                                                             |
 -----------------------------------------------------------------------------

  PAW_PBE B 06Sep2000                   :
 energy of atom  1       EATOM=  -71.1703
 kinetic energy error for atom=    0.0007 (will be added to EATOM!!)
  PAW_PBE Mo_sv 02Feb2006               :
 energy of atom  2       EATOM=-1862.2866
 kinetic energy error for atom=    0.0041 (will be added to EATOM!!)
  PAW_PBE Si 05Jan2001                  :
 energy of atom  3       EATOM= -103.0669
 kinetic energy error for atom=    0.0003 (will be added to EATOM!!)
 
 
 POSCAR: EA68
  positions in direct lattice
  No initial velocities read in

 METAGGA = R2SCA    LMAXTAU =  6    LMIXTAU =  F

 exchange correlation table for  LEXCH =        8
   RHO(1)=    0.500       N(1)  =     2000
   RHO(2)=  100.500       N(2)  =     4000
 


--------------------------------------------------------------------------------------------------------


 ion  position               nearest neighbor table
   1  0.737  0.763  0.500-  12 1.80  13 1.80  14 2.66  16 2.66  11 2.66   6 2.66  10 2.82   7 2.82
                             9 2.82   5 2.82
   2  0.237  0.737  0.974-  15 1.80   8 1.80   9 2.66  16 2.66   6 2.66   7 2.66  10 2.82  11 2.82
                            14 2.82   5 2.82
   3  0.763  0.263  0.026-  15 1.80   8 1.80  14 2.66   5 2.66  10 2.66  11 2.66   7 2.82   6 2.82
                            16 2.82   9 2.82
   4  0.263  0.237  0.500-  12 1.80  13 1.80   5 2.66   9 2.66   7 2.66  10 2.66   6 2.82  11 2.82
                            14 2.82  16 2.82
   5  0.497  0.250  0.247-   8 2.06  13 2.06   4 2.66   3 2.66  17 2.72  18 2.72   1 2.82   2 2.82
                            11 2.88   9 2.88  14 2.95   7 2.95
   6  0.003  0.250  0.753-  15 2.06  12 2.06   2 2.66   1 2.66  18 2.72  17 2.72   4 2.82   3 2.82
                             9 2.88  11 2.88   7 2.95  14 2.95
   7  0.750  0.503  0.753-  15 2.06  13 2.06   2 2.66   4 2.66  17 2.72  18 2.72   1 2.82   3 2.82
                            16 2.88  10 2.88   6 2.95   5 2.95
   8  0.500  0.000  0.000-   2 1.80   3 1.80   9 2.06  14 2.06   5 2.06  16 2.06
   9  0.250  0.003  0.753-   8 2.06  12 2.06   4 2.66   2 2.66  18 2.72  17 2.72   1 2.82   3 2.82
                             6 2.88   5 2.88  16 2.95  10 2.95
  10  0.997  0.750  0.247-  15 2.06  12 2.06   3 2.66   4 2.66  18 2.72  17 2.72   1 2.82   2 2.82
                            14 2.88   7 2.88  11 2.95   9 2.95
  11  0.250  0.497  0.247-  15 2.06  13 2.06   3 2.66   1 2.66  17 2.72  18 2.72   4 2.82   2 2.82
                             5 2.88   6 2.88  10 2.95  16 2.95
  12  0.000  0.000  0.500-   1 1.80   4 1.80   6 2.06   9 2.06  10 2.06  14 2.06
  13  0.500  0.500  0.500-   1 1.80   4 1.80   5 2.06   7 2.06  11 2.06  16 2.06
  14  0.750  0.997  0.247-   8 2.06  12 2.06   1 2.66   3 2.66  18 2.72  17 2.72   4 2.82   2 2.82
                            10 2.88  16 2.88   5 2.95   6 2.95
  15  0.000  0.500  0.000-   2 1.80   3 1.80   7 2.06  11 2.06  10 2.06   6 2.06
  16  0.503  0.750  0.753-   8 2.06  13 2.06   1 2.66   2 2.66  17 2.72  18 2.72   4 2.82   3 2.82
                             7 2.88  14 2.88   9 2.95  11 2.95
  17  0.500  0.500  0.000-   5 2.72   7 2.72  11 2.72  16 2.72   6 2.72  10 2.72  14 2.72   9 2.72

  18  0.000  0.000  0.000-   6 2.72   9 2.72  10 2.72  14 2.72   5 2.72  16 2.72   7 2.72  11 2.72

 
  LATTYP: Found a body centered tetragonal cell.
 ALAT       =     8.2487655457
 C/A-ratio  =     0.8702992400
  
  Lattice vectors:
  
 A1 = (   6.5852869619,   0.0000000000,  -1.8812127120)
 A2 = (  -3.7470902557,   5.4152856791,  -1.8812127120)
 A3 = (   0.0000000000,   0.0000000000,   6.8487200000)


Analysis of symmetry for initial positions (statically):
=====================================================================
 Subroutine PRICEL returns:
 Original cell was already a primitive cell.
 

 Routine SETGRP: Setting up the symmetry group for a 
 body centered tetragonal supercell.


 Subroutine GETGRP returns: Found 16 space group operations
 (whereof  8 operations were pure point group operations)
 out of a pool of 16 trial point group operations.


The static configuration has the point symmetry C_4h.
 The point group associated with its full space group is D_4h.


Analysis of symmetry for dynamics (positions and initial velocities):
=====================================================================
 Subroutine PRICEL returns:
 Original cell was already a primitive cell.
 

 Routine SETGRP: Setting up the symmetry group for a 
 body centered tetragonal supercell.


 Subroutine GETGRP returns: Found 16 space group operations
 (whereof  8 operations were pure point group operations)
 out of a pool of 16 trial point group operations.


The dynamic configuration has the point symmetry C_4h.
 The point group associated with its full space group is D_4h.


 Subroutine INISYM returns: Found 16 space group operations
 (whereof  8 operations are pure point group operations),
 and found     1 'primitive' translations


----------------------------------------------------------------------------------------

                                     Primitive cell                                     

  volume of cell :     244.2336

  direct lattice vectors                    reciprocal lattice vectors
     6.585286962  0.000000000 -1.881212712     0.151853671  0.105074680  0.000000000
    -3.747090256  5.415285679 -1.881212712     0.000000000  0.184662465  0.000000000
     0.000000000  0.000000000  6.848720000     0.041711306  0.079585266  0.146012686

  length of vectors
     6.848720000  6.848720000  6.848720000     0.184662465  0.184662465  0.171444895

  position of ions in fractional coordinates (direct lattice)
     0.737140000  0.762860000  0.500000000
     0.237140000  0.737140000  0.974280000
     0.762860000  0.262860000  0.025720000
     0.262860000  0.237140000  0.500000000
     0.497160000  0.250000000  0.247160000
     0.002840000  0.250000000  0.752840000
     0.750000000  0.502840000  0.752840000
     0.500000000  0.000000000  0.000000000
     0.250000000  0.002840000  0.752840000
     0.997160000  0.750000000  0.247160000
     0.250000000  0.497160000  0.247160000
     0.000000000  0.000000000  0.500000000
     0.500000000  0.500000000  0.500000000
     0.750000000  0.997160000  0.247160000
     0.000000000  0.500000000  0.000000000
     0.502840000  0.750000000  0.752840000
     0.500000000  0.500000000  0.000000000
     0.000000000  0.000000000  0.000000000

  ion indices of the primitive-cell ions
   primitive index   ion index
                 1           1
                 2           2
                 3           3
                 4           4
                 5           5
                 6           6
                 7           7
                 8           8
                 9           9
                10          10
                11          11
                12          12
                13          13
                14          14
                15          15
                16          16
                17          17
                18          18

----------------------------------------------------------------------------------------

 
 
 KPOINTS: EA                                      

Automatic generation of k-mesh.
 Grid dimensions read from file:
 generate k-points for:    7    7    6

 Generating k-lattice:

  Cartesian coordinates                     Fractional coordinates (reciprocal lattice)
     0.021693382  0.015010669  0.000000000     0.142857143  0.000000000  0.000000000
     0.000000000  0.026380352  0.000000000     0.000000000  0.142857143  0.000000000
     0.006951884  0.013264211  0.024335448    -0.000000000  0.000000000  0.166666667

  Length of vectors
     0.026380352  0.026380352  0.028574149

  Shift w.r.t. Gamma in fractional coordinates (k-lattice)
     0.000000000  0.000000000  0.000000000

 -----------------------------------------------------------------------------
|                                                                             |
|           W    W    AA    RRRRR   N    N  II  N    N   GGGG   !!!           |
|           W    W   A  A   R    R  NN   N  II  NN   N  G    G  !!!           |
|           W    W  A    A  R    R  N N  N  II  N N  N  G       !!!           |
|           W WW W  AAAAAA  RRRRR   N  N N  II  N  N N  G  GGG   !            |
|           WW  WW  A    A  R   R   N   NN  II  N   NN  G    G                |
|           W    W  A    A  R    R  N    N  II  N    N   GGGG   !!!           |
|                                                                             |
|     Your reciprocal lattice and k-lattice belong to different lattice       |
|     classes:                                                                |
|                                                                             |
|        The reciprocal lattice is body-centered tetragonal,                  |
|        whereas your k-lattice is base-centered monoclinic.                  |
|                                                                             |
|     Results are often still useful ...                                      |
|                                                                             |
 -----------------------------------------------------------------------------

 WARNING: IBZKPT: internal override: KBLOWUP is changed to .FALSE.
      ... skipping the blow-up phase ...

 
 Subroutine IBZKPT returns following result:
 ===========================================
 
 Found     88 irreducible k-points:
 
 Following reciprocal coordinates:
            Coordinates               Weight
  0.000000  0.000000  0.000000      1.000000
  0.142857 -0.000000  0.000000      4.000000
  0.285714 -0.000000  0.000000      4.000000
  0.428571 -0.000000  0.000000      4.000000
  0.142857  0.142857  0.000000      2.000000
  0.285714  0.142857  0.000000      4.000000
  0.428571  0.142857  0.000000      4.000000
 -0.428571  0.142857  0.000000      4.000000
 -0.285714  0.142857  0.000000      4.000000
 -0.142857  0.142857  0.000000      2.000000
  0.285714  0.285714  0.000000      2.000000
  0.428571  0.285714  0.000000      4.000000
 -0.428571  0.285714  0.000000      4.000000
 -0.285714  0.285714  0.000000      2.000000
  0.428571  0.428571  0.000000      2.000000
 -0.428571  0.428571  0.000000      2.000000
  0.000000 -0.000000  0.166667      2.000000
  0.142857 -0.000000  0.166667      4.000000
  0.285714 -0.000000  0.166667      4.000000
  0.428571 -0.000000  0.166667      4.000000
 -0.428571  0.000000  0.166667      4.000000
 -0.285714 -0.000000  0.166667      4.000000
 -0.142857  0.000000  0.166667      4.000000
  0.142857  0.142857  0.166667      2.000000
  0.285714  0.142857  0.166667      4.000000
  0.428571  0.142857  0.166667      4.000000
 -0.428571  0.142857  0.166667      4.000000
 -0.285714  0.142857  0.166667      4.000000
 -0.142857  0.142857  0.166667      4.000000
  0.285714  0.285714  0.166667      2.000000
  0.428571  0.285714  0.166667      4.000000
 -0.428571  0.285714  0.166667      4.000000
 -0.285714  0.285714  0.166667      4.000000
 -0.142857  0.285714  0.166667      4.000000
  0.428571  0.428571  0.166667      2.000000
 -0.428571  0.428571  0.166667      4.000000
 -0.285714  0.428571  0.166667      4.000000
 -0.142857  0.428571  0.166667      4.000000
 -0.428571 -0.428571  0.166667      2.000000
 -0.285714 -0.428571  0.166667      4.000000
 -0.142857 -0.428571  0.166667      4.000000
 -0.285714 -0.285714  0.166667      2.000000
 -0.142857 -0.285714  0.166667      4.000000
 -0.142857 -0.142857  0.166667      2.000000
  0.000000 -0.000000  0.333333      2.000000
  0.142857 -0.000000  0.333333      4.000000
  0.285714 -0.000000  0.333333      4.000000
  0.428571 -0.000000  0.333333      4.000000
 -0.428571  0.000000  0.333333      4.000000
 -0.285714 -0.000000  0.333333      4.000000
 -0.142857 -0.000000  0.333333      4.000000
  0.142857  0.142857  0.333333      2.000000
  0.285714  0.142857  0.333333      4.000000
  0.428571  0.142857  0.333333      4.000000
 -0.428571  0.142857  0.333333      4.000000
 -0.285714  0.142857  0.333333      4.000000
 -0.142857  0.142857  0.333333      4.000000
  0.285714  0.285714  0.333333      2.000000
  0.428571  0.285714  0.333333      4.000000
 -0.428571  0.285714  0.333333      4.000000
 -0.285714  0.285714  0.333333      4.000000
 -0.142857  0.285714  0.333333      4.000000
  0.428571  0.428571  0.333333      2.000000
 -0.428571  0.428571  0.333333      4.000000
 -0.285714  0.428571  0.333333      4.000000
 -0.142857  0.428571  0.333333      4.000000
 -0.428571 -0.428571  0.333333      2.000000
 -0.285714 -0.428571  0.333333      4.000000
 -0.142857 -0.428571  0.333333      4.000000
 -0.285714 -0.285714  0.333333      2.000000
 -0.142857 -0.285714  0.333333      4.000000
 -0.142857 -0.142857  0.333333      2.000000
 -0.000000 -0.000000  0.500000      1.000000
  0.142857 -0.000000  0.500000      4.000000
  0.285714 -0.000000  0.500000      4.000000
  0.428571 -0.000000  0.500000      4.000000
  0.142857  0.142857  0.500000      2.000000
  0.285714  0.142857  0.500000      4.000000
  0.428571  0.142857  0.500000      4.000000
 -0.428571  0.142857  0.500000      4.000000
 -0.285714  0.142857  0.500000      4.000000
 -0.142857  0.142857  0.500000      2.000000
  0.285714  0.285714  0.500000      2.000000
  0.428571  0.285714  0.500000      4.000000
 -0.428571  0.285714  0.500000      4.000000
 -0.285714  0.285714  0.500000      2.000000
  0.428571  0.428571  0.500000      2.000000
 -0.428571  0.428571  0.500000      2.000000
 
 Following cartesian coordinates:
            Coordinates               Weight
  0.000000  0.000000  0.000000      1.000000
  0.021693  0.015011  0.000000      4.000000
  0.043387  0.030021  0.000000      4.000000
  0.065080  0.045032  0.000000      4.000000
  0.021693  0.041391  0.000000      2.000000
  0.043387  0.056402  0.000000      4.000000
  0.065080  0.071412  0.000000      4.000000
 -0.065080 -0.018652  0.000000      4.000000
 -0.043387 -0.003641  0.000000      4.000000
 -0.021693  0.011370  0.000000      2.000000
  0.043387  0.082782  0.000000      2.000000
  0.065080  0.097793  0.000000      4.000000
 -0.065080  0.007729  0.000000      4.000000
 -0.043387  0.022739  0.000000      2.000000
  0.065080  0.124173  0.000000      2.000000
 -0.065080  0.034109  0.000000      2.000000
  0.006952  0.013264  0.024335      2.000000
  0.028645  0.028275  0.024335      4.000000
  0.050339  0.043286  0.024335      4.000000
  0.072032  0.058296  0.024335      4.000000
 -0.058128 -0.031768  0.024335      4.000000
 -0.036435 -0.016757  0.024335      4.000000
 -0.014741 -0.001746  0.024335      4.000000
  0.028645  0.054655  0.024335      2.000000
  0.050339  0.069666  0.024335      4.000000
  0.072032  0.084677  0.024335      4.000000
 -0.058128 -0.005387  0.024335      4.000000
 -0.036435  0.009623  0.024335      4.000000
 -0.014741  0.024634  0.024335      4.000000
  0.050339  0.096046  0.024335      2.000000
  0.072032  0.111057  0.024335      4.000000
 -0.058128  0.020993  0.024335      4.000000
 -0.036435  0.036004  0.024335      4.000000
 -0.014741  0.051014  0.024335      4.000000
  0.072032  0.137437  0.024335      2.000000
 -0.058128  0.047373  0.024335      4.000000
 -0.036435  0.062384  0.024335      4.000000
 -0.014741  0.077395  0.024335      4.000000
 -0.058128 -0.110909  0.024335      2.000000
 -0.036435 -0.095898  0.024335      4.000000
 -0.014741 -0.080888  0.024335      4.000000
 -0.036435 -0.069518  0.024335      2.000000
 -0.014741 -0.054507  0.024335      4.000000
 -0.014741 -0.028127  0.024335      2.000000
  0.013904  0.026528  0.048671      2.000000
  0.035597  0.041539  0.048671      4.000000
  0.057291  0.056550  0.048671      4.000000
  0.078984  0.071560  0.048671      4.000000
 -0.051176 -0.018504  0.048671      4.000000
 -0.029483 -0.003493  0.048671      4.000000
 -0.007790  0.011518  0.048671      4.000000
  0.035597  0.067919  0.048671      2.000000
  0.057291  0.082930  0.048671      4.000000
  0.078984  0.097941  0.048671      4.000000
 -0.051176  0.007877  0.048671      4.000000
 -0.029483  0.022887  0.048671      4.000000
 -0.007790  0.037898  0.048671      4.000000
  0.057291  0.109310  0.048671      2.000000
  0.078984  0.124321  0.048671      4.000000
 -0.051176  0.034257  0.048671      4.000000
 -0.029483  0.049268  0.048671      4.000000
 -0.007790  0.064278  0.048671      4.000000
  0.078984  0.150701  0.048671      2.000000
 -0.051176  0.060637  0.048671      4.000000
 -0.029483  0.075648  0.048671      4.000000
 -0.007790  0.090659  0.048671      4.000000
 -0.051176 -0.097645  0.048671      2.000000
 -0.029483 -0.082634  0.048671      4.000000
 -0.007790 -0.067623  0.048671      4.000000
 -0.029483 -0.056254  0.048671      2.000000
 -0.007790 -0.041243  0.048671      4.000000
 -0.007790 -0.014863  0.048671      2.000000
  0.020856  0.039793  0.073006      1.000000
  0.042549  0.054803  0.073006      4.000000
  0.064242  0.069814  0.073006      4.000000
  0.085936  0.084825  0.073006      4.000000
  0.042549  0.081184  0.073006      2.000000
  0.064242  0.096194  0.073006      4.000000
  0.085936  0.111205  0.073006      4.000000
 -0.044224  0.021141  0.073006      4.000000
 -0.022531  0.036152  0.073006      4.000000
 -0.000838  0.051162  0.073006      2.000000
  0.064242  0.122575  0.073006      2.000000
  0.085936  0.137585  0.073006      4.000000
 -0.044224  0.047521  0.073006      4.000000
 -0.022531  0.062532  0.073006      2.000000
  0.085936  0.163966  0.073006      2.000000
 -0.044224  0.073902  0.073006      2.000000
 


--------------------------------------------------------------------------------------------------------




 Dimension of arrays:
   k-points           NKPTS =     88   k-points in BZ     NKDIM =     88   number of bands    NBANDS=    114
   number of dos      NEDOS =    301   number of ions     NIONS =     18
   non local maximal  LDIM  =      6   non local SUM 2l+1 LMDIM =     18
   total plane-waves  NPLWV = 175616
   max r-space proj   IRMAX =      1   max aug-charges    IRDMAX= 251731
   dimension x,y,z NGX =    56 NGY =   56 NGZ =   56
   dimension x,y,z NGXF=   112 NGYF=  112 NGZF=  112
   support grid    NGXF=   224 NGYF=  224 NGZF=  224
   ions per type =               4  12   2
   NGX,Y,Z   is equivalent  to a cutoff of  13.59, 13.59, 13.59 a.u.
   NGXF,Y,Z  is equivalent  to a cutoff of  27.19, 27.19, 27.19 a.u.

 SYSTEM =  routine with relax: pwdword             
 POSCAR =  EA68                                    

 Startparameter for this run:
   NWRITE =      2    write-flag & timer
   PREC   = acc       normal or accurate (medium, high low for compatibility)
   ISTART =      0    job   : 0-new  1-cont  2-samecut
   ICHARG =      2    charge: 1-file 2-atom 10-const
   ISPIN  =      1    spin polarized calculation?
   LNONCOLLINEAR =      F non collinear calculations
   LSORBIT =      F    spin-orbit coupling
   INIWAV =      1    electr: 0-lowe 1-rand  2-diag
   LASPH  =      T    aspherical Exc in radial PAW
   METAGGA=      F    non-selfconsistent MetaGGA calc.

 Electronic Relaxation 1
   ENCUT  =  600.0 eV  44.10 Ry    6.64 a.u.  13.68 13.68 13.68*2*pi/ulx,y,z
   ENINI  =  600.0     initial cutoff
   ENAUG  =  535.5 eV  augmentation charge cutoff
   NELM   =    100;   NELMIN=  6; NELMDL= -5     # of ELM steps 
   EDIFF  = 0.1E-08   stopping-criterion for ELM
   LREAL  =      F    real-space projection
   NLSPLINE    = F    spline interpolate recip. space projectors
   LCOMPAT=      F    compatible to vasp.4.4
   GGA_COMPAT  = T    GGA compatible to vasp.4.4-vasp.4.6
   LMAXPAW     = -100 max onsite density
   LMAXMIX     =    2 max onsite mixed and CHGCAR
   VOSKOWN=      0    Vosko Wilk Nusair interpolation
   ROPT   =    0.00000   0.00000   0.00000
 Ionic relaxation
   EDIFFG = 0.1E-07   stopping-criterion for IOM
   NSW    =      0    number of steps for IOM
   NBLOCK =      1;   KBLOCK =      1    inner block; outer block 
   IBRION =     -1    ionic relax: 0-MD 1-quasi-New 2-CG
   NFREE  =      0    steps in history (QN), initial steepest desc. (CG)
   ISIF   =     -1    stress and relaxation
   IWAVPR =     10    prediction:  0-non 1-charg 2-wave 3-comb
   ISYM   =      2    0-nonsym 1-usesym 2-fastsym
   LCORR  =      T    Harris-Foulkes like correction to forces

   POTIM  = 0.5000    time-step for ionic-motion
   TEIN   =    0.0    initial temperature
   TEBEG  =    0.0;   TEEND  =   0.0 temperature during run
   SMASS  =  -3.00    Nose mass-parameter (am)
   estimated Nose-frequenzy (Omega)   =  0.10E-29 period in steps = 0.13E+47 mass=  -0.107E-26a.u.
   SCALEE = 1.0000    scale energy and forces
   NPACO  =    256;   APACO  = 16.0  distance and # of slots for P.C.
   PSTRESS=    0.0 pullay stress

  Mass of Ions in am
   POMASS =  10.81 95.94 28.09
  Ionic Valenz
   ZVAL   =   3.00 14.00  4.00
  Atomic Wigner-Seitz radii
   RWIGS  =  -1.00 -1.00 -1.00
  virtual crystal weights 
   VCA    =   1.00  1.00  1.00
   NELECT =     188.0000    total number of electrons
   NUPDOWN=      -1.0000    fix difference up-down

 DOS related values:
   EMIN   =  10.00;   EMAX   =-10.00  energy-range for DOS
   EFERMI =   0.00
   ISMEAR =     0;   SIGMA  =   0.02  broadening in eV -4-tet -1-fermi 0-gaus

 Electronic relaxation 2 (details)
   IALGO  =     58    algorithm
   LDIAG  =      T    sub-space diagonalisation (order eigenvalues)
   LSUBROT=      F    optimize rotation matrix (better conditioning)
   TURBO    =      0    0=normal 1=particle mesh
   IRESTART =      0    0=no restart 2=restart with 2 vectors
   NREBOOT  =      0    no. of reboots
   NMIN     =      0    reboot dimension
   EREF     =   0.00    reference energy to select bands
   IMIX   =      4    mixing-type and parameters
     AMIX     =   0.40;   BMIX     =  1.00
     AMIX_MAG =   1.60;   BMIX_MAG =  1.00
     AMIN     =   0.10
     WC   =   100.;   INIMIX=   1;  MIXPRE=   1;  MAXMIX= -45

 Intra band minimization:
   WEIMIN = 0.0000     energy-eigenvalue tresh-hold
   EBREAK =  0.22E-11  absolut break condition
   DEPER  =   0.30     relativ break condition  

   TIME   =   0.40     timestep for ELM

  volume/ion in A,a.u.               =      13.57        91.56
  Fermi-wavevector in a.u.,A,eV,Ry     =   1.500349  2.835248 30.627354  2.251047
  Thomas-Fermi vector in A             =   2.611861
 
 Write flags
   LWAVE        =      T    write WAVECAR
   LDOWNSAMPLE  =      F    k-point downsampling of WAVECAR
   LCHARG       =      T    write CHGCAR
   LVTOT        =      F    write LOCPOT, total local potential
   LVHAR        =      F    write LOCPOT, Hartree potential only
   LELF         =      F    write electronic localiz. function (ELF)
   LORBIT       =      0    0 simple, 1 ext, 2 COOP (PROOUT), +10 PAW based schemes


 Dipole corrections
   LMONO  =      F    monopole corrections only (constant potential shift)
   LDIPOL =      F    correct potential (dipole corrections)
   IDIPOL =      0    1-x, 2-y, 3-z, 4-all directions 
   EPSILON=  1.0000000 bulk dielectric constant

 Exchange correlation treatment:
   GGA     =    --    GGA type
   LEXCH   =     8    internal setting for exchange type
   VOSKOWN=      0    Vosko Wilk Nusair interpolation
   LHFCALC =     F    Hartree Fock is set to
   LHFONE  =     F    Hartree Fock one center treatment
   AEXX    =    0.0000 exact exchange contribution

 Linear response parameters
   LEPSILON=     F    determine dielectric tensor
   LRPA    =     F    only Hartree local field effects (RPA)
   LNABLA  =     F    use nabla operator in PAW spheres
   LVEL    =     F    velocity operator in full k-point grid
   LINTERFAST=   F  fast interpolation
   KINTER  =     0    interpolate to denser k-point grid
   CSHIFT  =0.1000    complex shift for real part using Kramers Kronig
   OMEGAMAX=  -1.0    maximum frequency
   DEG_THRESHOLD= 0.2000000E-02 threshold for treating states as degnerate
   RTIME   =   -0.100 relaxation time in fs
  (WPLASMAI=    0.000 imaginary part of plasma frequency in eV, 0.658/RTIME)
   DFIELD  = 0.0000000 0.0000000 0.0000000 field for delta impulse in time
 
 Orbital magnetization related:
   ORBITALMAG=     F  switch on orbital magnetization
   LCHIMAG   =     F  perturbation theory with respect to B field
   DQ        =  0.001000  dq finite difference perturbation B field
   LLRAUG    =     F  two centre corrections for induced B field



--------------------------------------------------------------------------------------------------------


 Static calculation
 charge density and potential will be updated during run
 non-spin polarized calculation
 Conjugate gradient for all bands (Freysoldt, et al. PRB 79, 241103 (2009))
 preconditioned conjugated gradient                                        
 perform sub-space diagonalisation
    before iterative eigenvector-optimisation
 modified Broyden-mixing scheme, WC =      100.0
 initial mixing is a Kerker type mixing with AMIX =  0.4000 and BMIX =      1.0000
 Hartree-type preconditioning will be used
 using additional bands           20
 reciprocal scheme for non local part
 use partial core corrections
 no Harris-corrections to forces 
 use gradient corrections 
 use of overlap-Matrix (Vanderbilt PP)
 Gauss-broadening in eV      SIGMA  =   0.02


--------------------------------------------------------------------------------------------------------


  energy-cutoff  :      600.00
  volume of cell :      244.23
      direct lattice vectors                 reciprocal lattice vectors
     6.585286962  0.000000000 -1.881212712     0.151853671  0.105074680  0.000000000
    -3.747090256  5.415285679 -1.881212712     0.000000000  0.184662465  0.000000000
     0.000000000  0.000000000  6.848720000     0.041711306  0.079585266  0.146012686

  length of vectors
     6.848720000  6.848720000  6.848720000     0.184662465  0.184662465  0.171444895


 
 k-points in units of 2pi/SCALE and weight: EA                                      
   0.00000000  0.00000000  0.00000000       0.003
   0.02169338  0.01501067  0.00000000       0.014
   0.04338676  0.03002134  0.00000000       0.014
   0.06508014  0.04503201  0.00000000       0.014
   0.02169338  0.04139102  0.00000000       0.007
   0.04338676  0.05640169  0.00000000       0.014
   0.06508014  0.07141236  0.00000000       0.014
  -0.06508014 -0.01865165  0.00000000       0.014
  -0.04338676 -0.00364099  0.00000000       0.014
  -0.02169338  0.01136968  0.00000000       0.007
   0.04338676  0.08278204  0.00000000       0.007
   0.06508014  0.09779271  0.00000000       0.014
  -0.06508014  0.00772870  0.00000000       0.014
  -0.04338676  0.02273937  0.00000000       0.007
   0.06508014  0.12417306  0.00000000       0.007
  -0.06508014  0.03410905  0.00000000       0.007
   0.00695188  0.01326421  0.02433545       0.007
   0.02864527  0.02827488  0.02433545       0.014
   0.05033865  0.04328555  0.02433545       0.014
   0.07203203  0.05829622  0.02433545       0.014
  -0.05812826 -0.03176779  0.02433545       0.014
  -0.03643488 -0.01675713  0.02433545       0.014
  -0.01474150 -0.00174646  0.02433545       0.014
   0.02864527  0.05465523  0.02433545       0.007
   0.05033865  0.06966590  0.02433545       0.014
   0.07203203  0.08467657  0.02433545       0.014
  -0.05812826 -0.00538744  0.02433545       0.014
  -0.03643488  0.00962323  0.02433545       0.014
  -0.01474150  0.02463389  0.02433545       0.014
   0.05033865  0.09604625  0.02433545       0.007
   0.07203203  0.11105692  0.02433545       0.014
  -0.05812826  0.02099291  0.02433545       0.014
  -0.03643488  0.03600358  0.02433545       0.014
  -0.01474150  0.05101425  0.02433545       0.014
   0.07203203  0.13743727  0.02433545       0.007
  -0.05812826  0.04737326  0.02433545       0.014
  -0.03643488  0.06238393  0.02433545       0.014
  -0.01474150  0.07739460  0.02433545       0.014
  -0.05812826 -0.11090885  0.02433545       0.007
  -0.03643488 -0.09589818  0.02433545       0.014
  -0.01474150 -0.08088751  0.02433545       0.014
  -0.03643488 -0.06951783  0.02433545       0.007
  -0.01474150 -0.05450716  0.02433545       0.014
  -0.01474150 -0.02812681  0.02433545       0.007
   0.01390377  0.02652842  0.04867090       0.007
   0.03559715  0.04153909  0.04867090       0.014
   0.05729053  0.05654976  0.04867090       0.014
   0.07898391  0.07156043  0.04867090       0.014
  -0.05117638 -0.01850358  0.04867090       0.014
  -0.02948299 -0.00349292  0.04867090       0.014
  -0.00778961  0.01151775  0.04867090       0.014
   0.03559715  0.06791944  0.04867090       0.007
   0.05729053  0.08293011  0.04867090       0.014
   0.07898391  0.09794078  0.04867090       0.014
  -0.05117638  0.00787677  0.04867090       0.014
  -0.02948299  0.02288744  0.04867090       0.014
  -0.00778961  0.03789811  0.04867090       0.014
   0.05729053  0.10931046  0.04867090       0.007
   0.07898391  0.12432113  0.04867090       0.014
  -0.05117638  0.03425712  0.04867090       0.014
  -0.02948299  0.04926779  0.04867090       0.014
  -0.00778961  0.06427846  0.04867090       0.014
   0.07898391  0.15070148  0.04867090       0.007
  -0.05117638  0.06063747  0.04867090       0.014
  -0.02948299  0.07564814  0.04867090       0.014
  -0.00778961  0.09065881  0.04867090       0.014
  -0.05117638 -0.09764464  0.04867090       0.007
  -0.02948299 -0.08263397  0.04867090       0.014
  -0.00778961 -0.06762330  0.04867090       0.014
  -0.02948299 -0.05625362  0.04867090       0.007
  -0.00778961 -0.04124295  0.04867090       0.014
  -0.00778961 -0.01486260  0.04867090       0.007
   0.02085565  0.03979263  0.07300634       0.003
   0.04254903  0.05480330  0.07300634       0.014
   0.06424242  0.06981397  0.07300634       0.014
   0.08593580  0.08482464  0.07300634       0.014
   0.04254903  0.08118365  0.07300634       0.007
   0.06424242  0.09619432  0.07300634       0.014
   0.08593580  0.11120499  0.07300634       0.014
  -0.04422449  0.02114098  0.07300634       0.014
  -0.02253111  0.03615165  0.07300634       0.014
  -0.00083773  0.05116232  0.07300634       0.007
   0.06424242  0.12257467  0.07300634       0.007
   0.08593580  0.13758534  0.07300634       0.014
  -0.04422449  0.04752133  0.07300634       0.014
  -0.02253111  0.06253200  0.07300634       0.007
   0.08593580  0.16396569  0.07300634       0.007
  -0.04422449  0.07390168  0.07300634       0.007
 
 k-points in reciprocal lattice and weights: EA                                      
   0.00000000  0.00000000  0.00000000       0.003
   0.14285714 -0.00000000  0.00000000       0.014
   0.28571429 -0.00000000  0.00000000       0.014
   0.42857143 -0.00000000  0.00000000       0.014
   0.14285714  0.14285714  0.00000000       0.007
   0.28571429  0.14285714  0.00000000       0.014
   0.42857143  0.14285714  0.00000000       0.014
  -0.42857143  0.14285714  0.00000000       0.014
  -0.28571429  0.14285714  0.00000000       0.014
  -0.14285714  0.14285714  0.00000000       0.007
   0.28571429  0.28571429  0.00000000       0.007
   0.42857143  0.28571429  0.00000000       0.014
  -0.42857143  0.28571429  0.00000000       0.014
  -0.28571429  0.28571429  0.00000000       0.007
   0.42857143  0.42857143  0.00000000       0.007
  -0.42857143  0.42857143  0.00000000       0.007
   0.00000000 -0.00000000  0.16666667       0.007
   0.14285714 -0.00000000  0.16666667       0.014
   0.28571429 -0.00000000  0.16666667       0.014
   0.42857143 -0.00000000  0.16666667       0.014
  -0.42857143  0.00000000  0.16666667       0.014
  -0.28571429 -0.00000000  0.16666667       0.014
  -0.14285714  0.00000000  0.16666667       0.014
   0.14285714  0.14285714  0.16666667       0.007
   0.28571429  0.14285714  0.16666667       0.014
   0.42857143  0.14285714  0.16666667       0.014
  -0.42857143  0.14285714  0.16666667       0.014
  -0.28571429  0.14285714  0.16666667       0.014
  -0.14285714  0.14285714  0.16666667       0.014
   0.28571429  0.28571429  0.16666667       0.007
   0.42857143  0.28571429  0.16666667       0.014
  -0.42857143  0.28571429  0.16666667       0.014
  -0.28571429  0.28571429  0.16666667       0.014
  -0.14285714  0.28571429  0.16666667       0.014
   0.42857143  0.42857143  0.16666667       0.007
  -0.42857143  0.42857143  0.16666667       0.014
  -0.28571429  0.42857143  0.16666667       0.014
  -0.14285714  0.42857143  0.16666667       0.014
  -0.42857143 -0.42857143  0.16666667       0.007
  -0.28571429 -0.42857143  0.16666667       0.014
  -0.14285714 -0.42857143  0.16666667       0.014
  -0.28571429 -0.28571429  0.16666667       0.007
  -0.14285714 -0.28571429  0.16666667       0.014
  -0.14285714 -0.14285714  0.16666667       0.007
   0.00000000 -0.00000000  0.33333333       0.007
   0.14285714 -0.00000000  0.33333333       0.014
   0.28571429 -0.00000000  0.33333333       0.014
   0.42857143 -0.00000000  0.33333333       0.014
  -0.42857143  0.00000000  0.33333333       0.014
  -0.28571429 -0.00000000  0.33333333       0.014
  -0.14285714 -0.00000000  0.33333333       0.014
   0.14285714  0.14285714  0.33333333       0.007
   0.28571429  0.14285714  0.33333333       0.014
   0.42857143  0.14285714  0.33333333       0.014
  -0.42857143  0.14285714  0.33333333       0.014
  -0.28571429  0.14285714  0.33333333       0.014
  -0.14285714  0.14285714  0.33333333       0.014
   0.28571429  0.28571429  0.33333333       0.007
   0.42857143  0.28571429  0.33333333       0.014
  -0.42857143  0.28571429  0.33333333       0.014
  -0.28571429  0.28571429  0.33333333       0.014
  -0.14285714  0.28571429  0.33333333       0.014
   0.42857143  0.42857143  0.33333333       0.007
  -0.42857143  0.42857143  0.33333333       0.014
  -0.28571429  0.42857143  0.33333333       0.014
  -0.14285714  0.42857143  0.33333333       0.014
  -0.42857143 -0.42857143  0.33333333       0.007
  -0.28571429 -0.42857143  0.33333333       0.014
  -0.14285714 -0.42857143  0.33333333       0.014
  -0.28571429 -0.28571429  0.33333333       0.007
  -0.14285714 -0.28571429  0.33333333       0.014
  -0.14285714 -0.14285714  0.33333333       0.007
  -0.00000000 -0.00000000  0.50000000       0.003
   0.14285714 -0.00000000  0.50000000       0.014
   0.28571429 -0.00000000  0.50000000       0.014
   0.42857143 -0.00000000  0.50000000       0.014
   0.14285714  0.14285714  0.50000000       0.007
   0.28571429  0.14285714  0.50000000       0.014
   0.42857143  0.14285714  0.50000000       0.014
  -0.42857143  0.14285714  0.50000000       0.014
  -0.28571429  0.14285714  0.50000000       0.014
  -0.14285714  0.14285714  0.50000000       0.007
   0.28571429  0.28571429  0.50000000       0.007
   0.42857143  0.28571429  0.50000000       0.014
  -0.42857143  0.28571429  0.50000000       0.014
  -0.28571429  0.28571429  0.50000000       0.007
   0.42857143  0.42857143  0.50000000       0.007
  -0.42857143  0.42857143  0.50000000       0.007
 
 position of ions in fractional coordinates (direct lattice) 
   0.73714000  0.76286000  0.50000000
   0.23714000  0.73714000  0.97428000
   0.76286000  0.26286000  0.02572000
   0.26286000  0.23714000  0.50000000
   0.49716000  0.25000000  0.24716000
   0.00284000  0.25000000  0.75284000
   0.75000000  0.50284000  0.75284000
   0.50000000  0.00000000  0.00000000
   0.25000000  0.00284000  0.75284000
   0.99716000  0.75000000  0.24716000
   0.25000000  0.49716000  0.24716000
   0.00000000  0.00000000  0.50000000
   0.50000000  0.50000000  0.50000000
   0.75000000  0.99716000  0.24716000
   0.00000000  0.50000000  0.00000000
   0.50284000  0.75000000  0.75284000
   0.50000000  0.50000000  0.00000000
   0.00000000  0.00000000  0.00000000
 
 position of ions in cartesian coordinates  (Angst):
   1.99577316  4.13110483  0.60254093
  -1.20049516  3.99182369  4.83974300
   4.03869187  1.42346199 -1.75344842
   0.84242355  1.28418085  2.48375364
   2.33716870  1.35382142  0.28716275
  -0.91807035  1.35382142  4.68034454
   3.05477836  2.72302225  2.79913183
   3.29264348  0.00000000 -0.94060636
   1.63568000  0.01537941  4.68034454
   3.75626706  4.06146426 -1.59404997
  -0.21658165  2.69226343  0.28716275
   0.00000000  0.00000000  3.42436000
   1.41909835  2.70764284  1.54314729
   1.20251670  5.39990627 -1.59404997
  -1.87354513  2.70764284 -0.94060636
   0.50102800  4.06146426  2.79913183
   1.41909835  2.70764284 -1.88121271
   0.00000000  0.00000000  0.00000000
 


--------------------------------------------------------------------------------------------------------


 k-point   1 :   0.0000 0.0000 0.0000  plane waves:    8179
 k-point   2 :   0.1429-0.0000 0.0000  plane waves:    8168
 k-point   3 :   0.2857-0.0000 0.0000  plane waves:    8146
 k-point   4 :   0.4286-0.0000 0.0000  plane waves:    8154
 k-point   5 :   0.1429 0.1429 0.0000  plane waves:    8151
 k-point   6 :   0.2857 0.1429 0.0000  plane waves:    8155
 k-point   7 :   0.4286 0.1429 0.0000  plane waves:    8150
 k-point   8 :  -0.4286 0.1429 0.0000  plane waves:    8146
 k-point   9 :  -0.2857 0.1429 0.0000  plane waves:    8167
 k-point  10 :  -0.1429 0.1429 0.0000  plane waves:    8157
 k-point  11 :   0.2857 0.2857 0.0000  plane waves:    8145
 k-point  12 :   0.4286 0.2857 0.0000  plane waves:    8138
 k-point  13 :  -0.4286 0.2857 0.0000  plane waves:    8156
 k-point  14 :  -0.2857 0.2857 0.0000  plane waves:    8183
 k-point  15 :   0.4286 0.4286 0.0000  plane waves:    8142
 k-point  16 :  -0.4286 0.4286 0.0000  plane waves:    8146
 k-point  17 :   0.0000-0.0000 0.1667  plane waves:    8167
 k-point  18 :   0.1429-0.0000 0.1667  plane waves:    8160
 k-point  19 :   0.2857-0.0000 0.1667  plane waves:    8139
 k-point  20 :   0.4286-0.0000 0.1667  plane waves:    8156
 k-point  21 :  -0.4286 0.0000 0.1667  plane waves:    8148
 k-point  22 :  -0.2857-0.0000 0.1667  plane waves:    8151
 k-point  23 :  -0.1429 0.0000 0.1667  plane waves:    8166
 k-point  24 :   0.1429 0.1429 0.1667  plane waves:    8154
 k-point  25 :   0.2857 0.1429 0.1667  plane waves:    8135
 k-point  26 :   0.4286 0.1429 0.1667  plane waves:    8142
 k-point  27 :  -0.4286 0.1429 0.1667  plane waves:    8151
 k-point  28 :  -0.2857 0.1429 0.1667  plane waves:    8155
 k-point  29 :  -0.1429 0.1429 0.1667  plane waves:    8167
 k-point  30 :   0.2857 0.2857 0.1667  plane waves:    8155
 k-point  31 :   0.4286 0.2857 0.1667  plane waves:    8132
 k-point  32 :  -0.4286 0.2857 0.1667  plane waves:    8153
 k-point  33 :  -0.2857 0.2857 0.1667  plane waves:    8162
 k-point  34 :  -0.1429 0.2857 0.1667  plane waves:    8154
 k-point  35 :   0.4286 0.4286 0.1667  plane waves:    8147
 k-point  36 :  -0.4286 0.4286 0.1667  plane waves:    8154
 k-point  37 :  -0.2857 0.4286 0.1667  plane waves:    8139
 k-point  38 :  -0.1429 0.4286 0.1667  plane waves:    8158
 k-point  39 :  -0.4286-0.4286 0.1667  plane waves:    8141
 k-point  40 :  -0.2857-0.4286 0.1667  plane waves:    8161
 k-point  41 :  -0.1429-0.4286 0.1667  plane waves:    8154
 k-point  42 :  -0.2857-0.2857 0.1667  plane waves:    8164
 k-point  43 :  -0.1429-0.2857 0.1667  plane waves:    8150
 k-point  44 :  -0.1429-0.1429 0.1667  plane waves:    8173
 k-point  45 :   0.0000-0.0000 0.3333  plane waves:    8163
 k-point  46 :   0.1429-0.0000 0.3333  plane waves:    8153
 k-point  47 :   0.2857-0.0000 0.3333  plane waves:    8133
 k-point  48 :   0.4286-0.0000 0.3333  plane waves:    8140
 k-point  49 :  -0.4286 0.0000 0.3333  plane waves:    8157
 k-point  50 :  -0.2857-0.0000 0.3333  plane waves:    8163
 k-point  51 :  -0.1429-0.0000 0.3333  plane waves:    8162
 k-point  52 :   0.1429 0.1429 0.3333  plane waves:    8128
 k-point  53 :   0.2857 0.1429 0.3333  plane waves:    8141
 k-point  54 :   0.4286 0.1429 0.3333  plane waves:    8138
 k-point  55 :  -0.4286 0.1429 0.3333  plane waves:    8140
 k-point  56 :  -0.2857 0.1429 0.3333  plane waves:    8156
 k-point  57 :  -0.1429 0.1429 0.3333  plane waves:    8161
 k-point  58 :   0.2857 0.2857 0.3333  plane waves:    8131
 k-point  59 :   0.4286 0.2857 0.3333  plane waves:    8143
 k-point  60 :  -0.4286 0.2857 0.3333  plane waves:    8133
 k-point  61 :  -0.2857 0.2857 0.3333  plane waves:    8137
 k-point  62 :  -0.1429 0.2857 0.3333  plane waves:    8135
 k-point  63 :   0.4286 0.4286 0.3333  plane waves:    8147
 k-point  64 :  -0.4286 0.4286 0.3333  plane waves:    8139
 k-point  65 :  -0.2857 0.4286 0.3333  plane waves:    8151
 k-point  66 :  -0.1429 0.4286 0.3333  plane waves:    8160
 k-point  67 :  -0.4286-0.4286 0.3333  plane waves:    8174
 k-point  68 :  -0.2857-0.4286 0.3333  plane waves:    8155
 k-point  69 :  -0.1429-0.4286 0.3333  plane waves:    8165
 k-point  70 :  -0.2857-0.2857 0.3333  plane waves:    8153
 k-point  71 :  -0.1429-0.2857 0.3333  plane waves:    8156
 k-point  72 :  -0.1429-0.1429 0.3333  plane waves:    8154
 k-point  73 :  -0.0000-0.0000 0.5000  plane waves:    8128
 k-point  74 :   0.1429-0.0000 0.5000  plane waves:    8154
 k-point  75 :   0.2857-0.0000 0.5000  plane waves:    8139
 k-point  76 :   0.4286-0.0000 0.5000  plane waves:    8151
 k-point  77 :   0.1429 0.1429 0.5000  plane waves:    8148
 k-point  78 :   0.2857 0.1429 0.5000  plane waves:    8141
 k-point  79 :   0.4286 0.1429 0.5000  plane waves:    8157
 k-point  80 :  -0.4286 0.1429 0.5000  plane waves:    8151
 k-point  81 :  -0.2857 0.1429 0.5000  plane waves:    8143
 k-point  82 :  -0.1429 0.1429 0.5000  plane waves:    8164
 k-point  83 :   0.2857 0.2857 0.5000  plane waves:    8151
 k-point  84 :   0.4286 0.2857 0.5000  plane waves:    8161
 k-point  85 :  -0.4286 0.2857 0.5000  plane waves:    8154
 k-point  86 :  -0.2857 0.2857 0.5000  plane waves:    8146
 k-point  87 :   0.4286 0.4286 0.5000  plane waves:    8158
 k-point  88 :  -0.4286 0.4286 0.5000  plane waves:    8138

 maximum and minimum number of plane-waves per node :      4144     4010

 maximum number of plane-waves:      8183
 maximum index in each direction: 
   IXMAX=   14   IYMAX=   14   IZMAX=   13
   IXMIN=  -14   IYMIN=  -14   IZMIN=  -14


 parallel 3D FFT for wavefunctions:
    minimum data exchange during FFTs selected (reduces bandwidth)
 parallel 3D FFT for charge:
    minimum data exchange during FFTs selected (reduces bandwidth)


 total amount of memory used by VASP MPI-rank0   567912. kBytes
=======================================================================

   base      :      30000. kBytes
   nonl-proj :     158808. kBytes
   fftplans  :      20126. kBytes
   grid      :      15504. kBytes
   one-center:        139. kBytes
   wavefun   :     343335. kBytes
 
     INWAV:  cpu time    0.0001: real time    0.0001
 Broyden mixing: mesh for mixing (old mesh)
   NGX = 27   NGY = 27   NGZ = 27
  (NGX  =112   NGY  =112   NGZ  =112)
  gives a total of  19683 points

 initial charge density was supplied:
 charge density of overlapping atoms calculated
 number of electron     188.0000000 magnetization 
 keeping initial charge density in first step


--------------------------------------------------------------------------------------------------------


 Maximum index for augmentation-charges        21686 (set IRDMAX)


--------------------------------------------------------------------------------------------------------


 First call to EWALD:  gamma=   0.284
 Maximum number of real-space cells 3x 3x 3
 Maximum number of reciprocal cells 3x 3x 3

    FEWALD:  cpu time    0.0615: real time    0.0619


--------------------------------------- Iteration      1(   1)  ---------------------------------------


    POTLOK:  cpu time    0.3061: real time    0.3083
    SETDIJ:  cpu time    0.7785: real time    0.7833
    TRIAL :  cpu time   53.7141: real time   54.1988
    CORREC:  cpu time    0.0027: real time    0.0027
    --------------------------------------------
      LOOP:  cpu time   54.9512: real time   55.4475

 eigenvalue-minimisations  : 20148
 total energy-change (2. order) : 0.2494743E+04  (-0.1323273E+05)
 number of electron     188.0000000 magnetization 
 augmentation part      188.0000000 magnetization 

 Free energy of the ion-electron system (eV)
  ---------------------------------------------------
  alpha Z        PSCENC =      1299.46691393
  Ewald energy   TEWEN  =    -17057.88201460
  -Hartree energ DENC   =     -6019.19975624
  -exchange      EXHF   =         0.00000000
  -V(xc)+E(xc)   XCENC  =       959.51933350
  PAW double counting   =     18167.42904368   -18107.57746203
  entropy T*S    EENTRO =        -0.00147016
  eigenvalues    EBANDS =       414.78684961
  atomic energy  EATOM  =     22838.20177132
  ---------------------------------------------------
  free energy    TOTEN  =      2494.74320900 eV

  energy without entropy =     2494.74467917  energy(sigma->0) =     2494.74394408


--------------------------------------------------------------------------------------------------------




--------------------------------------- Iteration      1(   2)  ---------------------------------------


    TRIAL :  cpu time   60.6745: real time   61.8334
    CORREC:  cpu time    0.0027: real time    0.0028
    --------------------------------------------
      LOOP:  cpu time   60.6801: real time   61.8393

 eigenvalue-minimisations  : 21612
 total energy-change (2. order) :-0.2749639E+04  (-0.2673902E+04)
 number of electron     188.0000000 magnetization 
 augmentation part      188.0000000 magnetization 

 Free energy of the ion-electron system (eV)
  ---------------------------------------------------
  alpha Z        PSCENC =      1299.46691393
  Ewald energy   TEWEN  =    -17057.88201460
  -Hartree energ DENC   =     -6019.19975624
  -exchange      EXHF   =         0.00000000
  -V(xc)+E(xc)   XCENC  =       959.51933350
  PAW double counting   =     18167.42904368   -18107.57746203
  entropy T*S    EENTRO =        -0.00225592
  eigenvalues    EBANDS =     -2334.85114791
  atomic energy  EATOM  =     22838.20177132
  ---------------------------------------------------
  free energy    TOTEN  =      -254.89557428 eV

  energy without entropy =     -254.89331836  energy(sigma->0) =     -254.89444632


--------------------------------------------------------------------------------------------------------




--------------------------------------- Iteration      1(   3)  ---------------------------------------


    TRIAL :  cpu time   68.6089: real time   69.8550
    CORREC:  cpu time    0.0028: real time    0.0028
    --------------------------------------------
      LOOP:  cpu time   68.6139: real time   69.8606

 eigenvalue-minimisations  : 26022
 total energy-change (2. order) :-0.1203499E+03  (-0.1156041E+03)
 number of electron     188.0000000 magnetization 
 augmentation part      188.0000000 magnetization 

 Free energy of the ion-electron system (eV)
  ---------------------------------------------------
  alpha Z        PSCENC =      1299.46691393
  Ewald energy   TEWEN  =    -17057.88201460
  -Hartree energ DENC   =     -6019.19975624
  -exchange      EXHF   =         0.00000000
  -V(xc)+E(xc)   XCENC  =       959.51933350
  PAW double counting   =     18167.42904368   -18107.57746203
  entropy T*S    EENTRO =        -0.00387338
  eigenvalues    EBANDS =     -2455.19941799
  atomic energy  EATOM  =     22838.20177132
  ---------------------------------------------------
  free energy    TOTEN  =      -375.24546182 eV

  energy without entropy =     -375.24158843  energy(sigma->0) =     -375.24352512


--------------------------------------------------------------------------------------------------------




--------------------------------------- Iteration      1(   4)  ---------------------------------------


    TRIAL :  cpu time   65.8474: real time   66.9115
    CORREC:  cpu time    0.0027: real time    0.0027
    --------------------------------------------
      LOOP:  cpu time   65.8516: real time   66.9170

 eigenvalue-minimisations  : 24516
 total energy-change (2. order) :-0.3146294E+01  (-0.3060573E+01)
 number of electron     188.0000000 magnetization 
 augmentation part      188.0000000 magnetization 

 Free energy of the ion-electron system (eV)
  ---------------------------------------------------
  alpha Z        PSCENC =      1299.46691393
  Ewald energy   TEWEN  =    -17057.88201460
  -Hartree energ DENC   =     -6019.19975624
  -exchange      EXHF   =         0.00000000
  -V(xc)+E(xc)   XCENC  =       959.51933350
  PAW double counting   =     18167.42904368   -18107.57746203
  entropy T*S    EENTRO =        -0.00348134
  eigenvalues    EBANDS =     -2458.34610368
  atomic energy  EATOM  =     22838.20177132
  ---------------------------------------------------
  free energy    TOTEN  =      -378.39175546 eV

  energy without entropy =     -378.38827412  energy(sigma->0) =     -378.39001479


--------------------------------------------------------------------------------------------------------




--------------------------------------- Iteration      1(   5)  ---------------------------------------


    TRIAL :  cpu time   66.7371: real time   67.8204
    CORREC:  cpu time    0.0026: real time    0.0026
    CHARGE:  cpu time    3.5706: real time    3.6033
    --------------------------------------------
      LOOP:  cpu time   70.3118: real time   71.4339

 eigenvalue-minimisations  : 25008
 total energy-change (2. order) :-0.8090068E-01  (-0.8036414E-01)
 number of electron     188.0000001 magnetization 
 augmentation part       28.0601015 magnetization 

 Free energy of the ion-electron system (eV)
  ---------------------------------------------------
  alpha Z        PSCENC =      1299.46691393
  Ewald energy   TEWEN  =    -17057.88201460
  -Hartree energ DENC   =     -6019.19975624
  -exchange      EXHF   =         0.00000000
  -V(xc)+E(xc)   XCENC  =       959.51933350
  PAW double counting   =     18167.42904368   -18107.57746203
  entropy T*S    EENTRO =        -0.00348162
  eigenvalues    EBANDS =     -2458.42700408
  atomic energy  EATOM  =     22838.20177132
  ---------------------------------------------------
  free energy    TOTEN  =      -378.47265614 eV

  energy without entropy =     -378.46917452  energy(sigma->0) =     -378.47091533


--------------------------------------------------------------------------------------------------------




--------------------------------------- Iteration      1(   6)  ---------------------------------------


    POTLOK:  cpu time    0.2080: real time    0.2095
    SETDIJ:  cpu time    0.7246: real time    0.7292
    TRIAL :  cpu time   48.2642: real time   48.8417
    CORREC:  cpu time   16.9591: real time   17.1090
    CHARGE:  cpu time    4.0096: real time    4.0425
    --------------------------------------------
      LOOP:  cpu time   70.1741: real time   70.9408

 eigenvalue-minimisations  :     0
 total energy-change (2. order) : 0.1287191E+03  (-0.3846431E+02)
 number of electron     188.0000002 magnetization 
 augmentation part       29.9185056 magnetization 

 Free energy of the ion-electron system (eV)
  ---------------------------------------------------
  alpha Z        PSCENC =      1299.46691393
  Ewald energy   TEWEN  =    -17057.88201460
  -Hartree energ DENC   =     -5951.72381676
  -exchange      EXHF   =         0.00000000
  -V(xc)+E(xc)   XCENC  =       982.23612094
  PAW double counting   =     40857.92157935   -40852.53971957
  entropy T*S    EENTRO =        -0.00316434
  eigenvalues    EBANDS =     -2365.43090974
  atomic energy  EATOM  =     22838.20177132
  ---------------------------------------------------
  free energy    TOTEN  =      -249.75355675 eV

  energy without entropy =     -249.75039242  energy(sigma->0) =     -249.75197458


--------------------------------------------------------------------------------------------------------




--------------------------------------- Iteration      1(   7)  ---------------------------------------


    POTLOK:  cpu time    0.1779: real time    0.1791
    SETDIJ:  cpu time    0.7264: real time    0.7308
    TRIAL :  cpu time   56.9690: real time   57.8426
    CORREC:  cpu time   16.9195: real time   17.0633
    CHARGE:  cpu time    5.2210: real time    5.2543
    --------------------------------------------
      LOOP:  cpu time   80.8138: real time   81.8762

 eigenvalue-minimisations  :     0
 total energy-change (2. order) :-0.3880005E+02  (-0.4723581E+01)
 number of electron     188.0000002 magnetization 
 augmentation part       29.7114077 magnetization 

 Free energy of the ion-electron system (eV)
  ---------------------------------------------------
  alpha Z        PSCENC =      1299.46691393
  Ewald energy   TEWEN  =    -17057.88201460
  -Hartree energ DENC   =     -5993.36101731
  -exchange      EXHF   =         0.00000000
  -V(xc)+E(xc)   XCENC  =       988.23581027
  PAW double counting   =     39318.66693096   -39295.78716706
  entropy T*S    EENTRO =        -0.00246686
  eigenvalues    EBANDS =     -2386.09166629
  atomic energy  EATOM  =     22838.20177132
  ---------------------------------------------------
  free energy    TOTEN  =      -288.55360313 eV

  energy without entropy =     -288.55113627  energy(sigma->0) =     -288.55236970


--------------------------------------------------------------------------------------------------------




--------------------------------------- Iteration      1(   8)  ---------------------------------------


    POTLOK:  cpu time    0.1732: real time    0.1742
    SETDIJ:  cpu time    1.5769: real time    1.5860
    TRIAL :  cpu time   53.7432: real time   54.4560
    CORREC:  cpu time   18.5137: real time   18.6597
    CHARGE:  cpu time    4.9293: real time    4.9585
    --------------------------------------------
      LOOP:  cpu time   78.9381: real time   79.8364

 eigenvalue-minimisations  :     0
 total energy-change (2. order) :-0.4712482E+01  (-0.1080909E+01)
 number of electron     188.0000002 magnetization 
 augmentation part       29.9135707 magnetization 

 Free energy of the ion-electron system (eV)
  ---------------------------------------------------
  alpha Z        PSCENC =      1299.46691393
  Ewald energy   TEWEN  =    -17057.88201460
  -Hartree energ DENC   =     -5966.23234092
  -exchange      EXHF   =         0.00000000
  -V(xc)+E(xc)   XCENC  =       987.75406760
  PAW double counting   =     38178.55608660   -38151.68973942
  entropy T*S    EENTRO =        -0.00283182
  eigenvalues    EBANDS =     -2421.43836266
  atomic energy  EATOM  =     22838.20177132
  ---------------------------------------------------
  free energy    TOTEN  =      -293.26608501 eV

  energy without entropy =     -293.26325319  energy(sigma->0) =     -293.26466910


--------------------------------------------------------------------------------------------------------




--------------------------------------- Iteration      1(   9)  ---------------------------------------


    POTLOK:  cpu time    0.1783: real time    0.1794
    SETDIJ:  cpu time    0.7490: real time    0.7536
    TRIAL :  cpu time   57.0315: real time   57.6692
    CORREC:  cpu time   16.5249: real time   16.6712
    CHARGE:  cpu time    4.8212: real time    4.8561
    --------------------------------------------
      LOOP:  cpu time   79.3066: real time   80.1331

 eigenvalue-minimisations  :     0
 total energy-change (2. order) :-0.1080542E+01  (-0.4242241E+00)
 number of electron     188.0000002 magnetization 
 augmentation part       29.9733840 magnetization 

 Free energy of the ion-electron system (eV)
  ---------------------------------------------------
  alpha Z        PSCENC =      1299.46691393
  Ewald energy   TEWEN  =    -17057.88201460
  -Hartree energ DENC   =     -5986.97927690
  -exchange      EXHF   =         0.00000000
  -V(xc)+E(xc)   XCENC  =       988.77554613
  PAW double counting   =     37372.21760877   -37341.50819319
  entropy T*S    EENTRO =        -0.00278241
  eigenvalues    EBANDS =     -2406.63615089
  atomic energy  EATOM  =     22838.20177132
  ---------------------------------------------------
  free energy    TOTEN  =      -294.34662724 eV

  energy without entropy =     -294.34384483  energy(sigma->0) =     -294.34523604


--------------------------------------------------------------------------------------------------------




--------------------------------------- Iteration      1(  10)  ---------------------------------------


    POTLOK:  cpu time    0.1719: real time    0.1729
    SETDIJ:  cpu time    1.6259: real time    1.6362
    TRIAL :  cpu time   54.8763: real time   55.3879
    CORREC:  cpu time   16.0883: real time   16.2260
    CHARGE:  cpu time    4.9698: real time    5.0048
    --------------------------------------------
      LOOP:  cpu time   77.7388: real time   78.4350

 eigenvalue-minimisations  :     0
 total energy-change (2. order) :-0.4239853E+00  (-0.1443220E+00)
 number of electron     188.0000002 magnetization 
 augmentation part       29.9292782 magnetization 

 Free energy of the ion-electron system (eV)
  ---------------------------------------------------
  alpha Z        PSCENC =      1299.46691393
  Ewald energy   TEWEN  =    -17057.88201460
  -Hartree energ DENC   =     -5996.25979270
  -exchange      EXHF   =         0.00000000
  -V(xc)+E(xc)   XCENC  =       989.36613217
  PAW double counting   =     36965.95257495   -36933.20781914
  entropy T*S    EENTRO =        -0.00249540
  eigenvalues    EBANDS =     -2400.40559609
  atomic energy  EATOM  =     22838.20177132
  ---------------------------------------------------
  free energy    TOTEN  =      -294.77061258 eV

  energy without entropy =     -294.76811718  energy(sigma->0) =     -294.76936488


--------------------------------------------------------------------------------------------------------




--------------------------------------- Iteration      1(  11)  ---------------------------------------


    POTLOK:  cpu time    0.1784: real time    0.1795
    SETDIJ:  cpu time    0.7336: real time    0.7382
    TRIAL :  cpu time   54.0784: real time   54.8151
    CORREC:  cpu time   19.1591: real time   19.3230
    CHARGE:  cpu time    6.8081: real time    6.8507
    --------------------------------------------
      LOOP:  cpu time   80.9596: real time   81.9090

 eigenvalue-minimisations  :     0
 total energy-change (2. order) :-0.1443540E+00  (-0.5673239E-01)
 number of electron     188.0000002 magnetization 
 augmentation part       29.9168096 magnetization 

 Free energy of the ion-electron system (eV)
  ---------------------------------------------------
  alpha Z        PSCENC =      1299.46691393
  Ewald energy   TEWEN  =    -17057.88201460
  -Hartree energ DENC   =     -5991.21089760
  -exchange      EXHF   =         0.00000000
  -V(xc)+E(xc)   XCENC  =       989.27236588
  PAW double counting   =     36884.60638898   -36851.60055174
  entropy T*S    EENTRO =        -0.00250638
  eigenvalues    EBANDS =     -2405.76644736
  atomic energy  EATOM  =     22838.20177132
  ---------------------------------------------------
  free energy    TOTEN  =      -294.91496659 eV

  energy without entropy =     -294.91246021  energy(sigma->0) =     -294.91371340


--------------------------------------------------------------------------------------------------------




--------------------------------------- Iteration      1(  12)  ---------------------------------------


    POTLOK:  cpu time    0.1811: real time    0.1823
    SETDIJ:  cpu time    0.7115: real time    0.7159
    TRIAL :  cpu time   51.6770: real time   52.3004
    CORREC:  cpu time   17.8297: real time   17.9756
    CHARGE:  cpu time    5.7911: real time    5.8331
    --------------------------------------------
      LOOP:  cpu time   76.1916: real time   77.0102

 eigenvalue-minimisations  :     0
 total energy-change (2. order) :-0.5671105E-01  (-0.2896158E-01)
 number of electron     188.0000002 magnetization 
 augmentation part       29.9299245 magnetization 

 Free energy of the ion-electron system (eV)
  ---------------------------------------------------
  alpha Z        PSCENC =      1299.46691393
  Ewald energy   TEWEN  =    -17057.88201460
  -Hartree energ DENC   =     -5988.30421962
  -exchange      EXHF   =         0.00000000
  -V(xc)+E(xc)   XCENC  =       989.15139365
  PAW double counting   =     36893.43426856   -36860.54538845
  entropy T*S    EENTRO =        -0.00258415
  eigenvalues    EBANDS =     -2408.49189605
  atomic energy  EATOM  =     22838.20177132
  ---------------------------------------------------
  free energy    TOTEN  =      -294.97167764 eV

  energy without entropy =     -294.96909348  energy(sigma->0) =     -294.97038556


--------------------------------------------------------------------------------------------------------




--------------------------------------- Iteration      1(  13)  ---------------------------------------


    POTLOK:  cpu time    0.1740: real time    0.1750
    SETDIJ:  cpu time    0.7205: real time    0.7250
    TRIAL :  cpu time   52.7565: real time   53.2404
    CORREC:  cpu time   16.4720: real time   16.7356
    CHARGE:  cpu time    5.4674: real time    5.5020
    --------------------------------------------
      LOOP:  cpu time   75.5912: real time   76.3800

 eigenvalue-minimisations  :     0
 total energy-change (2. order) :-0.2891630E-01  (-0.1371499E-01)
 number of electron     188.0000002 magnetization 
 augmentation part       29.9286649 magnetization 

 Free energy of the ion-electron system (eV)
  ---------------------------------------------------
  alpha Z        PSCENC =      1299.46691393
  Ewald energy   TEWEN  =    -17057.88201460
  -Hartree energ DENC   =     -5989.90466083
  -exchange      EXHF   =         0.00000000
  -V(xc)+E(xc)   XCENC  =       989.19736595
  PAW double counting   =     36935.75341483   -36902.84325516
  entropy T*S    EENTRO =        -0.00268060
  eigenvalues    EBANDS =     -2406.98754522
  atomic energy  EATOM  =     22838.20177132
  ---------------------------------------------------
  free energy    TOTEN  =      -295.00059394 eV

  energy without entropy =     -294.99791334  energy(sigma->0) =     -294.99925364


[...]
  free energy    TOTEN  =      -295.02346473 eV

  energy without entropy =     -295.02087404  energy(sigma->0) =     -295.02216939


--------------------------------------------------------------------------------------------------------




--------------------------------------- Iteration      1(  18)  ---------------------------------------


    POTLOK:  cpu time    0.1850: real time    0.1862
    SETDIJ:  cpu time    1.6168: real time    1.6291
    TRIAL :  cpu time   54.9781: real time   55.7942
    CORREC:  cpu time   19.4497: real time   19.6122
    CHARGE:  cpu time    4.3828: real time    4.4129
    --------------------------------------------
      LOOP:  cpu time   80.6139: real time   81.6378

 eigenvalue-minimisations  :     0
 total energy-change (2. order) :-0.3209157E-03  (-0.1215006E-03)
 number of electron     188.0000002 magnetization 
 augmentation part       29.9294923 magnetization 

 Free energy of the ion-electron system (eV)
  ---------------------------------------------------
  alpha Z        PSCENC =      1299.46691393
  Ewald energy   TEWEN  =    -17057.88201460
  -Hartree energ DENC   =     -5989.97068939
  -exchange      EXHF   =         0.00000000
  -V(xc)+E(xc)   XCENC  =       989.20130164
  PAW double counting   =     36969.02636998   -36936.06200721
  entropy T*S    EENTRO =        -0.00257338
  eigenvalues    EBANDS =     -2407.00284064
  atomic energy  EATOM  =     22838.20177132
  ---------------------------------------------------
  free energy    TOTEN  =      -295.02378564 eV

  energy without entropy =     -295.02121226  energy(sigma->0) =     -295.02249895


--------------------------------------------------------------------------------------------------------




--------------------------------------- Iteration      1(  19)  ---------------------------------------


    POTLOK:  cpu time    0.1743: real time    0.1754
    SETDIJ:  cpu time    1.5387: real time    1.5478
    TRIAL :  cpu time   56.9845: real time   58.4511
    CORREC:  cpu time   16.6450: real time   16.7845
    CHARGE:  cpu time    4.8605: real time    4.8933
    --------------------------------------------
      LOOP:  cpu time   80.2049: real time   81.8556

 eigenvalue-minimisations  :     0
 total energy-change (2. order) :-0.1209787E-03  (-0.4591359E-04)
 number of electron     188.0000002 magnetization 
 augmentation part       29.9293849 magnetization 

 Free energy of the ion-electron system (eV)
  ---------------------------------------------------
  alpha Z        PSCENC =      1299.46691393
  Ewald energy   TEWEN  =    -17057.88201460
  -Hartree energ DENC   =     -5990.08087582
  -exchange      EXHF   =         0.00000000
  -V(xc)+E(xc)   XCENC  =       989.20594866
  PAW double counting   =     36971.33596759   -36938.37091070
  entropy T*S    EENTRO =        -0.00256466
  eigenvalues    EBANDS =     -2406.89813363
  atomic energy  EATOM  =     22838.20177132
  ---------------------------------------------------
  free energy    TOTEN  =      -295.02390662 eV

  energy without entropy =     -295.02134196  energy(sigma->0) =     -295.02262429


--------------------------------------------------------------------------------------------------------




--------------------------------------- Iteration      1(  20)  ---------------------------------------


    POTLOK:  cpu time    0.1766: real time    0.1778
    SETDIJ:  cpu time    0.7446: real time    0.7490
    TRIAL :  cpu time   52.7612: real time   53.4468
    CORREC:  cpu time   17.4183: real time   17.5880
    CHARGE:  cpu time    4.8711: real time    4.9058
    --------------------------------------------
      LOOP:  cpu time   75.9736: real time   76.8713

 eigenvalue-minimisations  :     0
 total energy-change (2. order) :-0.4578354E-04  (-0.1742792E-04)
 number of electron     188.0000002 magnetization 
 augmentation part       29.9294566 magnetization 

 Free energy of the ion-electron system (eV)
  ---------------------------------------------------
  alpha Z        PSCENC =      1299.46691393
  Ewald energy   TEWEN  =    -17057.88201460
  -Hartree energ DENC   =     -5990.07647344
  -exchange      EXHF   =         0.00000000
  -V(xc)+E(xc)   XCENC  =       989.20516924
  PAW double counting   =     36972.10118792   -36939.13840748
  entropy T*S    EENTRO =        -0.00256187
  eigenvalues    EBANDS =     -2406.89953464
  atomic energy  EATOM  =     22838.20177132
  ---------------------------------------------------
  free energy    TOTEN  =      -295.02395241 eV

  energy without entropy =     -295.02139054  energy(sigma->0) =     -295.02267147


--------------------------------------------------------------------------------------------------------




--------------------------------------- Iteration      1(  21)  ---------------------------------------


    POTLOK:  cpu time    0.1776: real time    0.1786
    SETDIJ:  cpu time    0.7379: real time    0.7424
    TRIAL :  cpu time   55.4434: real time   55.9551
    CORREC:  cpu time   18.0224: real time   18.1710
    CHARGE:  cpu time    3.4515: real time    3.4791
    --------------------------------------------
      LOOP:  cpu time   78.5343: real time   79.2332

 eigenvalue-minimisations  :     0
 total energy-change (2. order) :-0.1738797E-04  (-0.6802910E-05)
 number of electron     188.0000002 magnetization 
 augmentation part       29.9294656 magnetization 

 Free energy of the ion-electron system (eV)
  ---------------------------------------------------
  alpha Z        PSCENC =      1299.46691393
  Ewald energy   TEWEN  =    -17057.88201460
  -Hartree energ DENC   =     -5990.06424774
  -exchange      EXHF   =         0.00000000
  -V(xc)+E(xc)   XCENC  =       989.20524589
  PAW double counting   =     36971.92182769   -36938.95796605
  entropy T*S    EENTRO =        -0.00256190
  eigenvalues    EBANDS =     -2406.91293837
  atomic energy  EATOM  =     22838.20177132
  ---------------------------------------------------
  free energy    TOTEN  =      -295.02396979 eV

  energy without entropy =     -295.02140790  energy(sigma->0) =     -295.02268885


--------------------------------------------------------------------------------------------------------




--------------------------------------- Iteration      1(  22)  ---------------------------------------


    POTLOK:  cpu time    0.1722: real time    0.1732
    SETDIJ:  cpu time    0.7536: real time    0.7580
    TRIAL :  cpu time   58.8614: real time   59.5931
    CORREC:  cpu time   19.6583: real time   19.9380
    CHARGE:  cpu time    4.2195: real time    4.2500
    --------------------------------------------
      LOOP:  cpu time   83.6707: real time   84.7186

 eigenvalue-minimisations  :     0
 total energy-change (2. order) :-0.6651244E-05  (-0.1934999E-05)
 number of electron     188.0000002 magnetization 
 augmentation part       29.9294107 magnetization 

 Free energy of the ion-electron system (eV)
  ---------------------------------------------------
  alpha Z        PSCENC =      1299.46691393
  Ewald energy   TEWEN  =    -17057.88201460
  -Hartree energ DENC   =     -5990.08904494
  -exchange      EXHF   =         0.00000000
  -V(xc)+E(xc)   XCENC  =       989.20593279
  PAW double counting   =     36971.42268211   -36938.45997147
  entropy T*S    EENTRO =        -0.00256320
  eigenvalues    EBANDS =     -2406.88768370
  atomic energy  EATOM  =     22838.20177132
  ---------------------------------------------------
  free energy    TOTEN  =      -295.02397645 eV

  energy without entropy =     -295.02141324  energy(sigma->0) =     -295.02269484


--------------------------------------------------------------------------------------------------------




--------------------------------------- Iteration      1(  23)  ---------------------------------------


    POTLOK:  cpu time    0.1778: real time    0.1793
    SETDIJ:  cpu time    0.7789: real time    0.7842
    TRIAL :  cpu time   54.4545: real time   54.9424
    CORREC:  cpu time   16.2827: real time   16.4165
    CHARGE:  cpu time    5.3952: real time    5.4343
    --------------------------------------------
      LOOP:  cpu time   77.0902: real time   77.7587

 eigenvalue-minimisations  :     0
 total energy-change (2. order) :-0.1979028E-05  (-0.7519444E-06)
 number of electron     188.0000002 magnetization 
 augmentation part       29.9294008 magnetization 

 Free energy of the ion-electron system (eV)
  ---------------------------------------------------
  alpha Z        PSCENC =      1299.46691393
  Ewald energy   TEWEN  =    -17057.88201460
  -Hartree energ DENC   =     -5990.06855419
  -exchange      EXHF   =         0.00000000
  -V(xc)+E(xc)   XCENC  =       989.20529866
  PAW double counting   =     36971.34661203   -36938.38433111
  entropy T*S    EENTRO =        -0.00256425
  eigenvalues    EBANDS =     -2406.90711125
  atomic energy  EATOM  =     22838.20177132
  ---------------------------------------------------
  free energy    TOTEN  =      -295.02397843 eV

  energy without entropy =     -295.02141417  energy(sigma->0) =     -295.02269630


--------------------------------------------------------------------------------------------------------




--------------------------------------- Iteration      1(  24)  ---------------------------------------


    POTLOK:  cpu time    0.1711: real time    0.1722
    SETDIJ:  cpu time    1.6528: real time    1.6621
    TRIAL :  cpu time   52.1871: real time   52.6690
    CORREC:  cpu time   16.5084: real time   16.6404
    CHARGE:  cpu time    4.2038: real time    4.2338
    --------------------------------------------
      LOOP:  cpu time   74.9480: real time   75.6047

 eigenvalue-minimisations  :     0
 total energy-change (2. order) :-0.7675590E-06  (-0.2972716E-06)
 number of electron     188.0000002 magnetization 
 augmentation part       29.9294189 magnetization 

 Free energy of the ion-electron system (eV)
  ---------------------------------------------------
  alpha Z        PSCENC =      1299.46691393
  Ewald energy   TEWEN  =    -17057.88201460
  -Hartree energ DENC   =     -5990.06548556
  -exchange      EXHF   =         0.00000000
  -V(xc)+E(xc)   XCENC  =       989.20521744
  PAW double counting   =     36971.35726815   -36938.39471165
  entropy T*S    EENTRO =        -0.00256508
  eigenvalues    EBANDS =     -2406.91037396
  atomic energy  EATOM  =     22838.20177132
  ---------------------------------------------------
  free energy    TOTEN  =      -295.02397919 eV

  energy without entropy =     -295.02141411  energy(sigma->0) =     -295.02269665


--------------------------------------------------------------------------------------------------------




--------------------------------------- Iteration      1(  25)  ---------------------------------------


    POTLOK:  cpu time    0.1747: real time    0.1758
    SETDIJ:  cpu time    0.7302: real time    0.7350
    TRIAL :  cpu time   55.6018: real time   56.0982
    CORREC:  cpu time   16.7650: real time   16.8992
    CHARGE:  cpu time    4.4171: real time    4.4495
    --------------------------------------------
      LOOP:  cpu time   77.6919: real time   78.3616

 eigenvalue-minimisations  :     0
 total energy-change (2. order) :-0.3062596E-06  (-0.8238029E-07)
 number of electron     188.0000002 magnetization 
 augmentation part       29.9294169 magnetization 

 Free energy of the ion-electron system (eV)
  ---------------------------------------------------
  alpha Z        PSCENC =      1299.46691393
  Ewald energy   TEWEN  =    -17057.88201460
  -Hartree energ DENC   =     -5990.06818878
  -exchange      EXHF   =         0.00000000
  -V(xc)+E(xc)   XCENC  =       989.20530921
  PAW double counting   =     36971.35501356   -36938.39200331
  entropy T*S    EENTRO =        -0.00256546
  eigenvalues    EBANDS =     -2406.90821573
  atomic energy  EATOM  =     22838.20177132
  ---------------------------------------------------
  free energy    TOTEN  =      -295.02397950 eV

  energy without entropy =     -295.02141404  energy(sigma->0) =     -295.02269677


--------------------------------------------------------------------------------------------------------




--------------------------------------- Iteration      1(  26)  ---------------------------------------


    POTLOK:  cpu time    0.1750: real time    0.1760
    SETDIJ:  cpu time    0.7317: real time    0.7363
    TRIAL :  cpu time   57.7103: real time   58.3763
    CORREC:  cpu time   18.1207: real time   18.2693
    CHARGE:  cpu time    5.1936: real time    5.2291
    --------------------------------------------
      LOOP:  cpu time   81.9382: real time   82.7952

 eigenvalue-minimisations  :     0
 total energy-change (2. order) :-0.7755079E-07  (-0.4069821E-07)
 number of electron     188.0000002 magnetization 
 augmentation part       29.9294126 magnetization 

 Free energy of the ion-electron system (eV)
  ---------------------------------------------------
  alpha Z        PSCENC =      1299.46691393
  Ewald energy   TEWEN  =    -17057.88201460
  -Hartree energ DENC   =     -5990.06638556
  -exchange      EXHF   =         0.00000000
  -V(xc)+E(xc)   XCENC  =       989.20526366
  PAW double counting   =     36971.38127442   -36938.41813591
  entropy T*S    EENTRO =        -0.00256567
  eigenvalues    EBANDS =     -2406.91010138
  atomic energy  EATOM  =     22838.20177132
  ---------------------------------------------------
  free energy    TOTEN  =      -295.02397958 eV

  energy without entropy =     -295.02141391  energy(sigma->0) =     -295.02269674


--------------------------------------------------------------------------------------------------------




--------------------------------------- Iteration      1(  27)  ---------------------------------------


    POTLOK:  cpu time    0.1743: real time    0.1754
    SETDIJ:  cpu time    0.7240: real time    0.7291
    TRIAL :  cpu time   57.8282: real time   58.6970
    CORREC:  cpu time   17.2345: real time   17.4035
    CHARGE:  cpu time    4.2313: real time    4.2627
    --------------------------------------------
      LOOP:  cpu time   80.1958: real time   81.2726

 eigenvalue-minimisations  :     0
 total energy-change (2. order) :-0.3968671E-07  (-0.5971444E-07)
 number of electron     188.0000002 magnetization 
 augmentation part       29.9294271 magnetization 

 Free energy of the ion-electron system (eV)
  ---------------------------------------------------
  alpha Z        PSCENC =      1299.46691393
  Ewald energy   TEWEN  =    -17057.88201460
  -Hartree energ DENC   =     -5990.06502270
  -exchange      EXHF   =         0.00000000
  -V(xc)+E(xc)   XCENC  =       989.20521294
  PAW double counting   =     36971.39845917   -36938.43532438
  entropy T*S    EENTRO =        -0.00256606
  eigenvalues    EBANDS =     -2406.91140963
  atomic energy  EATOM  =     22838.20177132
  ---------------------------------------------------
  free energy    TOTEN  =      -295.02397962 eV

  energy without entropy =     -295.02141356  energy(sigma->0) =     -295.02269659


--------------------------------------------------------------------------------------------------------




--------------------------------------- Iteration      1(  28)  ---------------------------------------


    POTLOK:  cpu time    0.2519: real time    0.2534
    SETDIJ:  cpu time    0.6903: real time    0.6949
    TRIAL :  cpu time   54.9723: real time   55.6776
    CORREC:  cpu time   16.3032: real time   16.4464
    CHARGE:  cpu time    4.1080: real time    4.1372
    --------------------------------------------
      LOOP:  cpu time   76.3269: real time   77.2116

 eigenvalue-minimisations  :     0
 total energy-change (2. order) : 0.4831236E-08  (-0.2904361E-07)
 number of electron     188.0000002 magnetization 
 augmentation part       29.9294250 magnetization 

 Free energy of the ion-electron system (eV)
  ---------------------------------------------------
  alpha Z        PSCENC =      1299.46691393
  Ewald energy   TEWEN  =    -17057.88201460
  -Hartree energ DENC   =     -5990.06752202
  -exchange      EXHF   =         0.00000000
  -V(xc)+E(xc)   XCENC  =       989.20526850
  PAW double counting   =     36971.40974923   -36938.44647471
  entropy T*S    EENTRO =        -0.00256602
  eigenvalues    EBANDS =     -2406.90910520
  atomic energy  EATOM  =     22838.20177132
  ---------------------------------------------------
  free energy    TOTEN  =      -295.02397961 eV

  energy without entropy =     -295.02141359  energy(sigma->0) =     -295.02269660


--------------------------------------------------------------------------------------------------------




--------------------------------------- Iteration      1(  29)  ---------------------------------------


    POTLOK:  cpu time    0.1697: real time    0.1713
    SETDIJ:  cpu time    1.4573: real time    1.4675
    TRIAL :  cpu time   61.6125: real time   62.6168
    CORREC:  cpu time   16.0557: real time   16.1909
    CHARGE:  cpu time    4.8437: real time    4.8771
    --------------------------------------------
      LOOP:  cpu time   84.1462: real time   85.3314

 eigenvalue-minimisations  :     0
 total energy-change (2. order) :-0.1923036E-07  (-0.1109828E-07)
 number of electron     188.0000002 magnetization 
 augmentation part       29.9294227 magnetization 

 Free energy of the ion-electron system (eV)
  ---------------------------------------------------
  alpha Z        PSCENC =      1299.46691393
  Ewald energy   TEWEN  =    -17057.88201460
  -Hartree energ DENC   =     -5990.06636058
  -exchange      EXHF   =         0.00000000
  -V(xc)+E(xc)   XCENC  =       989.20525745
  PAW double counting   =     36971.42156880   -36938.45821141
  entropy T*S    EENTRO =        -0.00256599
  eigenvalues    EBANDS =     -2406.91033851
  atomic energy  EATOM  =     22838.20177132
  ---------------------------------------------------
  free energy    TOTEN  =      -295.02397963 eV

  energy without entropy =     -295.02141364  energy(sigma->0) =     -295.02269663


--------------------------------------------------------------------------------------------------------




--------------------------------------- Iteration      1(  30)  ---------------------------------------


    POTLOK:  cpu time    0.1782: real time    0.1792
    SETDIJ:  cpu time    0.8115: real time    0.8166
    TRIAL :  cpu time   57.2528: real time   57.8505
    CORREC:  cpu time   13.1510: real time   13.2653
    CHARGE:  cpu time    4.4267: real time    4.4578
    --------------------------------------------
      LOOP:  cpu time   75.8273: real time   76.5770

 eigenvalue-minimisations  :     0
 total energy-change (2. order) :-0.4652975E-08  ( 0.4071555E-08)
 number of electron     188.0000002 magnetization 
 augmentation part       29.9294225 magnetization 

 Free energy of the ion-electron system (eV)
  ---------------------------------------------------
  alpha Z        PSCENC =      1299.46691393
  Ewald energy   TEWEN  =    -17057.88201460
  -Hartree energ DENC   =     -5990.06580110
  -exchange      EXHF   =         0.00000000
  -V(xc)+E(xc)   XCENC  =       989.20524028
  PAW double counting   =     36971.42001801   -36938.45665992
  entropy T*S    EENTRO =        -0.00256596
  eigenvalues    EBANDS =     -2406.91088156
  atomic energy  EATOM  =     22838.20177132
  ---------------------------------------------------
  free energy    TOTEN  =      -295.02397964 eV

  energy without entropy =     -295.02141368  energy(sigma->0) =     -295.02269666


--------------------------------------------------------------------------------------------------------




--------------------------------------- Iteration      1(  31)  ---------------------------------------


    POTLOK:  cpu time    0.2170: real time    0.2184
    SETDIJ:  cpu time    1.5932: real time    1.6047
    TRIAL :  cpu time   56.0319: real time   56.6989
