<?xml version="1.0" encoding="ISO-8859-1"?>
<modeling>
 <generator>
  <i name="program" type="string">vasp </i>
  <i name="version" type="string">6.2.0  </i>
  <i name="subversion" type="string">18Jan21 (build Jan 05 2022 15:41:44) complex                          parallel </i>
  <i name="platform" type="string">LinuxIFC </i>
  <i name="date" type="string">2025 05 07 </i>
  <i name="time" type="string">17:20:05 </i>
 </generator>
 <incar>
  <i type="string" name="SYSTEM">routine with relax: pwdword</i>
  <i type="string" name="PREC">Acc</i>
  <i type="int" name="IALGO">    38</i>
  <i type="string" name="ALGO">A</i>
  <i type="logical" name="ADDGRID"> T  </i>
  <i type="int" name="ICHARG">     2</i>
  <i type="int" name="NELM">   100</i>
  <i type="int" name="NELMIN">     6</i>
  <i name="EDIFF">      0.00000000</i>
  <i type="int" name="NSW">     0</i>
  <i type="int" name="ISIF">    -1</i>
  <i name="ENCUT">    600.00000000</i>
  <i type="logical" name="LREAL"> F  </i>
  <i type="int" name="ISMEAR">     0</i>
  <i name="SIGMA">      0.02000000</i>
  <i type="logical" name="LASPH"> T  </i>
  <i type="string" name="METAGGA">R2SCAN</i>
  <i type="logical" name="LMIXTAU"> F  </i>
 </incar>
 <primitive_cell>
  <structure name="primitive_cell" >
   <crystal>
    <varray name="basis" >
     <v>       6.25626346       0.00000000      -2.08057549 </v>
     <v>      -3.25489410       5.34289219      -2.08057549 </v>
     <v>       0.00000000       0.00000000       6.59315000 </v>
    </varray>
    <i name="volume">    220.38619994 </i>
    <varray name="rec_basis" >
     <v>       0.15983982       0.09737454       0.00000000 </v>
     <v>       0.00000000       0.18716455       0.00000000 </v>
     <v>       0.05044005       0.08979093       0.15167257 </v>
    </varray>
   </crystal>
   <varray name="positions" >
    <v>       0.00000000       0.50000000       0.50000000 </v>
    <v>       0.50000000       0.00000000       0.50000000 </v>
    <v>       0.25000000       0.25000000       0.00000000 </v>
    <v>       0.74602000       0.24602000       0.99204000 </v>
    <v>       0.75000000       0.75000000       0.00000000 </v>
    <v>       0.25398000       0.75398000       0.00796000 </v>
    <v>       0.24602000       0.25398000       0.50000000 </v>
    <v>       0.75398000       0.74602000       0.50000000 </v>
    <v>       0.97817000       0.23808000       0.21624000 </v>
    <v>       0.02183000       0.76192000       0.78376000 </v>
    <v>       0.23808000       0.02183000       0.25991000 </v>
    <v>       0.76192000       0.97817000       0.74009000 </v>
    <v>       0.52183000       0.73808000       0.25991000 </v>
    <v>       0.47817000       0.26192000       0.74009000 </v>
    <v>       0.26192000       0.52183000       0.78376000 </v>
    <v>       0.73808000       0.47817000       0.21624000 </v>
   </varray>
  </structure>
  <varray name="primitive_index" >
   <v type="int" >        1 </v>
   <v type="int" >        2 </v>
   <v type="int" >        3 </v>
   <v type="int" >        4 </v>
   <v type="int" >        5 </v>
   <v type="int" >        6 </v>
   <v type="int" >        7 </v>
   <v type="int" >        8 </v>
   <v type="int" >        9 </v>
   <v type="int" >       10 </v>
   <v type="int" >       11 </v>
   <v type="int" >       12 </v>
   <v type="int" >       13 </v>
   <v type="int" >       14 </v>
   <v type="int" >       15 </v>
   <v type="int" >       16 </v>
  </varray>
 </primitive_cell>
 <kpoints>
  <generation param="Gamma">
   <v type="int" name="divisions">       7        7        7 </v>
   <v name="usershift">      0.00000000       0.00000000       0.00000000 </v>
   <v name="genvec1">      0.14285714       0.00000000       0.00000000 </v>
   <v name="genvec2">      0.00000000       0.14285714       0.00000000 </v>
   <v name="genvec3">      0.00000000      -0.00000000       0.14285714 </v>
   <v name="shift">      0.00000000       0.00000000       0.00000000 </v>
  </generation>
  <varray name="kpointlist" >
   <v>       0.00000000       0.00000000       0.00000000 </v>
   <v>       0.14285714       0.00000000       0.00000000 </v>
   <v>       0.14285714       0.00000000      -0.14285714 </v>
   <v>       0.28571429       0.00000000       0.00000000 </v>
   <v>       0.28571429       0.00000000      -0.28571429 </v>
   <v>       0.42857143       0.00000000       0.00000000 </v>
   <v>       0.42857143      -0.00000000      -0.42857143 </v>
   <v>       0.14285714       0.14285714       0.00000000 </v>
   <v>       0.28571429       0.00000000      -0.14285714 </v>
   <v>       0.14285714       0.14285714      -0.28571429 </v>
   <v>       0.28571429       0.14285714       0.00000000 </v>
   <v>       0.42857143       0.00000000      -0.28571429 </v>
   <v>       0.14285714       0.28571429      -0.42857143 </v>
   <v>       0.00000000       0.42857143      -0.14285714 </v>
   <v>       0.42857143       0.14285714       0.00000000 </v>
   <v>      -0.42857143      -0.00000000      -0.42857143 </v>
   <v>       0.14285714       0.42857143       0.42857143 </v>
   <v>       0.00000000      -0.42857143      -0.14285714 </v>
   <v>      -0.42857143       0.14285714       0.00000000 </v>
   <v>      -0.28571429      -0.00000000       0.42857143 </v>
   <v>       0.14285714      -0.42857143       0.28571429 </v>
   <v>       0.00000000      -0.28571429      -0.14285714 </v>
   <v>      -0.28571429       0.14285714       0.00000000 </v>
   <v>      -0.14285714       0.00000000       0.28571429 </v>
   <v>       0.14285714      -0.28571429       0.14285714 </v>
   <v>       0.00000000      -0.14285714      -0.14285714 </v>
   <v>      -0.14285714       0.14285714       0.00000000 </v>
   <v>       0.00000000       0.00000000       0.14285714 </v>
   <v>       0.28571429       0.28571429       0.00000000 </v>
   <v>      -0.42857143      -0.00000000      -0.28571429 </v>
   <v>       0.28571429       0.28571429       0.42857143 </v>
   <v>       0.42857143       0.28571429       0.00000000 </v>
   <v>      -0.28571429      -0.00000000      -0.42857143 </v>
   <v>       0.28571429       0.42857143       0.28571429 </v>
   <v>       0.00000000      -0.28571429      -0.28571429 </v>
   <v>      -0.42857143       0.28571429       0.00000000 </v>
   <v>      -0.14285714       0.00000000       0.42857143 </v>
   <v>       0.28571429      -0.42857143       0.14285714 </v>
   <v>       0.00000000      -0.14285714      -0.28571429 </v>
   <v>      -0.28571429       0.28571429       0.00000000 </v>
   <v>       0.00000000       0.00000000       0.28571429 </v>
   <v>       0.42857143       0.42857143       0.00000000 </v>
   <v>      -0.14285714      -0.00000000      -0.42857143 </v>
   <v>       0.42857143       0.42857143       0.14285714 </v>
   <v>      -0.42857143       0.42857143       0.00000000 </v>
   <v>       0.00000000       0.00000000       0.42857143 </v>
   <v>       0.14285714       0.14285714       0.14285714 </v>
   <v>       0.42857143      -0.14285714      -0.14285714 </v>
   <v>       0.14285714       0.14285714      -0.42857143 </v>
   <v>       0.28571429       0.14285714       0.14285714 </v>
   <v>      -0.42857143      -0.14285714      -0.28571429 </v>
   <v>       0.14285714       0.28571429       0.42857143 </v>
   <v>      -0.14285714      -0.42857143      -0.14285714 </v>
   <v>      -0.14285714       0.14285714       0.14285714 </v>
   <v>       0.28571429       0.28571429       0.14285714 </v>
   <v>      -0.28571429      -0.14285714      -0.28571429 </v>
   <v>       0.28571429       0.28571429       0.28571429 </v>
   <v>       0.42857143       0.28571429       0.14285714 </v>
   <v>      -0.14285714      -0.14285714      -0.42857143 </v>
   <v>      -0.14285714      -0.14285714      -0.28571429 </v>
   <v>      -0.28571429       0.28571429       0.14285714 </v>
   <v>       0.14285714      -0.14285714       0.28571429 </v>
   <v>      -0.14285714       0.28571429       0.14285714 </v>
   <v>       0.28571429      -0.14285714      -0.28571429 </v>
   <v>      -0.42857143       0.42857143       0.14285714 </v>
   <v>       0.14285714      -0.14285714       0.42857143 </v>
   <v>      -0.28571429       0.42857143       0.14285714 </v>
   <v>       0.28571429      -0.14285714       0.28571429 </v>
   <v>       0.42857143      -0.28571429      -0.28571429 </v>
   <v>      -0.14285714       0.28571429      -0.42857143 </v>
   <v>      -0.14285714       0.42857143       0.14285714 </v>
   <v>       0.42857143      -0.14285714      -0.42857143 </v>
   <v>      -0.42857143      -0.42857143       0.14285714 </v>
   <v>       0.28571429      -0.14285714       0.42857143 </v>
   <v>      -0.42857143      -0.42857143      -0.28571429 </v>
   <v>      -0.28571429      -0.42857143       0.14285714 </v>
   <v>       0.42857143      -0.14285714       0.28571429 </v>
   <v>      -0.42857143      -0.28571429      -0.42857143 </v>
   <v>      -0.14285714       0.42857143       0.42857143 </v>
   <v>      -0.14285714      -0.42857143       0.14285714 </v>
   <v>      -0.42857143      -0.14285714       0.42857143 </v>
   <v>      -0.28571429      -0.28571429       0.14285714 </v>
   <v>      -0.42857143      -0.14285714       0.28571429 </v>
   <v>      -0.28571429      -0.28571429       0.42857143 </v>
   <v>      -0.14285714      -0.28571429       0.14285714 </v>
   <v>      -0.28571429      -0.14285714       0.28571429 </v>
   <v>      -0.14285714      -0.14285714       0.14285714 </v>
   <v>      -0.28571429       0.28571429       0.28571429 </v>
   <v>      -0.42857143       0.42857143       0.28571429 </v>
   <v>       0.28571429      -0.28571429       0.42857143 </v>
   <v>      -0.28571429       0.42857143       0.28571429 </v>
   <v>       0.42857143      -0.28571429      -0.42857143 </v>
   <v>      -0.42857143      -0.42857143       0.28571429 </v>
   <v>       0.42857143      -0.28571429       0.42857143 </v>
   <v>      -0.42857143      -0.42857143      -0.42857143 </v>
   <v>      -0.28571429      -0.42857143       0.28571429 </v>
   <v>      -0.42857143      -0.28571429       0.42857143 </v>
   <v>      -0.28571429      -0.28571429       0.28571429 </v>
   <v>      -0.42857143       0.42857143       0.42857143 </v>
   <v>      -0.42857143      -0.42857143       0.42857143 </v>
  </varray>
  <varray name="weights" >
   <v>       0.00291545 </v>
   <v>       0.01166181 </v>
   <v>       0.01166181 </v>
   <v>       0.01166181 </v>
   <v>       0.01166181 </v>
   <v>       0.01166181 </v>
   <v>       0.01166181 </v>
   <v>       0.00583090 </v>
   <v>       0.01166181 </v>
   <v>       0.00583090 </v>
   <v>       0.01166181 </v>
   <v>       0.01166181 </v>
   <v>       0.01166181 </v>
   <v>       0.01166181 </v>
   <v>       0.01166181 </v>
   <v>       0.01166181 </v>
   <v>       0.01166181 </v>
   <v>       0.01166181 </v>
   <v>       0.01166181 </v>
   <v>       0.01166181 </v>
   <v>       0.01166181 </v>
   <v>       0.01166181 </v>
   <v>       0.01166181 </v>
   <v>       0.01166181 </v>
   <v>       0.01166181 </v>
   <v>       0.01166181 </v>
   <v>       0.00583090 </v>
   <v>       0.00583090 </v>
   <v>       0.00583090 </v>
   <v>       0.01166181 </v>
   <v>       0.00583090 </v>
   <v>       0.01166181 </v>
   <v>       0.01166181 </v>
   <v>       0.01166181 </v>
   <v>       0.01166181 </v>
   <v>       0.01166181 </v>
   <v>       0.01166181 </v>
   <v>       0.01166181 </v>
   <v>       0.01166181 </v>
   <v>       0.00583090 </v>
   <v>       0.00583090 </v>
   <v>       0.00583090 </v>
   <v>       0.01166181 </v>
   <v>       0.00583090 </v>
   <v>       0.00583090 </v>
   <v>       0.00583090 </v>
   <v>       0.00583090 </v>
   <v>       0.01166181 </v>
   <v>       0.00583090 </v>
   <v>       0.01166181 </v>
   <v>       0.01166181 </v>
   <v>       0.01166181 </v>
   <v>       0.01166181 </v>
   <v>       0.01166181 </v>
   <v>       0.00583090 </v>
   <v>       0.01166181 </v>
   <v>       0.00583090 </v>
   <v>       0.01166181 </v>
   <v>       0.00583090 </v>
   <v>       0.00583090 </v>
   <v>       0.01166181 </v>
   <v>       0.01166181 </v>
   <v>       0.01166181 </v>
   <v>       0.01166181 </v>
   <v>       0.01166181 </v>
   <v>       0.01166181 </v>
   <v>       0.01166181 </v>
   <v>       0.01166181 </v>
   <v>       0.01166181 </v>
   <v>       0.01166181 </v>
   <v>       0.01166181 </v>
   <v>       0.01166181 </v>
   <v>       0.00583090 </v>
   <v>       0.01166181 </v>
   <v>       0.00583090 </v>
   <v>       0.01166181 </v>
   <v>       0.01166181 </v>
   <v>       0.01166181 </v>
   <v>       0.01166181 </v>
   <v>       0.01166181 </v>
   <v>       0.01166181 </v>
   <v>       0.00583090 </v>
   <v>       0.01166181 </v>
   <v>       0.00583090 </v>
   <v>       0.01166181 </v>
   <v>       0.01166181 </v>
   <v>       0.00583090 </v>
   <v>       0.01166181 </v>
   <v>       0.01166181 </v>
   <v>       0.01166181 </v>
   <v>       0.01166181 </v>
   <v>       0.01166181 </v>
   <v>       0.00583090 </v>
   <v>       0.01166181 </v>
   <v>       0.00583090 </v>
   <v>       0.01166181 </v>
   <v>       0.01166181 </v>
   <v>       0.00583090 </v>
   <v>       0.01166181 </v>
   <v>       0.00583090 </v>
  </varray>
 </kpoints>
 <parameters>
  <separator name="general" >
   <i type="string" name="SYSTEM">routine with relax: pwdword</i>
   <i type="logical" name="LCOMPAT"> F  </i>
  </separator>
  <separator name="electronic" >
   <i type="string" name="PREC">acc</i>
   <i name="ENMAX">    600.00000000</i>
   <i name="ENAUG">    535.51400000</i>
   <i name="EDIFF">      0.00000000</i>
   <i type="int" name="IALGO">    58</i>
   <i type="int" name="IWAVPR">    10</i>
   <i type="int" name="NBANDS">    78</i>
   <i type="int" name="NBANDSLOW">    -1</i>
   <i type="int" name="NBANDSHIGH">    -1</i>
   <i name="NELECT">    122.00000000</i>
   <i type="int" name="TURBO">     0</i>
   <i type="int" name="IRESTART">     0</i>
   <i type="int" name="NREBOOT">     0</i>
   <i type="int" name="NMIN">     0</i>
   <i name="EREF">      0.00000000</i>
   <separator name="electronic smearing" >
    <i type="int" name="ISMEAR">     0</i>
    <i name="SIGMA">      0.02000000</i>
    <i name="KSPACING">      0.50000000</i>
    <i type="logical" name="KGAMMA"> T  </i>
    <i type="logical" name="KBLOWUP"> T  </i>
   </separator>
   <separator name="electronic projectors" >
    <i type="logical" name="LREAL"> F  </i>
    <v name="ROPT">      0.00000000      0.00000000      0.00000000</v>
    <i type="int" name="LMAXPAW">  -100</i>
    <i type="int" name="LMAXMIX">     2</i>
    <i type="logical" name="NLSPLINE"> F  </i>
   </separator>
   <separator name="electronic startup" >
    <i type="int" name="ISTART">     0</i>
    <i type="int" name="ICHARG">     2</i>
    <i type="int" name="INIWAV">     1</i>
   </separator>
   <separator name="electronic spin" >
    <i type="int" name="ISPIN">     1</i>
    <i type="logical" name="LNONCOLLINEAR"> F  </i>
    <v name="MAGMOM">      1.00000000      1.00000000      1.00000000      1.00000000      1.00000000      1.00000000      1.00000000      1.00000000      1.00000000      1.00000000      1.00000000      1.00000000      1.00000000      1.00000000      1.00000000      1.00000000</v>
    <i name="NUPDOWN">     -1.00000000</i>
    <i type="logical" name="LSORBIT"> F  </i>
    <v name="SAXIS">      0.00000000      0.00000000      1.00000000</v>
    <i type="logical" name="LSPIRAL"> F  </i>
    <v name="QSPIRAL">      0.00000000      0.00000000      0.00000000</v>
    <i type="logical" name="LZEROZ"> F  </i>
   </separator>
   <separator name="electronic exchange-correlation" >
    <i type="logical" name="LASPH"> T  </i>
    <i type="logical" name="LMETAGGA"> F  </i>
   </separator>
   <separator name="electronic convergence" >
    <i type="int" name="NELM">   100</i>
    <i type="int" name="NELMDL">    -5</i>
    <i type="int" name="NELMIN">     6</i>
    <i name="ENINI">    600.00000000</i>
    <separator name="electronic convergence detail" >
     <i type="logical" name="LDIAG"> T  </i>
     <i type="logical" name="LSUBROT"> F  </i>
     <i name="WEIMIN">      0.00000000</i>
     <i name="EBREAK">      0.00000000</i>
     <i name="DEPER">      0.30000000</i>
     <i type="int" name="NRMM">     4</i>
     <i name="TIME">      0.40000000</i>
    </separator>
   </separator>
   <separator name="electronic mixer" >
    <i name="AMIX">      0.40000000</i>
    <i name="BMIX">      1.00000000</i>
    <i name="AMIN">      0.10000000</i>
    <i name="AMIX_MAG">      1.60000000</i>
    <i name="BMIX_MAG">      1.00000000</i>
    <separator name="electronic mixer details" >
     <i type="int" name="IMIX">     4</i>
     <i type="logical" name="MIXFIRST"> F  </i>
     <i type="int" name="MAXMIX">   -45</i>
     <i name="WC">    100.00000000</i>
     <i type="int" name="INIMIX">     1</i>
     <i type="int" name="MIXPRE">     1</i>
     <i type="int" name="MREMOVE">     5</i>
    </separator>
   </separator>
   <separator name="electronic dipolcorrection" >
    <i type="logical" name="LDIPOL"> F  </i>
    <i type="logical" name="LMONO"> F  </i>
    <i type="int" name="IDIPOL">     0</i>
    <i name="EPSILON">      1.00000000</i>
    <v name="DIPOL">   -100.00000000   -100.00000000   -100.00000000</v>
    <i name="EFIELD">      0.00000000</i>
   </separator>
  </separator>
  <separator name="grids" >
   <i type="int" name="NGX">    54</i>
   <i type="int" name="NGY">    54</i>
   <i type="int" name="NGZ">    54</i>
   <i type="int" name="NGXF">   108</i>
   <i type="int" name="NGYF">   108</i>
   <i type="int" name="NGZF">   108</i>
   <i type="logical" name="ADDGRID"> T  </i>
  </separator>
  <separator name="ionic" >
   <i type="int" name="NSW">     0</i>
   <i type="int" name="IBRION">    -1</i>
   <i type="int" name="MDALGO">     0</i>
   <i type="int" name="ISIF">    -1</i>
   <i name="PSTRESS">      0.00000000</i>
   <i name="EDIFFG">      0.00000001</i>
   <i type="int" name="NFREE">     0</i>
   <i name="POTIM">      0.50000000</i>
   <i name="SMASS">     -3.00000000</i>
   <i name="SCALEE">      1.00000000</i>
  </separator>
  <separator name="ionic md" >
   <i name="TEBEG">      0.00010000</i>
   <i name="TEEND">      0.00010000</i>
   <i type="int" name="NBLOCK">     1</i>
   <i type="int" name="KBLOCK">     1</i>
   <i type="int" name="NPACO">   256</i>
   <i name="APACO">     16.00000000</i>
  </separator>
  <separator name="symmetry" >
   <i type="int" name="ISYM">     2</i>
   <i name="SYMPREC">      0.00001000</i>
  </separator>
  <separator name="dos" >
   <i type="int" name="LORBIT">     0</i>
   <v name="RWIGS">     -1.00000000     -1.00000000     -1.00000000</v>
   <i type="int" name="NEDOS">   301</i>
   <i name="EMIN">     10.00000000</i>
   <i name="EMAX">    -10.00000000</i>
   <i name="EFERMI">      0.00000000</i>
  </separator>
  <separator name="writing" >
   <i type="int" name="NWRITE">     2</i>
   <i type="logical" name="LWAVE"> T  </i>
   <i type="logical" name="LDOWNSAMPLE"> F  </i>
   <i type="logical" name="LCHARG"> T  </i>
   <i type="logical" name="LPARD"> F  </i>
   <i type="logical" name="LVTOT"> F  </i>
   <i type="logical" name="LVHAR"> F  </i>
   <i type="logical" name="LELF"> F  </i>
   <i type="logical" name="LOPTICS"> F  </i>
   <v name="STM">      0.00000000      0.00000000      0.00000000      0.00000000      0.00000000      0.00000000      0.00000000</v>
  </separator>
  <separator name="performance" >
   <i type="int" name="NPAR">     6</i>
   <i type="int" name="NSIM">     4</i>
   <i type="int" name="NBLK">    -1</i>
   <i type="logical" name="LPLANE"> T  </i>
   <i type="logical" name="LSCALAPACK"> T  </i>
   <i type="logical" name="LSCAAWARE"> F  </i>
   <i type="logical" name="LSCALU"> F  </i>
   <i type="logical" name="LASYNC"> F  </i>
   <i type="logical" name="LORBITALREAL"> F  </i>
  </separator>
  <separator name="miscellaneous" >
   <i type="int" name="IDIOT">     3</i>
   <i type="int" name="PHON_NSTRUCT">    -1</i>
   <i type="logical" name="LMUSIC"> F  </i>
   <v name="POMASS">     10.81100000     95.94000000     28.08500000</v>
   <v name="DARWINR">      0.00000000      0.00000000      0.00000000</v>
   <v name="DARWINV">      1.00000000      1.00000000      1.00000000</v>
   <i type="logical" name="LCORR"> T  </i>
  </separator>
  <i type="logical" name="GGA_COMPAT"> T  </i>
  <i type="logical" name="LBERRY"> F  </i>
  <i type="int" name="ICORELEVEL">     0</i>
  <i type="logical" name="LDAU"> F  </i>
  <i type="int" name="I_CONSTRAINED_M">     0</i>
  <separator name="electronic exchange-correlation" >
   <i type="string" name="GGA">--</i>
   <i type="int" name="VOSKOWN">     0</i>
   <i type="logical" name="LHFCALC"> F  </i>
   <i type="string" name="PRECFOCK"></i>
   <i type="logical" name="LSYMGRAD"> F  </i>
   <i type="logical" name="LHFONE"> F  </i>
   <i type="logical" name="LRHFCALC"> F  </i>
   <i type="logical" name="LTHOMAS"> F  </i>
   <i type="logical" name="LMODELHF"> F  </i>
   <i type="logical" name="LFOCKACE"> F  </i>
   <i name="ENCUT4O">     -1.00000000</i>
   <i type="int" name="EXXOEP">     0</i>
   <i type="int" name="FOURORBIT">     0</i>
   <i name="AEXX">      0.00000000</i>
   <i name="HFALPHA">      0.00000000</i>
   <i name="MCALPHA">      0.00000000</i>
   <i name="ALDAX">      1.00000000</i>
   <i name="AGGAX">      1.00000000</i>
   <i name="ALDAC">      1.00000000</i>
   <i name="AGGAC">      1.00000000</i>
   <i type="int" name="NKREDX">     1</i>
   <i type="int" name="NKREDY">     1</i>
   <i type="int" name="NKREDZ">     1</i>
   <i type="logical" name="SHIFTRED"> F  </i>
   <i type="logical" name="ODDONLY"> F  </i>
   <i type="logical" name="EVENONLY"> F  </i>
   <i type="int" name="LMAXFOCK">     0</i>
   <i type="int" name="NMAXFOCKAE">     0</i>
   <i type="logical" name="LFOCKAEDFT"> F  </i>
   <i name="HFSCREEN">      0.00000000</i>
   <i name="HFSCREENC">      0.00000000</i>
   <i type="int" name="NBANDSGWLOW">     0</i>
  </separator>
  <separator name="vdW DFT" >
   <i type="logical" name="LUSE_VDW"> F  </i>
   <i name="Zab_VDW">     -0.84910000</i>
   <i name="PARAM1">      0.12340000</i>
   <i name="PARAM2">      1.00000000</i>
   <i name="PARAM3">      0.00000000</i>
  </separator>
  <separator name="model GW" >
   <i type="int" name="MODEL_GW">     0</i>
   <i name="MODEL_EPS0">      8.26448250</i>
   <i name="MODEL_ALPHA">      1.00000000</i>
  </separator>
  <separator name="linear response parameters" >
   <i type="logical" name="LEPSILON"> F  </i>
   <i type="logical" name="LRPA"> F  </i>
   <i type="logical" name="LNABLA"> F  </i>
   <i type="logical" name="LVEL"> F  </i>
   <i type="int" name="KINTER">     0</i>
   <i name="CSHIFT">      0.10000000</i>
   <i name="OMEGAMAX">     -1.00000000</i>
   <i name="DEG_THRESHOLD">      0.00200000</i>
   <i name="RTIME">     -0.10000000</i>
   <i name="WPLASMAI">      0.00000000</i>
   <v name="DFIELD">      0.00000000      0.00000000      0.00000000</v>
   <v name="WPLASMA">      0.00000000      0.00000000      0.00000000      0.00000000      0.00000000      0.00000000      0.00000000      0.00000000      0.00000000</v>
  </separator>
  <separator name="orbital magnetization" >
   <i type="logical" name="NUCIND"> F  </i>
   <v name="MAGPOS">      0.00000000      0.00000000      0.00000000</v>
   <i type="logical" name="LNICSALL"> T  </i>
   <i type="logical" name="ORBITALMAG"> F  </i>
   <i type="logical" name="LMAGBLOCH"> F  </i>
   <i type="logical" name="LCHIMAG"> F  </i>
   <i type="logical" name="LGAUGE"> T  </i>
   <i type="int" name="MAGATOM">     0</i>
   <v name="MAGDIPOL">      0.00000000      0.00000000      0.00000000</v>
   <v name="AVECCONST">      0.00000000      0.00000000      0.00000000</v>
  </separator>
  <separator name="response functions" >
   <i type="logical" name="LFINITE_TEMPERATURE"> F  </i>
   <i type="logical" name="LADDER"> F  </i>
   <i type="logical" name="LRPAFORCE"> F  </i>
   <i type="logical" name="LFXC"> F  </i>
   <i type="logical" name="LHARTREE"> T  </i>
   <i type="int" name="IBSE">     0</i>
   <v type="int" name="KPOINT">    -1     0     0     0</v>
   <i type="logical" name="LTCTC"> F  </i>
   <i type="logical" name="LTCTE"> F  </i>
   <i type="logical" name="LTETE"> F  </i>
   <i type="logical" name="LTRIPLET"> F  </i>
   <i type="logical" name="LFXCEPS"> F  </i>
   <i type="logical" name="LFXHEG"> F  </i>
   <i type="int" name="NATURALO">     2</i>
   <i type="logical" name="LHOLEGF"> F  </i>
   <i type="logical" name="L2ORDER"> F  </i>
   <i type="logical" name="LDMP1"> F  </i>
   <i type="logical" name="LMP2LT"> F  </i>
   <i type="logical" name="LSMP2LT"> F  </i>
   <i type="logical" name="LGWLF"> F  </i>
   <i name="ENCUTGW">     -2.00000000</i>
   <i name="ENCUTGWSOFT">     -2.00000000</i>
   <i name="ENCUTLF">     -1.00000000</i>
   <i type="logical" name="LESF_SPLINES"> F  </i>
   <i type="int" name="LMAXMP2">    -1</i>
   <i name="SCISSOR">      0.00000000</i>
   <i type="int" name="NOMEGA">     0</i>
   <i type="int" name="NOMEGAR">     0</i>
   <i type="int" name="NBANDSGW">    -1</i>
   <i type="int" name="NBANDSO">    -1</i>
   <i type="int" name="NBANDSV">    -1</i>
   <i type="int" name="NELM">   100</i>
   <i type="int" name="NELMHF">     1</i>
   <i type="int" name="DIM">     3</i>
   <i type="int" name="IESPILON">     4</i>
   <i type="int" name="ANTIRES">     0</i>
   <i name="OMEGAMAX">    -30.00000000</i>
   <i name="OMEGAMIN">    -30.00000000</i>
   <i name="OMEGATL">   -200.00000000</i>
   <i type="int" name="OMEGAGRID">     0</i>
   <i name="CSHIFT">     -0.10000000</i>
   <i type="logical" name="LSELFENERGY"> F  </i>
   <i type="logical" name="LSPECTRAL"> F  </i>
   <i type="logical" name="LSPECTRALGW"> F  </i>
   <i type="logical" name="LSINGLES"> F  </i>
   <i type="logical" name="LFERMIGW"> F  </i>
   <i type="logical" name="ODDONLYGW"> F  </i>
   <i type="logical" name="EVENONLYGW"> F  </i>
   <i type="int" name="NKREDLFX">     1</i>
   <i type="int" name="NKREDLFY">     1</i>
   <i type="int" name="NKREDLFZ">     1</i>
   <i type="int" name="MAXMEM">  2800</i>
   <i type="int" name="TELESCOPE">     0</i>
   <i type="int" name="NTAUPAR">    -1</i>
   <i type="int" name="NOMEGAPAR">    -1</i>
   <i name="DAMP_NEWTON">      0.80000001</i>
   <i name="LAMBDA">      1.00000000</i>
  </separator>
  <separator name="External order field" >
   <i name="OFIELD_KAPPA">      0.00000000</i>
   <v name="OFIELD_K">      0.00000000      0.00000000      0.00000000</v>
   <i name="OFIELD_Q6_NEAR">      0.00000000</i>
   <i name="OFIELD_Q6_FAR">      0.00000000</i>
   <i name="OFIELD_A">      0.00000000</i>
  </separator>
 </parameters>
 <atominfo>
  <atoms>      16 </atoms>
  <types>       3 </types>
  <array name="atoms" >
   <dimension dim="1">ion</dimension>
   <field type="string">element</field>
   <field type="int">atomtype</field>
   <set>
    <rc><c>B </c><c>   1</c></rc>
    <rc><c>B </c><c>   1</c></rc>
    <rc><c>Mo</c><c>   2</c></rc>
    <rc><c>Mo</c><c>   2</c></rc>
    <rc><c>Mo</c><c>   2</c></rc>
    <rc><c>Mo</c><c>   2</c></rc>
    <rc><c>Mo</c><c>   2</c></rc>
    <rc><c>Mo</c><c>   2</c></rc>
    <rc><c>Si</c><c>   3</c></rc>
    <rc><c>Si</c><c>   3</c></rc>
    <rc><c>Si</c><c>   3</c></rc>
    <rc><c>Si</c><c>   3</c></rc>
    <rc><c>Si</c><c>   3</c></rc>
    <rc><c>Si</c><c>   3</c></rc>
    <rc><c>Si</c><c>   3</c></rc>
    <rc><c>Si</c><c>   3</c></rc>
   </set>
  </array>
  <array name="atomtypes" >
   <dimension dim="1">type</dimension>
   <field type="int">atomspertype</field>
   <field type="string">element</field>
   <field>mass</field>
   <field>valence</field>
   <field type="string">pseudopotential</field>
   <set>
    <rc><c>   2</c><c>B </c><c>     10.81100000</c><c>      3.00000000</c><c>  PAW_PBE B 06Sep2000                   </c></rc>
    <rc><c>   6</c><c>Mo</c><c>     95.94000000</c><c>     14.00000000</c><c>  PAW_PBE Mo_sv 02Feb2006               </c></rc>
    <rc><c>   8</c><c>Si</c><c>     28.08500000</c><c>      4.00000000</c><c>  PAW_PBE Si 05Jan2001                  </c></rc>
   </set>
  </array>
 </atominfo>
 <structure name="initialpos" >
  <crystal>
   <varray name="basis" >
    <v>       6.25626346       0.00000000      -2.08057549 </v>
    <v>      -3.25489410       5.34289219      -2.08057549 </v>
    <v>       0.00000000       0.00000000       6.59315000 </v>
   </varray>
   <i name="volume">    220.38619994 </i>
   <varray name="rec_basis" >
    <v>       0.15983982       0.09737454       0.00000000 </v>
    <v>       0.00000000       0.18716455       0.00000000 </v>
    <v>       0.05044005       0.08979093       0.15167257 </v>
   </varray>
  </crystal>
  <varray name="positions" >
   <v>       0.00000000       0.50000000       0.50000000 </v>
   <v>       0.50000000       0.00000000       0.50000000 </v>
   <v>       0.25000000       0.25000000       0.00000000 </v>
   <v>       0.74602000       0.24602000       0.99204000 </v>
   <v>       0.75000000       0.75000000       0.00000000 </v>
   <v>       0.25398000       0.75398000       0.00796000 </v>
   <v>       0.24602000       0.25398000       0.50000000 </v>
   <v>       0.75398000       0.74602000       0.50000000 </v>
   <v>       0.97817000       0.23808000       0.21624000 </v>
   <v>       0.02183000       0.76192000       0.78376000 </v>
   <v>       0.23808000       0.02183000       0.25991000 </v>
   <v>       0.76192000       0.97817000       0.74009000 </v>
   <v>       0.52183000       0.73808000       0.25991000 </v>
   <v>       0.47817000       0.26192000       0.74009000 </v>
   <v>       0.26192000       0.52183000       0.78376000 </v>
   <v>       0.73808000       0.47817000       0.21624000 </v>
  </varray>
 </structure>
 <calculation>
  <scstep>
   <time name="total">   35.77   36.06</time>
   <energy>
    <i name="alphaZ">    499.87096680 </i>
    <i name="ewald">  -8967.14088131 </i>
    <i name="hartreedc">  -3245.07622764 </i>
    <i name="XCdc">    453.02017754 </i>
    <i name="pawpsdc">   9666.54758295 </i>
    <i name="pawaedc">  -9560.21215315 </i>
    <i name="eentropy">     -0.00103723 </i>
    <i name="bandstr">    229.90786394 </i>
    <i name="atom">  12140.56680252 </i>
    <i name="e_fr_energy">   1217.48309441 </i>
    <i name="e_wo_entrp">   1217.48413165 </i>
    <i name="e_0_energy">   1217.48361303 </i>
   </energy>
  </scstep>
  <scstep>
   <time name="total">   37.16   38.06</time>
   <energy>
    <i name="e_fr_energy">   -174.54376115 </i>
    <i name="e_wo_entrp">   -174.54240851 </i>
    <i name="e_0_energy">   -174.54308483 </i>
   </energy>
  </scstep>
  <scstep>
   <time name="total">   41.31   42.06</time>
   <energy>
    <i name="e_fr_energy">   -234.06684524 </i>
    <i name="e_wo_entrp">   -234.06564928 </i>
    <i name="e_0_energy">   -234.06624726 </i>
   </energy>
  </scstep>
  <scstep>
   <time name="total">   39.94   40.68</time>
   <energy>
    <i name="e_fr_energy">   -235.24507558 </i>
    <i name="e_wo_entrp">   -235.24369497 </i>
    <i name="e_0_energy">   -235.24438527 </i>
   </energy>
  </scstep>
  <scstep>
   <time name="total">   43.07   43.85</time>
   <energy>
    <i name="e_fr_energy">   -235.26950835 </i>
    <i name="e_wo_entrp">   -235.26813019 </i>
    <i name="e_0_energy">   -235.26881927 </i>
   </energy>
  </scstep>
  <scstep>
   <time name="total">   43.25   43.68</time>
   <energy>
    <i name="e_fr_energy">   -145.67218550 </i>
    <i name="e_wo_entrp">   -145.67030034 </i>
    <i name="e_0_energy">   -145.67124292 </i>
   </energy>
  </scstep>
  <scstep>
   <time name="total">   48.45   48.81</time>
   <energy>
    <i name="e_fr_energy">   -181.37808334 </i>
    <i name="e_wo_entrp">   -181.37633580 </i>
    <i name="e_0_energy">   -181.37720957 </i>
   </energy>
  </scstep>
  <scstep>
   <time name="total">   48.71   49.21</time>
   <energy>
    <i name="e_fr_energy">   -185.19939884 </i>
    <i name="e_wo_entrp">   -185.19800529 </i>
    <i name="e_0_energy">   -185.19870206 </i>
   </energy>
  </scstep>
  <scstep>
   <time name="total">   48.99   49.34</time>
   <energy>
    <i name="e_fr_energy">   -186.55023931 </i>
    <i name="e_wo_entrp">   -186.54803849 </i>
    <i name="e_0_energy">   -186.54913890 </i>
   </energy>
  </scstep>
  <scstep>
   <time name="total">   45.46   46.07</time>
   <energy>
    <i name="e_fr_energy">   -186.95662317 </i>
    <i name="e_wo_entrp">   -186.95416543 </i>
    <i name="e_0_energy">   -186.95539430 </i>
   </energy>
  </scstep>
  <scstep>
   <time name="total">   47.84   48.70</time>
   <energy>
    <i name="e_fr_energy">   -187.10933355 </i>
    <i name="e_wo_entrp">   -187.10681611 </i>
    <i name="e_0_energy">   -187.10807483 </i>
   </energy>
  </scstep>
  <scstep>
   <time name="total">   49.94   50.63</time>
   <energy>
    <i name="e_fr_energy">   -187.16867913 </i>
    <i name="e_wo_entrp">   -187.16612168 </i>
    <i name="e_0_energy">   -187.16740040 </i>
   </energy>
  </scstep>
  <scstep>
   <time name="total">   54.29   55.00</time>
   <energy>
    <i name="e_fr_energy">   -187.19354333 </i>
    <i name="e_wo_entrp">   -187.19095216 </i>
    <i name="e_0_energy">   -187.19224775 </i>
   </energy>
  </scstep>
  <scstep>
   <time name="total">   52.37   53.06</time>
   <energy>
    <i name="e_fr_energy">   -187.20463475 </i>
    <i name="e_wo_entrp">   -187.20210843 </i>
    <i name="e_0_energy">   -187.20337159 </i>
   </energy>
  </scstep>
  <scstep>
   <time name="total">   46.19   46.70</time>
   <energy>
    <i name="e_fr_energy">   -187.20898007 </i>
    <i name="e_wo_entrp">   -187.20653410 </i>
    <i name="e_0_energy">   -187.20775708 </i>
   </energy>
  </scstep>
  <scstep>
   <time name="total">   48.14   48.85</time>
   <energy>
    <i name="e_fr_energy">   -187.21071760 </i>
    <i name="e_wo_entrp">   -187.20831724 </i>
    <i name="e_0_energy">   -187.20951742 </i>
   </energy>
  </scstep>
  <scstep>
   <time name="total">   47.77   48.29</time>
   <energy>
    <i name="e_fr_energy">   -187.21137612 </i>
    <i name="e_wo_entrp">   -187.20900899 </i>
    <i name="e_0_energy">   -187.21019256 </i>
   </energy>
  </scstep>
  <scstep>
   <time name="total">   49.35   49.82</time>
   <energy>
    <i name="e_fr_energy">   -187.21159857 </i>
    <i name="e_wo_entrp">   -187.20925724 </i>
    <i name="e_0_energy">   -187.21042791 </i>
   </energy>
  </scstep>
  <scstep>
   <time name="total">   51.64   52.82</time>
   <energy>
    <i name="e_fr_energy">   -187.21168299 </i>
    <i name="e_wo_entrp">   -187.20935379 </i>
    <i name="e_0_energy">   -187.21051839 </i>
   </energy>
  </scstep>
  <scstep>
   <time name="total">   47.40   47.87</time>
   <energy>
    <i name="e_fr_energy">   -187.21171096 </i>
    <i name="e_wo_entrp">   -187.20938842 </i>
    <i name="e_0_energy">   -187.21054969 </i>
   </energy>
  </scstep>
  <scstep>
   <time name="total">   45.92   46.26</time>
   <energy>
    <i name="e_fr_energy">   -187.21172058 </i>
    <i name="e_wo_entrp">   -187.20940232 </i>
    <i name="e_0_energy">   -187.21056145 </i>
   </energy>
  </scstep>
  <scstep>
   <time name="total">   47.62   47.96</time>
   <energy>
    <i name="e_fr_energy">   -187.21172484 </i>
    <i name="e_wo_entrp">   -187.20940959 </i>
    <i name="e_0_energy">   -187.21056721 </i>
   </energy>
  </scstep>
  <scstep>
   <time name="total">   47.83   48.19</time>
   <energy>
    <i name="e_fr_energy">   -187.21172627 </i>
    <i name="e_wo_entrp">   -187.20941141 </i>
    <i name="e_0_energy">   -187.21056884 </i>
   </energy>
  </scstep>
  <scstep>
   <time name="total">   47.98   48.51</time>
   <energy>
    <i name="e_fr_energy">   -187.21172668 </i>
    <i name="e_wo_entrp">   -187.20941193 </i>
    <i name="e_0_energy">   -187.21056930 </i>
   </energy>
  </scstep>
  <scstep>
   <time name="total">   49.49   50.25</time>
   <energy>
    <i name="e_fr_energy">   -187.21172691 </i>
    <i name="e_wo_entrp">   -187.20941220 </i>
    <i name="e_0_energy">   -187.21056955 </i>
   </energy>
  </scstep>
  <scstep>
   <time name="total">   81.03   82.38</time>
   <energy>
    <i name="e_fr_energy">   -187.21172702 </i>
    <i name="e_wo_entrp">   -187.20941071 </i>
    <i name="e_0_energy">   -187.21056886 </i>
   </energy>
  </scstep>
  <scstep>
   <time name="total">   47.32   48.25</time>
   <energy>
    <i name="e_fr_energy">   -187.21172617 </i>
    <i name="e_wo_entrp">   -187.20941004 </i>
    <i name="e_0_energy">   -187.21056810 </i>
   </energy>
  </scstep>
  <scstep>
   <time name="total">   46.65   47.04</time>
   <energy>
    <i name="e_fr_energy">   -187.21172678 </i>
    <i name="e_wo_entrp">   -187.20941055 </i>
    <i name="e_0_energy">   -187.21056866 </i>
   </energy>
  </scstep>
  <scstep>
   <time name="total">   50.20   50.59</time>
   <energy>
    <i name="e_fr_energy">   -187.21172707 </i>
    <i name="e_wo_entrp">   -187.20941133 </i>
    <i name="e_0_energy">   -187.21056920 </i>
   </energy>
  </scstep>
  <scstep>
   <time name="total">   46.41   46.75</time>
   <energy>
    <i name="e_fr_energy">   -187.21172715 </i>
    <i name="e_wo_entrp">   -187.20941125 </i>
    <i name="e_0_energy">   -187.21056920 </i>
   </energy>
  </scstep>
  <scstep>
   <time name="total">   45.20   45.59</time>
   <energy>
    <i name="e_fr_energy">   -187.21172716 </i>
    <i name="e_wo_entrp">   -187.20941125 </i>
    <i name="e_0_energy">   -187.21056921 </i>
   </energy>
  </scstep>
  <scstep>
   <time name="total">   44.92   45.75</time>
   <energy>
    <i name="e_fr_energy">   -187.21172716 </i>
    <i name="e_wo_entrp">   -187.20941126 </i>
    <i name="e_0_energy">   -187.21056921 </i>
   </energy>
  </scstep>
  <scstep>
   <time name="total">   45.63   46.01</time>
   <energy>
    <i name="e_fr_energy">   -187.21172716 </i>
    <i name="e_wo_entrp">   -187.20941126 </i>
    <i name="e_0_energy">   -187.21056921 </i>
   </energy>
  </scstep>
  <scstep>
   <time name="total">   54.27   54.85</time>
   <energy>
    <i name="alphaZ">    499.87096680 </i>
    <i name="ewald">  -8967.14088131 </i>
    <i name="hartreedc">  -3265.62306792 </i>
    <i name="XCdc">    472.76064108 </i>
    <i name="pawpsdc">  26503.88196513 </i>
    <i name="pawaedc"> -26405.40547444 </i>
    <i name="eentropy">     -0.00231589 </i>
    <i name="bandstr">  -1166.12036311 </i>
    <i name="atom">  12140.56680252 </i>
    <i name="e_fr_energy">   -187.21172716 </i>
    <i name="e_wo_entrp">   -187.20941127 </i>
    <i name="e_0_energy">   -187.21056921 </i>
   </energy>
  </scstep>
  <structure>
   <crystal>
    <varray name="basis" >
     <v>       6.25626346       0.00000000      -2.08057549 </v>
     <v>      -3.25489410       5.34289219      -2.08057549 </v>
     <v>       0.00000000       0.00000000       6.59315000 </v>
    </varray>
    <i name="volume">    220.38619994 </i>
    <varray name="rec_basis" >
     <v>       0.15983982       0.09737454       0.00000000 </v>
     <v>       0.00000000       0.18716455       0.00000000 </v>
     <v>       0.05044005       0.08979093       0.15167257 </v>
    </varray>
   </crystal>
   <varray name="positions" >
    <v>       0.00000000       0.50000000       0.50000000 </v>
    <v>       0.50000000       0.00000000       0.50000000 </v>
    <v>       0.25000000       0.25000000       0.00000000 </v>
    <v>       0.74602000       0.24602000       0.99204000 </v>
    <v>       0.75000000       0.75000000       0.00000000 </v>
    <v>       0.25398000       0.75398000       0.00796000 </v>
    <v>       0.24602000       0.25398000       0.50000000 </v>
    <v>       0.75398000       0.74602000       0.50000000 </v>
    <v>       0.97817000       0.23808000       0.21624000 </v>
    <v>       0.02183000       0.76192000       0.78376000 </v>
    <v>       0.23808000       0.02183000       0.25991000 </v>
    <v>       0.76192000       0.97817000       0.74009000 </v>
    <v>       0.52183000       0.73808000       0.25991000 </v>
    <v>       0.47817000       0.26192000       0.74009000 </v>
    <v>       0.26192000       0.52183000       0.78376000 </v>
    <v>       0.73808000       0.47817000       0.21624000 </v>
   </varray>
  </structure>
  <varray name="forces" >
   <v>       0.00000000       0.00000000       0.00000000 </v>
   <v>       0.00000000       0.00000000       0.00000000 </v>
   <v>       0.00000000       0.00000000       0.00000000 </v>
   <v>       0.00000000       0.00000000       0.00000000 </v>
   <v>       0.00000000       0.00000000       0.00000000 </v>
   <v>       0.00000000       0.00000000       0.00000000 </v>
   <v>       0.00000000       0.00000000       0.00000000 </v>
   <v>       0.00000000       0.00000000       0.00000000 </v>
   <v>       0.00000000       0.00000000       0.00000000 </v>
   <v>       0.00000000       0.00000000       0.00000000 </v>
   <v>       0.00000000       0.00000000       0.00000000 </v>
   <v>       0.00000000       0.00000000       0.00000000 </v>
   <v>       0.00000000       0.00000000       0.00000000 </v>
   <v>       0.00000000       0.00000000       0.00000000 </v>
   <v>       0.00000000       0.00000000       0.00000000 </v>
   <v>       0.00000000       0.00000000       0.00000000 </v>
  </varray>
  <varray name="stress" >
   <v>       0.00000000       0.00000000       0.00000000 </v>
   <v>       0.00000000       0.00000000       0.00000000 </v>
   <v>       0.00000000       0.00000000       0.00000000 </v>
  </varray>
  <energy>
   <i name="e_fr_energy">   -187.21172716 </i>
   <i name="e_wo_entrp">   -187.20941127 </i>
   <i name="e_0_energy">   -187.21056921 </i>
  </energy>
  <time name="totalsc"> 1632.35 1652.91</time>
  <eigenvalues>
   <array>
    <dimension dim="1">band</dimension>
    <dimension dim="2">kpoint</dimension>
    <dimension dim="3">spin</dimension>
    <field>eigene</field>
    <field>occ</field>
    <set>
     <set comment="spin 1">
      <set comment="kpoint 1">
       <r>  -52.3124    1.0000 </r>
       <r>  -52.3079    1.0000 </r>
       <r>  -51.8987    1.0000 </r>
       <r>  -51.8858    1.0000 </r>
       <r>  -51.8858    1.0000 </r>
       <r>  -51.8762    1.0000 </r>
       <r>  -26.7078    1.0000 </r>
       <r>  -26.6342    1.0000 </r>
       <r>  -26.6341    1.0000 </r>
       <r>  -26.5197    1.0000 </r>
       <r>  -26.4410    1.0000 </r>
       <r>  -26.3664    1.0000 </r>
       <r>  -26.3664    1.0000 </r>
       <r>  -26.3176    1.0000 </r>
       <r>  -25.9389    1.0000 </r>
       <r>  -25.9207    1.0000 </r>
       <r>  -25.6557    1.0000 </r>
       <r>  -25.6557    1.0000 </r>
       <r>  -25.6254    1.0000 </r>
       <r>  -25.6254    1.0000 </r>
       <r>  -24.7731    1.0000 </r>
       <r>  -24.7730    1.0000 </r>
       <r>  -24.7372    1.0000 </r>
       <r>  -24.7340    1.0000 </r>
       <r>   -3.2731    1.0000 </r>
       <r>   -0.8409    1.0000 </r>
       <r>   -0.4886    1.0000 </r>
       <r>   -0.2456    1.0000 </r>
       <r>   -0.2455    1.0000 </r>
       <r>    1.5022    1.0000 </r>
       <r>    1.9009    1.0000 </r>
       <r>    2.0592    1.0000 </r>
       <r>    2.0593    1.0000 </r>
       <r>    3.0812    1.0000 </r>
       <r>    3.0815    1.0000 </r>
       <r>    3.8361    1.0000 </r>
       <r>    3.9139    1.0000 </r>
       <r>    4.8573    1.0000 </r>
       <r>    5.2476    1.0000 </r>
       <r>    5.2477    1.0000 </r>
       <r>    5.3968    1.0000 </r>
       <r>    5.6914    1.0000 </r>
       <r>    5.6916    1.0000 </r>
       <r>    6.3719    1.0000 </r>
       <r>    6.5625    1.0000 </r>
       <r>    6.5625    1.0000 </r>
       <r>    6.7067    1.0000 </r>
       <r>    6.7544    1.0000 </r>
       <r>    7.1581    1.0000 </r>
       <r>    7.1581    1.0000 </r>
       <r>    7.7036    1.0000 </r>
       <r>    8.2643    1.0000 </r>
       <r>    8.6799    1.0000 </r>
       <r>    8.6800    1.0000 </r>
       <r>    8.7275    1.0000 </r>
       <r>    9.1656    1.0000 </r>
       <r>    9.4680    1.0000 </r>
       <r>    9.6032    1.0000 </r>
       <r>   10.2892    0.0000 </r>
       <r>   10.2893    0.0000 </r>
       <r>   10.4404    0.0000 </r>
       <r>   10.5218    0.0000 </r>
       <r>   10.5901    0.0000 </r>
       <r>   10.8335    0.0000 </r>
       <r>   11.3967    0.0000 </r>
       <r>   11.3968    0.0000 </r>
       <r>   11.6131    0.0000 </r>
       <r>   12.1833    0.0000 </r>
       <r>   12.2518    0.0000 </r>
       <r>   12.3160    0.0000 </r>
       <r>   12.3185    0.0000 </r>
       <r>   12.8070    0.0000 </r>
       <r>   12.9597    0.0000 </r>
       <r>   13.9866    0.0000 </r>
       <r>   14.0446    0.0000 </r>
       <r>   14.1224    0.0000 </r>
       <r>   14.6052    0.0000 </r>
       <r>   14.6648    0.0000 </r>
      </set>
      <set comment="kpoint 2">
       <r>  -52.3122    1.0000 </r>
       <r>  -52.3081    1.0000 </r>
       <r>  -51.8981    1.0000 </r>
       <r>  -51.8865    1.0000 </r>
       <r>  -51.8854    1.0000 </r>
       <r>  -51.8767    1.0000 </r>
       <r>  -26.7003    1.0000 </r>
       <r>  -26.6338    1.0000 </r>
       <r>  -26.6270    1.0000 </r>
       <r>  -26.5235    1.0000 </r>
       <r>  -26.4382    1.0000 </r>
       <r>  -26.3709    1.0000 </r>
       <r>  -26.3646    1.0000 </r>
       <r>  -26.3208    1.0000 </r>
       <r>  -25.9400    1.0000 </r>
       <r>  -25.9239    1.0000 </r>
       <r>  -25.6548    1.0000 </r>
       <r>  -25.6548    1.0000 </r>
       <r>  -25.6276    1.0000 </r>
       <r>  -25.6274    1.0000 </r>
       <r>  -24.7721    1.0000 </r>
       <r>  -24.7719    1.0000 </r>
       <r>  -24.7396    1.0000 </r>
       <r>  -24.7369    1.0000 </r>
       <r>   -3.1811    1.0000 </r>
       <r>   -1.0934    1.0000 </r>
       <r>   -0.4491    1.0000 </r>
       <r>   -0.1706    1.0000 </r>
       <r>   -0.0636    1.0000 </r>
       <r>    1.5025    1.0000 </r>
       <r>    1.7160    1.0000 </r>
       <r>    1.9079    1.0000 </r>
       <r>    2.1451    1.0000 </r>
       <r>    2.9978    1.0000 </r>
       <r>    3.1440    1.0000 </r>
       <r>    4.0158    1.0000 </r>
       <r>    4.0417    1.0000 </r>
       <r>    4.8689    1.0000 </r>
       <r>    5.1935    1.0000 </r>
       <r>    5.2500    1.0000 </r>
       <r>    5.4156    1.0000 </r>
       <r>    5.6371    1.0000 </r>
       <r>    5.7016    1.0000 </r>
       <r>    6.2241    1.0000 </r>
       <r>    6.2635    1.0000 </r>
       <r>    6.5849    1.0000 </r>
       <r>    6.6307    1.0000 </r>
       <r>    7.0640    1.0000 </r>
       <r>    7.1186    1.0000 </r>
       <r>    7.2025    1.0000 </r>
       <r>    7.7278    1.0000 </r>
       <r>    8.2934    1.0000 </r>
       <r>    8.6341    1.0000 </r>
       <r>    8.6926    1.0000 </r>
       <r>    8.9043    1.0000 </r>
       <r>    9.3178    1.0000 </r>
       <r>    9.3778    1.0000 </r>
       <r>    9.4541    1.0000 </r>
       <r>    9.9896    1.0000 </r>
       <r>   10.1397    0.9982 </r>
       <r>   10.2162    0.0063 </r>
       <r>   10.5114    0.0000 </r>
       <r>   10.8180    0.0000 </r>
       <r>   11.1493    0.0000 </r>
       <r>   11.4027    0.0000 </r>
       <r>   11.4258    0.0000 </r>
       <r>   11.5917    0.0000 </r>
       <r>   11.8312    0.0000 </r>
       <r>   12.0181    0.0000 </r>
       <r>   12.3609    0.0000 </r>
       <r>   12.4674    0.0000 </r>
       <r>   12.8933    0.0000 </r>
       <r>   13.1370    0.0000 </r>
       <r>   13.8967    0.0000 </r>
       <r>   14.0887    0.0000 </r>
       <r>   14.1461    0.0000 </r>
       <r>   14.5570    0.0000 </r>
       <r>   14.9012    0.0000 </r>
      </set>
      <set comment="kpoint 3">
       <r>  -52.3122    1.0000 </r>
       <r>  -52.3081    1.0000 </r>
       <r>  -51.8981    1.0000 </r>
       <r>  -51.8865    1.0000 </r>
       <r>  -51.8854    1.0000 </r>
       <r>  -51.8767    1.0000 </r>
       <r>  -26.7003    1.0000 </r>
       <r>  -26.6338    1.0000 </r>
       <r>  -26.6270    1.0000 </r>
       <r>  -26.5235    1.0000 </r>
       <r>  -26.4382    1.0000 </r>
       <r>  -26.3709    1.0000 </r>
       <r>  -26.3646    1.0000 </r>
       <r>  -26.3208    1.0000 </r>
       <r>  -25.9400    1.0000 </r>
       <r>  -25.9239    1.0000 </r>
       <r>  -25.6548    1.0000 </r>
       <r>  -25.6548    1.0000 </r>
       <r>  -25.6276    1.0000 </r>
       <r>  -25.6274    1.0000 </r>
       <r>  -24.7721    1.0000 </r>
       <r>  -24.7719    1.0000 </r>
       <r>  -24.7396    1.0000 </r>
       <r>  -24.7369    1.0000 </r>
       <r>   -3.1811    1.0000 </r>
       <r>   -1.0934    1.0000 </r>
       <r>   -0.4491    1.0000 </r>
       <r>   -0.1706    1.0000 </r>
       <r>   -0.0636    1.0000 </r>
       <r>    1.5025    1.0000 </r>
       <r>    1.7160    1.0000 </r>
       <r>    1.9079    1.0000 </r>
       <r>    2.1451    1.0000 </r>
       <r>    2.9978    1.0000 </r>
       <r>    3.1440    1.0000 </r>
       <r>    4.0158    1.0000 </r>
       <r>    4.0417    1.0000 </r>
       <r>    4.8689    1.0000 </r>
       <r>    5.1935    1.0000 </r>
       <r>    5.2500    1.0000 </r>
       <r>    5.4156    1.0000 </r>
       <r>    5.6371    1.0000 </r>
       <r>    5.7016    1.0000 </r>
       <r>    6.2240    1.0000 </r>
       <r>    6.2635    1.0000 </r>
       <r>    6.5850    1.0000 </r>
       <r>    6.6307    1.0000 </r>
       <r>    7.0641    1.0000 </r>
       <r>    7.1186    1.0000 </r>
       <r>    7.2025    1.0000 </r>
       <r>    7.7278    1.0000 </r>
       <r>    8.2934    1.0000 </r>
       <r>    8.6341    1.0000 </r>
       <r>    8.6926    1.0000 </r>
       <r>    8.9043    1.0000 </r>
       <r>    9.3178    1.0000 </r>
       <r>    9.3779    1.0000 </r>
       <r>    9.4541    1.0000 </r>
       <r>    9.9896    1.0000 </r>
       <r>   10.1397    0.9982 </r>
       <r>   10.2162    0.0062 </r>
       <r>   10.5114    0.0000 </r>
       <r>   10.8180    0.0000 </r>
       <r>   11.1493    0.0000 </r>
       <r>   11.4027    0.0000 </r>
       <r>   11.4258    0.0000 </r>
       <r>   11.5917    0.0000 </r>
       <r>   11.8312    0.0000 </r>
       <r>   12.0182    0.0000 </r>
       <r>   12.3609    0.0000 </r>
       <r>   12.4674    0.0000 </r>
       <r>   12.8928    0.0000 </r>
       <r>   13.1370    0.0000 </r>
       <r>   13.8884    0.0000 </r>
       <r>   14.0898    0.0000 </r>
       <r>   14.1509    0.0000 </r>
       <r>   14.5579    0.0000 </r>
       <r>   14.9072    0.0000 </r>
      </set>
      <set comment="kpoint 4">
       <r>  -52.3114    1.0000 </r>
       <r>  -52.3086    1.0000 </r>
       <r>  -51.8964    1.0000 </r>
       <r>  -51.8885    1.0000 </r>
       <r>  -51.8840    1.0000 </r>
       <r>  -51.8780    1.0000 </r>
       <r>  -26.6813    1.0000 </r>
       <r>  -26.6350    1.0000 </r>
       <r>  -26.6075    1.0000 </r>
       <r>  -26.5354    1.0000 </r>
       <r>  -26.4299    1.0000 </r>
       <r>  -26.3831    1.0000 </r>
       <r>  -26.3593    1.0000 </r>
       <r>  -26.3293    1.0000 </r>
       <r>  -25.9422    1.0000 </r>
       <r>  -25.9315    1.0000 </r>
       <r>  -25.6521    1.0000 </r>
       <r>  -25.6520    1.0000 </r>
       <r>  -25.6333    1.0000 </r>
       <r>  -25.6329    1.0000 </r>
       <r>  -24.7690    1.0000 </r>
       <r>  -24.7684    1.0000 </r>
       <r>  -24.7460    1.0000 </r>
       <r>  -24.7446    1.0000 </r>
       <r>   -2.9175    1.0000 </r>
       <r>   -1.5459    1.0000 </r>
       <r>   -0.3323    1.0000 </r>
       <r>    0.0489    1.0000 </r>
       <r>    0.1134    1.0000 </r>
       <r>    1.3226    1.0000 </r>
       <r>    1.5183    1.0000 </r>
       <r>    1.6264    1.0000 </r>
       <r>    2.3477    1.0000 </r>
       <r>    2.8573    1.0000 </r>
       <r>    3.3291    1.0000 </r>
       <r>    4.3752    1.0000 </r>
       <r>    4.4314    1.0000 </r>
       <r>    4.5625    1.0000 </r>
       <r>    5.1012    1.0000 </r>
       <r>    5.2285    1.0000 </r>
       <r>    5.3771    1.0000 </r>
       <r>    5.4535    1.0000 </r>
       <r>    5.8319    1.0000 </r>
       <r>    5.8507    1.0000 </r>
       <r>    6.0900    1.0000 </r>
       <r>    6.3885    1.0000 </r>
       <r>    6.6626    1.0000 </r>
       <r>    7.0644    1.0000 </r>
       <r>    7.2743    1.0000 </r>
       <r>    7.7444    1.0000 </r>
       <r>    7.7729    1.0000 </r>
       <r>    8.3172    1.0000 </r>
       <r>    8.6382    1.0000 </r>
       <r>    8.6936    1.0000 </r>
       <r>    9.0015    1.0000 </r>
       <r>    9.2800    1.0000 </r>
       <r>    9.3283    1.0000 </r>
       <r>    9.3767    1.0000 </r>
       <r>    9.6097    1.0000 </r>
       <r>    9.7758    1.0000 </r>
       <r>   10.0635    1.0000 </r>
       <r>   10.4212    0.0000 </r>
       <r>   10.8437    0.0000 </r>
       <r>   11.1230    0.0000 </r>
       <r>   11.2423    0.0000 </r>
       <r>   11.4648    0.0000 </r>
       <r>   11.5555    0.0000 </r>
       <r>   11.6812    0.0000 </r>
       <r>   12.1850    0.0000 </r>
       <r>   12.6463    0.0000 </r>
       <r>   12.8089    0.0000 </r>
       <r>   12.8265    0.0000 </r>
       <r>   13.0407    0.0000 </r>
       <r>   14.0362    0.0000 </r>
       <r>   14.1956    0.0000 </r>
       <r>   14.2221    0.0000 </r>
       <r>   14.3168    0.0000 </r>
       <r>   14.7786    0.0000 </r>
      </set>
      <set comment="kpoint 5">
       <r>  -52.3114    1.0000 </r>
       <r>  -52.3086    1.0000 </r>
       <r>  -51.8964    1.0000 </r>
       <r>  -51.8885    1.0000 </r>
       <r>  -51.8840    1.0000 </r>
       <r>  -51.8780    1.0000 </r>
       <r>  -26.6813    1.0000 </r>
       <r>  -26.6350    1.0000 </r>
       <r>  -26.6075    1.0000 </r>
       <r>  -26.5354    1.0000 </r>
       <r>  -26.4299    1.0000 </r>
       <r>  -26.3831    1.0000 </r>
       <r>  -26.3593    1.0000 </r>
       <r>  -26.3293    1.0000 </r>
       <r>  -25.9422    1.0000 </r>
       <r>  -25.9315    1.0000 </r>
       <r>  -25.6521    1.0000 </r>
       <r>  -25.6520    1.0000 </r>
       <r>  -25.6333    1.0000 </r>
       <r>  -25.6329    1.0000 </r>
       <r>  -24.7690    1.0000 </r>
       <r>  -24.7684    1.0000 </r>
       <r>  -24.7460    1.0000 </r>
       <r>  -24.7446    1.0000 </r>
       <r>   -2.9175    1.0000 </r>
       <r>   -1.5459    1.0000 </r>
       <r>   -0.3323    1.0000 </r>
       <r>    0.0489    1.0000 </r>
       <r>    0.1134    1.0000 </r>
       <r>    1.3226    1.0000 </r>
       <r>    1.5183    1.0000 </r>
       <r>    1.6264    1.0000 </r>
       <r>    2.3477    1.0000 </r>
       <r>    2.8573    1.0000 </r>
       <r>    3.3291    1.0000 </r>
       <r>    4.3752    1.0000 </r>
       <r>    4.4314    1.0000 </r>
       <r>    4.5626    1.0000 </r>
       <r>    5.1012    1.0000 </r>
       <r>    5.2285    1.0000 </r>
       <r>    5.3771    1.0000 </r>
       <r>    5.4535    1.0000 </r>
       <r>    5.8319    1.0000 </r>
       <r>    5.8507    1.0000 </r>
       <r>    6.0900    1.0000 </r>
       <r>    6.3885    1.0000 </r>
       <r>    6.6626    1.0000 </r>
       <r>    7.0644    1.0000 </r>
       <r>    7.2744    1.0000 </r>
       <r>    7.7444    1.0000 </r>
       <r>    7.7728    1.0000 </r>
       <r>    8.3172    1.0000 </r>
       <r>    8.6381    1.0000 </r>
       <r>    8.6936    1.0000 </r>
       <r>    9.0015    1.0000 </r>
       <r>    9.2801    1.0000 </r>
       <r>    9.3283    1.0000 </r>
       <r>    9.3767    1.0000 </r>
       <r>    9.6097    1.0000 </r>
       <r>    9.7758    1.0000 </r>
       <r>   10.0635    1.0000 </r>
       <r>   10.4212    0.0000 </r>
       <r>   10.8437    0.0000 </r>
       <r>   11.1230    0.0000 </r>
       <r>   11.2423    0.0000 </r>
       <r>   11.4648    0.0000 </r>
       <r>   11.5555    0.0000 </r>
       <r>   11.6812    0.0000 </r>
       <r>   12.1850    0.0000 </r>
       <r>   12.6463    0.0000 </r>
       <r>   12.8088    0.0000 </r>
       <r>   12.8265    0.0000 </r>
       <r>   13.0408    0.0000 </r>
       <r>   14.0292    0.0000 </r>
       <r>   14.1982    0.0000 </r>
       <r>   14.2270    0.0000 </r>
       <r>   14.3398    0.0000 </r>
       <r>   14.7269    0.0000 </r>
      </set>
      <set comment="kpoint 6">
       <r>  -52.3104    1.0000 </r>
       <r>  -52.3094    1.0000 </r>
       <r>  -51.8940    1.0000 </r>
       <r>  -51.8911    1.0000 </r>
       <r>  -51.8821    1.0000 </r>
       <r>  -51.8800    1.0000 </r>
       <r>  -26.6591    1.0000 </r>
       <r>  -26.6424    1.0000 </r>
       <r>  -26.5814    1.0000 </r>
       <r>  -26.5555    1.0000 </r>
       <r>  -26.4166    1.0000 </r>
       <r>  -26.3999    1.0000 </r>
       <r>  -26.3509    1.0000 </r>
       <r>  -26.3403    1.0000 </r>
       <r>  -25.9428    1.0000 </r>
       <r>  -25.9391    1.0000 </r>
       <r>  -25.6473    1.0000 </r>
       <r>  -25.6469    1.0000 </r>
       <r>  -25.6406    1.0000 </r>
       <r>  -25.6400    1.0000 </r>
       <r>  -24.7630    1.0000 </r>
       <r>  -24.7624    1.0000 </r>
       <r>  -24.7544    1.0000 </r>
       <r>  -24.7543    1.0000 </r>
       <r>   -2.5189    1.0000 </r>
       <r>   -2.0410    1.0000 </r>
       <r>   -0.1488    1.0000 </r>
       <r>    0.0501    1.0000 </r>
       <r>    0.3972    1.0000 </r>
       <r>    0.8441    1.0000 </r>
       <r>    1.5361    1.0000 </r>
       <r>    1.5383    1.0000 </r>
       <r>    2.5616    1.0000 </r>
       <r>    2.7210    1.0000 </r>
       <r>    3.6334    1.0000 </r>
       <r>    4.0527    1.0000 </r>
       <r>    4.8764    1.0000 </r>
       <r>    4.9475    1.0000 </r>
       <r>    5.0256    1.0000 </r>
       <r>    5.0675    1.0000 </r>
       <r>    5.3402    1.0000 </r>
       <r>    5.3658    1.0000 </r>
       <r>    5.4463    1.0000 </r>
       <r>    5.4996    1.0000 </r>
       <r>    5.9921    1.0000 </r>
       <r>    6.1705    1.0000 </r>
       <r>    7.1060    1.0000 </r>
       <r>    7.2309    1.0000 </r>
       <r>    7.3578    1.0000 </r>
       <r>    7.7713    1.0000 </r>
       <r>    8.1383    1.0000 </r>
       <r>    8.3486    1.0000 </r>
       <r>    8.6546    1.0000 </r>
       <r>    8.7942    1.0000 </r>
       <r>    8.8333    1.0000 </r>
       <r>    9.0886    1.0000 </r>
       <r>    9.1572    1.0000 </r>
       <r>    9.4112    1.0000 </r>
       <r>    9.5919    1.0000 </r>
       <r>    9.7493    1.0000 </r>
       <r>    9.8828    1.0000 </r>
       <r>    9.8968    1.0000 </r>
       <r>   10.6052    0.0000 </r>
       <r>   10.9149    0.0000 </r>
       <r>   11.3341    0.0000 </r>
       <r>   11.5055    0.0000 </r>
       <r>   11.5619    0.0000 </r>
       <r>   11.5996    0.0000 </r>
       <r>   12.7330    0.0000 </r>
       <r>   12.8381    0.0000 </r>
       <r>   12.9091    0.0000 </r>
       <r>   13.0370    0.0000 </r>
       <r>   13.0938    0.0000 </r>
       <r>   13.6704    0.0000 </r>
       <r>   14.2511    0.0000 </r>
       <r>   14.3283    0.0000 </r>
       <r>   14.4836    0.0000 </r>
       <r>   14.8713    0.0000 </r>
      </set>
      <set comment="kpoint 7">
       <r>  -52.3104    1.0000 </r>
       <r>  -52.3094    1.0000 </r>
       <r>  -51.8940    1.0000 </r>
       <r>  -51.8911    1.0000 </r>
       <r>  -51.8821    1.0000 </r>
       <r>  -51.8800    1.0000 </r>
       <r>  -26.6591    1.0000 </r>
       <r>  -26.6424    1.0000 </r>
       <r>  -26.5814    1.0000 </r>
       <r>  -26.5555    1.0000 </r>
       <r>  -26.4166    1.0000 </r>
       <r>  -26.3999    1.0000 </r>
       <r>  -26.3509    1.0000 </r>
       <r>  -26.3403    1.0000 </r>
       <r>  -25.9428    1.0000 </r>
       <r>  -25.9391    1.0000 </r>
       <r>  -25.6473    1.0000 </r>
       <r>  -25.6469    1.0000 </r>
       <r>  -25.6406    1.0000 </r>
       <r>  -25.6400    1.0000 </r>
       <r>  -24.7630    1.0000 </r>
       <r>  -24.7624    1.0000 </r>
       <r>  -24.7544    1.0000 </r>
       <r>  -24.7543    1.0000 </r>
       <r>   -2.5189    1.0000 </r>
       <r>   -2.0410    1.0000 </r>
       <r>   -0.1488    1.0000 </r>
       <r>    0.0501    1.0000 </r>
       <r>    0.3972    1.0000 </r>
       <r>    0.8442    1.0000 </r>
       <r>    1.5361    1.0000 </r>
       <r>    1.5383    1.0000 </r>
       <r>    2.5615    1.0000 </r>
       <r>    2.7210    1.0000 </r>
       <r>    3.6334    1.0000 </r>
       <r>    4.0527    1.0000 </r>
       <r>    4.8764    1.0000 </r>
       <r>    4.9475    1.0000 </r>
       <r>    5.0256    1.0000 </r>
       <r>    5.0675    1.0000 </r>
       <r>    5.3402    1.0000 </r>
       <r>    5.3658    1.0000 </r>
       <r>    5.4463    1.0000 </r>
       <r>    5.4996    1.0000 </r>
       <r>    5.9921    1.0000 </r>
       <r>    6.1705    1.0000 </r>
       <r>    7.1060    1.0000 </r>
       <r>    7.2309    1.0000 </r>
       <r>    7.3578    1.0000 </r>
       <r>    7.7712    1.0000 </r>
       <r>    8.1383    1.0000 </r>
       <r>    8.3486    1.0000 </r>
       <r>    8.6546    1.0000 </r>
       <r>    8.7942    1.0000 </r>
       <r>    8.8333    1.0000 </r>
       <r>    9.0885    1.0000 </r>
       <r>    9.1572    1.0000 </r>
       <r>    9.4113    1.0000 </r>
       <r>    9.5919    1.0000 </r>
       <r>    9.7493    1.0000 </r>
       <r>    9.8828    1.0000 </r>
       <r>    9.8969    1.0000 </r>
       <r>   10.6052    0.0000 </r>
       <r>   10.9149    0.0000 </r>
       <r>   11.3342    0.0000 </r>
       <r>   11.5055    0.0000 </r>
       <r>   11.5619    0.0000 </r>
       <r>   11.5997    0.0000 </r>
       <r>   12.7331    0.0000 </r>
       <r>   12.8382    0.0000 </r>
       <r>   12.9091    0.0000 </r>
       <r>   13.0370    0.0000 </r>
       <r>   13.0937    0.0000 </r>
       <r>   13.6704    0.0000 </r>
       <r>   14.2535    0.0000 </r>
       <r>   14.3535    0.0000 </r>
       <r>   14.4712    0.0000 </r>
       <r>   14.8575    0.0000 </r>
      </set>
      <set comment="kpoint 8">
       <r>  -52.3115    1.0000 </r>
       <r>  -52.3086    1.0000 </r>
       <r>  -51.8974    1.0000 </r>
       <r>  -51.8863    1.0000 </r>
       <r>  -51.8862    1.0000 </r>
       <r>  -51.8770    1.0000 </r>
       <r>  -26.6898    1.0000 </r>
       <r>  -26.6261    1.0000 </r>
       <r>  -26.6237    1.0000 </r>
       <r>  -26.5281    1.0000 </r>
       <r>  -26.4359    1.0000 </r>
       <r>  -26.3687    1.0000 </r>
       <r>  -26.3686    1.0000 </r>
       <r>  -26.3245    1.0000 </r>
       <r>  -25.9384    1.0000 </r>
       <r>  -25.9329    1.0000 </r>
       <r>  -25.6549    1.0000 </r>
       <r>  -25.6521    1.0000 </r>
       <r>  -25.6330    1.0000 </r>
       <r>  -25.6288    1.0000 </r>
       <r>  -24.7687    1.0000 </r>
       <r>  -24.7667    1.0000 </r>
       <r>  -24.7461    1.0000 </r>
       <r>  -24.7446    1.0000 </r>
       <r>   -3.0351    1.0000 </r>
       <r>   -1.2750    1.0000 </r>
       <r>   -0.3473    1.0000 </r>
       <r>   -0.3079    1.0000 </r>
       <r>    0.1483    1.0000 </r>
       <r>    1.4336    1.0000 </r>
       <r>    1.5680    1.0000 </r>
       <r>    1.8528    1.0000 </r>
       <r>    2.1427    1.0000 </r>
       <r>    3.0279    1.0000 </r>
       <r>    3.1060    1.0000 </r>
       <r>    4.3154    1.0000 </r>
       <r>    4.4020    1.0000 </r>
       <r>    4.6666    1.0000 </r>
       <r>    5.2105    1.0000 </r>
       <r>    5.2509    1.0000 </r>
       <r>    5.4668    1.0000 </r>
       <r>    5.5799    1.0000 </r>
       <r>    5.6540    1.0000 </r>
       <r>    6.0596    1.0000 </r>
       <r>    6.1063    1.0000 </r>
       <r>    6.4769    1.0000 </r>
       <r>    6.6474    1.0000 </r>
       <r>    6.9647    1.0000 </r>
       <r>    7.0686    1.0000 </r>
       <r>    7.3518    1.0000 </r>
       <r>    7.9568    1.0000 </r>
       <r>    8.3119    1.0000 </r>
       <r>    8.3732    1.0000 </r>
       <r>    8.7645    1.0000 </r>
       <r>    9.1024    1.0000 </r>
       <r>    9.1901    1.0000 </r>
       <r>    9.2512    1.0000 </r>
       <r>    9.5619    1.0000 </r>
       <r>    9.6627    1.0000 </r>
       <r>    9.6964    1.0000 </r>
       <r>    9.9236    1.0000 </r>
       <r>   10.4354    0.0000 </r>
       <r>   10.9817    0.0000 </r>
       <r>   11.1597    0.0000 </r>
       <r>   11.4535    0.0000 </r>
       <r>   11.5824    0.0000 </r>
       <r>   11.7709    0.0000 </r>
       <r>   12.0157    0.0000 </r>
       <r>   12.0358    0.0000 </r>
       <r>   12.3333    0.0000 </r>
       <r>   12.4135    0.0000 </r>
       <r>   12.7970    0.0000 </r>
       <r>   13.6022    0.0000 </r>
       <r>   13.6085    0.0000 </r>
       <r>   14.1973    0.0000 </r>
       <r>   14.2199    0.0000 </r>
       <r>   14.5781    0.0000 </r>
       <r>   14.9535    0.0000 </r>
      </set>
      <set comment="kpoint 9">
       <r>  -52.3115    1.0000 </r>
       <r>  -52.3086    1.0000 </r>
       <r>  -51.8974    1.0000 </r>
       <r>  -51.8863    1.0000 </r>
       <r>  -51.8862    1.0000 </r>
       <r>  -51.8770    1.0000 </r>
       <r>  -26.6898    1.0000 </r>
       <r>  -26.6260    1.0000 </r>
       <r>  -26.6239    1.0000 </r>
       <r>  -26.5281    1.0000 </r>
       <r>  -26.4359    1.0000 </r>
       <r>  -26.3687    1.0000 </r>
       <r>  -26.3687    1.0000 </r>
       <r>  -26.3245    1.0000 </r>
       <r>  -25.9384    1.0000 </r>
       <r>  -25.9329    1.0000 </r>
       <r>  -25.6549    1.0000 </r>
       <r>  -25.6521    1.0000 </r>
       <r>  -25.6330    1.0000 </r>
       <r>  -25.6288    1.0000 </r>
       <r>  -24.7687    1.0000 </r>
       <r>  -24.7668    1.0000 </r>
       <r>  -24.7461    1.0000 </r>
       <r>  -24.7446    1.0000 </r>
       <r>   -3.0351    1.0000 </r>
       <r>   -1.2750    1.0000 </r>
       <r>   -0.3472    1.0000 </r>
       <r>   -0.3079    1.0000 </r>
       <r>    0.1483    1.0000 </r>
       <r>    1.4336    1.0000 </r>
       <r>    1.5680    1.0000 </r>
       <r>    1.8528    1.0000 </r>
       <r>    2.1427    1.0000 </r>
       <r>    3.0281    1.0000 </r>
       <r>    3.1057    1.0000 </r>
       <r>    4.3154    1.0000 </r>
       <r>    4.4020    1.0000 </r>
       <r>    4.6666    1.0000 </r>
       <r>    5.2104    1.0000 </r>
       <r>    5.2510    1.0000 </r>
       <r>    5.4669    1.0000 </r>
       <r>    5.5800    1.0000 </r>
       <r>    5.6539    1.0000 </r>
       <r>    6.0596    1.0000 </r>
       <r>    6.1063    1.0000 </r>
       <r>    6.4770    1.0000 </r>
       <r>    6.6473    1.0000 </r>
       <r>    6.9648    1.0000 </r>
       <r>    7.0686    1.0000 </r>
       <r>    7.3518    1.0000 </r>
       <r>    7.9568    1.0000 </r>
       <r>    8.3118    1.0000 </r>
       <r>    8.3732    1.0000 </r>
       <r>    8.7646    1.0000 </r>
       <r>    9.1023    1.0000 </r>
       <r>    9.1902    1.0000 </r>
       <r>    9.2512    1.0000 </r>
       <r>    9.5619    1.0000 </r>
       <r>    9.6627    1.0000 </r>
       <r>    9.6963    1.0000 </r>
       <r>    9.9237    1.0000 </r>
       <r>   10.4354    0.0000 </r>
       <r>   10.9817    0.0000 </r>
       <r>   11.1597    0.0000 </r>
       <r>   11.4535    0.0000 </r>
       <r>   11.5823    0.0000 </r>
       <r>   11.7710    0.0000 </r>
       <r>   12.0157    0.0000 </r>
       <r>   12.0359    0.0000 </r>
       <r>   12.3332    0.0000 </r>
       <r>   12.4135    0.0000 </r>
       <r>   12.7970    0.0000 </r>
       <r>   13.6007    0.0000 </r>
       <r>   13.6067    0.0000 </r>
       <r>   14.1936    0.0000 </r>
       <r>   14.2305    0.0000 </r>
       <r>   14.5334    0.0000 </r>
       <r>   14.9268    0.0000 </r>
      </set>
      <set comment="kpoint 10">
       <r>  -52.3115    1.0000 </r>
       <r>  -52.3086    1.0000 </r>
       <r>  -51.8974    1.0000 </r>
       <r>  -51.8863    1.0000 </r>
       <r>  -51.8862    1.0000 </r>
       <r>  -51.8770    1.0000 </r>
       <r>  -26.6898    1.0000 </r>
       <r>  -26.6261    1.0000 </r>
       <r>  -26.6237    1.0000 </r>
       <r>  -26.5281    1.0000 </r>
       <r>  -26.4359    1.0000 </r>
       <r>  -26.3687    1.0000 </r>
       <r>  -26.3686    1.0000 </r>
       <r>  -26.3245    1.0000 </r>
       <r>  -25.9384    1.0000 </r>
       <r>  -25.9329    1.0000 </r>
       <r>  -25.6549    1.0000 </r>
       <r>  -25.6521    1.0000 </r>
       <r>  -25.6330    1.0000 </r>
       <r>  -25.6288    1.0000 </r>
       <r>  -24.7687    1.0000 </r>
       <r>  -24.7667    1.0000 </r>
       <r>  -24.7461    1.0000 </r>
       <r>  -24.7446    1.0000 </r>
       <r>   -3.0351    1.0000 </r>
       <r>   -1.2750    1.0000 </r>
       <r>   -0.3473    1.0000 </r>
       <r>   -0.3079    1.0000 </r>
       <r>    0.1483    1.0000 </r>
       <r>    1.4336    1.0000 </r>
       <r>    1.5679    1.0000 </r>
       <r>    1.8528    1.0000 </r>
       <r>    2.1427    1.0000 </r>
       <r>    3.0279    1.0000 </r>
       <r>    3.1060    1.0000 </r>
       <r>    4.3154    1.0000 </r>
       <r>    4.4020    1.0000 </r>
       <r>    4.6666    1.0000 </r>
       <r>    5.2105    1.0000 </r>
       <r>    5.2509    1.0000 </r>
       <r>    5.4668    1.0000 </r>
       <r>    5.5799    1.0000 </r>
       <r>    5.6540    1.0000 </r>
       <r>    6.0596    1.0000 </r>
       <r>    6.1063    1.0000 </r>
       <r>    6.4769    1.0000 </r>
       <r>    6.6473    1.0000 </r>
       <r>    6.9647    1.0000 </r>
       <r>    7.0686    1.0000 </r>
       <r>    7.3518    1.0000 </r>
       <r>    7.9568    1.0000 </r>
       <r>    8.3119    1.0000 </r>
       <r>    8.3732    1.0000 </r>
       <r>    8.7645    1.0000 </r>
       <r>    9.1023    1.0000 </r>
       <r>    9.1901    1.0000 </r>
       <r>    9.2512    1.0000 </r>
       <r>    9.5619    1.0000 </r>
       <r>    9.6627    1.0000 </r>
       <r>    9.6964    1.0000 </r>
       <r>    9.9236    1.0000 </r>
       <r>   10.4354    0.0000 </r>
       <r>   10.9818    0.0000 </r>
       <r>   11.1598    0.0000 </r>
       <r>   11.4535    0.0000 </r>
       <r>   11.5823    0.0000 </r>
       <r>   11.7709    0.0000 </r>
       <r>   12.0157    0.0000 </r>
       <r>   12.0358    0.0000 </r>
       <r>   12.3333    0.0000 </r>
       <r>   12.4135    0.0000 </r>
       <r>   12.7971    0.0000 </r>
       <r>   13.6001    0.0000 </r>
       <r>   13.6094    0.0000 </r>
       <r>   14.1958    0.0000 </r>
       <r>   14.2197    0.0000 </r>
       <r>   14.5923    0.0000 </r>
       <r>   14.9484    0.0000 </r>
      </set>
      <set comment="kpoint 11">
       <r>  -52.3105    1.0000 </r>
       <r>  -52.3093    1.0000 </r>
       <r>  -51.8956    1.0000 </r>
       <r>  -51.8883    1.0000 </r>
       <r>  -51.8850    1.0000 </r>
       <r>  -51.8782    1.0000 </r>
       <r>  -26.6705    1.0000 </r>
       <r>  -26.6270    1.0000 </r>
       <r>  -26.6053    1.0000 </r>
       <r>  -26.5411    1.0000 </r>
       <r>  -26.4281    1.0000 </r>
       <r>  -26.3806    1.0000 </r>
       <r>  -26.3630    1.0000 </r>
       <r>  -26.3336    1.0000 </r>
       <r>  -25.9431    1.0000 </r>
       <r>  -25.9371    1.0000 </r>
       <r>  -25.6531    1.0000 </r>
       <r>  -25.6472    1.0000 </r>
       <r>  -25.6402    1.0000 </r>
       <r>  -25.6334    1.0000 </r>
       <r>  -24.7627    1.0000 </r>
       <r>  -24.7602    1.0000 </r>
       <r>  -24.7555    1.0000 </r>
       <r>  -24.7544    1.0000 </r>
       <r>   -2.7388    1.0000 </r>
       <r>   -1.6569    1.0000 </r>
       <r>   -0.3704    1.0000 </r>
       <r>   -0.2091    1.0000 </r>
       <r>    0.3966    1.0000 </r>
       <r>    1.2368    1.0000 </r>
       <r>    1.5862    1.0000 </r>
       <r>    1.6373    1.0000 </r>
       <r>    2.2801    1.0000 </r>
       <r>    2.8858    1.0000 </r>
       <r>    3.2278    1.0000 </r>
       <r>    4.1593    1.0000 </r>
       <r>    4.7844    1.0000 </r>
       <r>    4.8809    1.0000 </r>
       <r>    5.1739    1.0000 </r>
       <r>    5.3002    1.0000 </r>
       <r>    5.3841    1.0000 </r>
       <r>    5.5326    1.0000 </r>
       <r>    5.5739    1.0000 </r>
       <r>    5.6299    1.0000 </r>
       <r>    6.0477    1.0000 </r>
       <r>    6.4962    1.0000 </r>
       <r>    6.6267    1.0000 </r>
       <r>    6.9680    1.0000 </r>
       <r>    7.3062    1.0000 </r>
       <r>    7.6204    1.0000 </r>
       <r>    7.8816    1.0000 </r>
       <r>    8.1191    1.0000 </r>
       <r>    8.5951    1.0000 </r>
       <r>    8.8434    1.0000 </r>
       <r>    9.0401    1.0000 </r>
       <r>    9.1002    1.0000 </r>
       <r>    9.1997    1.0000 </r>
       <r>    9.3911    1.0000 </r>
       <r>    9.5006    1.0000 </r>
       <r>    9.6365    1.0000 </r>
       <r>    9.8384    1.0000 </r>
       <r>   10.2611    0.0000 </r>
       <r>   10.5796    0.0000 </r>
       <r>   11.1759    0.0000 </r>
       <r>   11.2518    0.0000 </r>
       <r>   11.3143    0.0000 </r>
       <r>   11.9979    0.0000 </r>
       <r>   12.0288    0.0000 </r>
       <r>   12.5463    0.0000 </r>
       <r>   12.5948    0.0000 </r>
       <r>   12.6921    0.0000 </r>
       <r>   12.7795    0.0000 </r>
       <r>   13.4688    0.0000 </r>
       <r>   14.0126    0.0000 </r>
       <r>   14.1222    0.0000 </r>
       <r>   14.3662    0.0000 </r>
       <r>   14.5979    0.0000 </r>
       <r>   14.8945    0.0000 </r>
      </set>
      <set comment="kpoint 12">
       <r>  -52.3105    1.0000 </r>
       <r>  -52.3093    1.0000 </r>
       <r>  -51.8956    1.0000 </r>
       <r>  -51.8883    1.0000 </r>
       <r>  -51.8850    1.0000 </r>
       <r>  -51.8782    1.0000 </r>
       <r>  -26.6705    1.0000 </r>
       <r>  -26.6270    1.0000 </r>
       <r>  -26.6053    1.0000 </r>
       <r>  -26.5411    1.0000 </r>
       <r>  -26.4281    1.0000 </r>
       <r>  -26.3806    1.0000 </r>
       <r>  -26.3630    1.0000 </r>
       <r>  -26.3336    1.0000 </r>
       <r>  -25.9431    1.0000 </r>
       <r>  -25.9371    1.0000 </r>
       <r>  -25.6531    1.0000 </r>
       <r>  -25.6472    1.0000 </r>
       <r>  -25.6402    1.0000 </r>
       <r>  -25.6334    1.0000 </r>
       <r>  -24.7627    1.0000 </r>
       <r>  -24.7603    1.0000 </r>
       <r>  -24.7556    1.0000 </r>
       <r>  -24.7543    1.0000 </r>
       <r>   -2.7388    1.0000 </r>
       <r>   -1.6569    1.0000 </r>
       <r>   -0.3704    1.0000 </r>
       <r>   -0.2090    1.0000 </r>
       <r>    0.3966    1.0000 </r>
       <r>    1.2368    1.0000 </r>
       <r>    1.5862    1.0000 </r>
       <r>    1.6373    1.0000 </r>
       <r>    2.2801    1.0000 </r>
       <r>    2.8859    1.0000 </r>
       <r>    3.2278    1.0000 </r>
       <r>    4.1592    1.0000 </r>
       <r>    4.7844    1.0000 </r>
       <r>    4.8809    1.0000 </r>
       <r>    5.1739    1.0000 </r>
       <r>    5.3003    1.0000 </r>
       <r>    5.3841    1.0000 </r>
       <r>    5.5326    1.0000 </r>
       <r>    5.5739    1.0000 </r>
       <r>    5.6298    1.0000 </r>
       <r>    6.0477    1.0000 </r>
       <r>    6.4962    1.0000 </r>
       <r>    6.6267    1.0000 </r>
       <r>    6.9681    1.0000 </r>
       <r>    7.3063    1.0000 </r>
       <r>    7.6204    1.0000 </r>
       <r>    7.8815    1.0000 </r>
       <r>    8.1191    1.0000 </r>
       <r>    8.5951    1.0000 </r>
       <r>    8.8434    1.0000 </r>
       <r>    9.0401    1.0000 </r>
       <r>    9.1002    1.0000 </r>
       <r>    9.1996    1.0000 </r>
       <r>    9.3911    1.0000 </r>
       <r>    9.5006    1.0000 </r>
       <r>    9.6366    1.0000 </r>
       <r>    9.8383    1.0000 </r>
       <r>   10.2611    0.0000 </r>
       <r>   10.5796    0.0000 </r>
       <r>   11.1760    0.0000 </r>
       <r>   11.2518    0.0000 </r>
       <r>   11.3143    0.0000 </r>
       <r>   11.9980    0.0000 </r>
       <r>   12.0288    0.0000 </r>
       <r>   12.5464    0.0000 </r>
       <r>   12.5948    0.0000 </r>
       <r>   12.6921    0.0000 </r>
       <r>   12.7799    0.0000 </r>
       <r>   13.4690    0.0000 </r>
       <r>   14.0329    0.0000 </r>
       <r>   14.1275    0.0000 </r>
       <r>   14.4016    0.0000 </r>
       <r>   14.6010    0.0000 </r>
       <r>   14.9731    0.0000 </r>
      </set>
      <set comment="kpoint 13">
       <r>  -52.3105    1.0000 </r>
       <r>  -52.3093    1.0000 </r>
       <r>  -51.8956    1.0000 </r>
       <r>  -51.8883    1.0000 </r>
       <r>  -51.8850    1.0000 </r>
       <r>  -51.8782    1.0000 </r>
       <r>  -26.6705    1.0000 </r>
       <r>  -26.6270    1.0000 </r>
       <r>  -26.6053    1.0000 </r>
       <r>  -26.5411    1.0000 </r>
       <r>  -26.4281    1.0000 </r>
       <r>  -26.3806    1.0000 </r>
       <r>  -26.3630    1.0000 </r>
       <r>  -26.3336    1.0000 </r>
       <r>  -25.9431    1.0000 </r>
       <r>  -25.9371    1.0000 </r>
       <r>  -25.6531    1.0000 </r>
       <r>  -25.6472    1.0000 </r>
       <r>  -25.6402    1.0000 </r>
       <r>  -25.6334    1.0000 </r>
       <r>  -24.7627    1.0000 </r>
       <r>  -24.7602    1.0000 </r>
       <r>  -24.7555    1.0000 </r>
       <r>  -24.7544    1.0000 </r>
       <r>   -2.7388    1.0000 </r>
       <r>   -1.6569    1.0000 </r>
       <r>   -0.3703    1.0000 </r>
       <r>   -0.2091    1.0000 </r>
       <r>    0.3967    1.0000 </r>
       <r>    1.2368    1.0000 </r>
       <r>    1.5862    1.0000 </r>
       <r>    1.6373    1.0000 </r>
       <r>    2.2801    1.0000 </r>
       <r>    2.8858    1.0000 </r>
       <r>    3.2278    1.0000 </r>
       <r>    4.1593    1.0000 </r>
       <r>    4.7844    1.0000 </r>
       <r>    4.8809    1.0000 </r>
       <r>    5.1739    1.0000 </r>
       <r>    5.3003    1.0000 </r>
       <r>    5.3841    1.0000 </r>
       <r>    5.5326    1.0000 </r>
       <r>    5.5739    1.0000 </r>
       <r>    5.6299    1.0000 </r>
       <r>    6.0477    1.0000 </r>
       <r>    6.4962    1.0000 </r>
       <r>    6.6267    1.0000 </r>
       <r>    6.9680    1.0000 </r>
       <r>    7.3062    1.0000 </r>
       <r>    7.6204    1.0000 </r>
       <r>    7.8815    1.0000 </r>
       <r>    8.1191    1.0000 </r>
       <r>    8.5951    1.0000 </r>
       <r>    8.8434    1.0000 </r>
       <r>    9.0401    1.0000 </r>
       <r>    9.1003    1.0000 </r>
       <r>    9.1997    1.0000 </r>
       <r>    9.3911    1.0000 </r>
       <r>    9.5006    1.0000 </r>
       <r>    9.6365    1.0000 </r>
       <r>    9.8383    1.0000 </r>
       <r>   10.2611    0.0000 </r>
       <r>   10.5796    0.0000 </r>
       <r>   11.1759    0.0000 </r>
       <r>   11.2518    0.0000 </r>
       <r>   11.3143    0.0000 </r>
       <r>   11.9979    0.0000 </r>
       <r>   12.0289    0.0000 </r>
       <r>   12.5463    0.0000 </r>
       <r>   12.5948    0.0000 </r>
       <r>   12.6921    0.0000 </r>
       <r>   12.7794    0.0000 </r>
       <r>   13.4694    0.0000 </r>
       <r>   14.0219    0.0000 </r>
       <r>   14.1287    0.0000 </r>
       <r>   14.3681    0.0000 </r>
       <r>   14.5810    0.0000 </r>
       <r>   14.8310    0.0000 </r>
      </set>
      <set comment="kpoint 14">
       <r>  -52.3105    1.0000 </r>
       <r>  -52.3093    1.0000 </r>
       <r>  -51.8956    1.0000 </r>
       <r>  -51.8883    1.0000 </r>
       <r>  -51.8850    1.0000 </r>
       <r>  -51.8782    1.0000 </r>
       <r>  -26.6705    1.0000 </r>
       <r>  -26.6270    1.0000 </r>
       <r>  -26.6053    1.0000 </r>
       <r>  -26.5411    1.0000 </r>
       <r>  -26.4281    1.0000 </r>
       <r>  -26.3806    1.0000 </r>
       <r>  -26.3630    1.0000 </r>
       <r>  -26.3336    1.0000 </r>
       <r>  -25.9431    1.0000 </r>
       <r>  -25.9371    1.0000 </r>
       <r>  -25.6531    1.0000 </r>
       <r>  -25.6472    1.0000 </r>
       <r>  -25.6402    1.0000 </r>
       <r>  -25.6334    1.0000 </r>
       <r>  -24.7627    1.0000 </r>
       <r>  -24.7603    1.0000 </r>
       <r>  -24.7556    1.0000 </r>
[...]
       <r>   14.3429    0.0000 </r>
       <r>   14.5168    0.0000 </r>
       <r>   14.6448    0.0000 </r>
       <r>   14.6995    0.0000 </r>
       <r>   15.3008    0.0000 </r>
      </set>
      <set comment="kpoint 100">
       <r>  -52.3111    1.0000 </r>
       <r>  -52.3082    1.0000 </r>
       <r>  -51.8977    1.0000 </r>
       <r>  -51.8880    1.0000 </r>
       <r>  -51.8880    1.0000 </r>
       <r>  -51.8741    1.0000 </r>
       <r>  -26.6672    1.0000 </r>
       <r>  -26.6081    1.0000 </r>
       <r>  -26.6080    1.0000 </r>
       <r>  -26.5241    1.0000 </r>
       <r>  -26.4460    1.0000 </r>
       <r>  -26.3621    1.0000 </r>
       <r>  -26.3621    1.0000 </r>
       <r>  -26.3213    1.0000 </r>
       <r>  -25.9890    1.0000 </r>
       <r>  -25.9168    1.0000 </r>
       <r>  -25.6523    1.0000 </r>
       <r>  -25.6523    1.0000 </r>
       <r>  -25.6425    1.0000 </r>
       <r>  -25.6425    1.0000 </r>
       <r>  -24.7868    1.0000 </r>
       <r>  -24.7826    1.0000 </r>
       <r>  -24.7406    1.0000 </r>
       <r>  -24.7405    1.0000 </r>
       <r>   -2.6349    1.0000 </r>
       <r>   -1.3275    1.0000 </r>
       <r>   -0.4015    1.0000 </r>
       <r>   -0.4015    1.0000 </r>
       <r>    0.2111    1.0000 </r>
       <r>    0.4569    1.0000 </r>
       <r>    1.9661    1.0000 </r>
       <r>    2.2878    1.0000 </r>
       <r>    2.2878    1.0000 </r>
       <r>    3.3815    1.0000 </r>
       <r>    3.3818    1.0000 </r>
       <r>    4.2952    1.0000 </r>
       <r>    5.1017    1.0000 </r>
       <r>    5.1018    1.0000 </r>
       <r>    5.2190    1.0000 </r>
       <r>    5.2191    1.0000 </r>
       <r>    5.4262    1.0000 </r>
       <r>    5.5322    1.0000 </r>
       <r>    5.5394    1.0000 </r>
       <r>    5.5395    1.0000 </r>
       <r>    5.9091    1.0000 </r>
       <r>    6.1671    1.0000 </r>
       <r>    6.4805    1.0000 </r>
       <r>    7.2417    1.0000 </r>
       <r>    7.3485    1.0000 </r>
       <r>    7.3485    1.0000 </r>
       <r>    7.6412    1.0000 </r>
       <r>    7.8373    1.0000 </r>
       <r>    8.0158    1.0000 </r>
       <r>    8.0158    1.0000 </r>
       <r>    8.2762    1.0000 </r>
       <r>    8.4092    1.0000 </r>
       <r>    8.4093    1.0000 </r>
       <r>    8.9365    1.0000 </r>
       <r>    8.9784    1.0000 </r>
       <r>    9.1114    1.0000 </r>
       <r>    9.1679    1.0000 </r>
       <r>   10.3431    0.0000 </r>
       <r>   10.5164    0.0000 </r>
       <r>   11.3835    0.0000 </r>
       <r>   12.3605    0.0000 </r>
       <r>   12.4994    0.0000 </r>
       <r>   12.8258    0.0000 </r>
       <r>   13.0709    0.0000 </r>
       <r>   13.0709    0.0000 </r>
       <r>   13.3530    0.0000 </r>
       <r>   13.5541    0.0000 </r>
       <r>   13.9485    0.0000 </r>
       <r>   14.0182    0.0000 </r>
       <r>   14.0352    0.0000 </r>
       <r>   14.2229    0.0000 </r>
       <r>   14.2441    0.0000 </r>
       <r>   14.8515    0.0000 </r>
       <r>   15.5827    0.0000 </r>
      </set>
     </set>
    </set>
   </array>
  </eigenvalues>
  <separator name="orbital magnetization" >
   <v name="MAGDIPOLOUT">      0.00000000      0.00000000      0.00000000</v>
  </separator>
  <dos>
   <i name="efermi">     10.18086158 </i>
   <total>
    <array>
     <dimension dim="1">gridpoints</dimension>
     <dimension dim="2">spin</dimension>
     <field>energy</field>
     <field>total</field>
     <field>integrated</field>
     <set>
      <set comment="spin 1">
       <r>   -55.7072     0.0000     0.0000 </r>
       <r>   -55.4582     0.0000     0.0000 </r>
       <r>   -55.2093     0.0000     0.0000 </r>
       <r>   -54.9603     0.0000     0.0000 </r>
       <r>   -54.7114     0.0000     0.0000 </r>
       <r>   -54.4624     0.0000     0.0000 </r>
       <r>   -54.2135     0.0000     0.0000 </r>
       <r>   -53.9645     0.0000     0.0000 </r>
       <r>   -53.7156     0.0000     0.0000 </r>
       <r>   -53.4666     0.0000     0.0000 </r>
       <r>   -53.2177     0.0000     0.0000 </r>
       <r>   -52.9687     0.0000     0.0000 </r>
       <r>   -52.7198     0.0000     0.0000 </r>
       <r>   -52.4709     0.0000     0.0000 </r>
       <r>   -52.2219    16.0675     4.0000 </r>
       <r>   -51.9730     0.0000     4.0000 </r>
       <r>   -51.7240    10.0012    12.0000 </r>
       <r>   -51.4751     0.0000    12.0000 </r>
       <r>   -51.2261     0.0000    12.0000 </r>
       <r>   -50.9772     0.0000    12.0000 </r>
       <r>   -50.7282     0.0000    12.0000 </r>
       <r>   -50.4793     0.0000    12.0000 </r>
       <r>   -50.2303     0.0000    12.0000 </r>
       <r>   -49.9814     0.0000    12.0000 </r>
       <r>   -49.7324     0.0000    12.0000 </r>
       <r>   -49.4835     0.0000    12.0000 </r>
       <r>   -49.2345     0.0000    12.0000 </r>
       <r>   -48.9856     0.0000    12.0000 </r>
       <r>   -48.7366     0.0000    12.0000 </r>
       <r>   -48.4877     0.0000    12.0000 </r>
       <r>   -48.2387     0.0000    12.0000 </r>
       <r>   -47.9898     0.0000    12.0000 </r>
       <r>   -47.7408     0.0000    12.0000 </r>
       <r>   -47.4919     0.0000    12.0000 </r>
       <r>   -47.2429     0.0000    12.0000 </r>
       <r>   -46.9940     0.0000    12.0000 </r>
       <r>   -46.7450     0.0000    12.0000 </r>
       <r>   -46.4961     0.0000    12.0000 </r>
       <r>   -46.2471     0.0000    12.0000 </r>
       <r>   -45.9982     0.0000    12.0000 </r>
       <r>   -45.7492     0.0000    12.0000 </r>
       <r>   -45.5003     0.0000    12.0000 </r>
       <r>   -45.2513     0.0000    12.0000 </r>
       <r>   -45.0024     0.0000    12.0000 </r>
       <r>   -44.7534     0.0000    12.0000 </r>
       <r>   -44.5045     0.0000    12.0000 </r>
       <r>   -44.2555     0.0000    12.0000 </r>
       <r>   -44.0066     0.0000    12.0000 </r>
       <r>   -43.7576     0.0000    12.0000 </r>
       <r>   -43.5087     0.0000    12.0000 </r>
       <r>   -43.2597     0.0000    12.0000 </r>
       <r>   -43.0108     0.0000    12.0000 </r>
       <r>   -42.7618     0.0000    12.0000 </r>
       <r>   -42.5129     0.0000    12.0000 </r>
       <r>   -42.2639     0.0000    12.0000 </r>
       <r>   -42.0150     0.0000    12.0000 </r>
       <r>   -41.7660     0.0000    12.0000 </r>
       <r>   -41.5171     0.0000    12.0000 </r>
       <r>   -41.2681     0.0000    12.0000 </r>
       <r>   -41.0192     0.0000    12.0000 </r>
       <r>   -40.7702     0.0000    12.0000 </r>
       <r>   -40.5213     0.0000    12.0000 </r>
       <r>   -40.2724     0.0000    12.0000 </r>
       <r>   -40.0234     0.0000    12.0000 </r>
       <r>   -39.7745     0.0000    12.0000 </r>
       <r>   -39.5255     0.0000    12.0000 </r>
       <r>   -39.2766     0.0000    12.0000 </r>
       <r>   -39.0276     0.0000    12.0000 </r>
       <r>   -38.7787     0.0000    12.0000 </r>
       <r>   -38.5297     0.0000    12.0000 </r>
       <r>   -38.2808     0.0000    12.0000 </r>
       <r>   -38.0318     0.0000    12.0000 </r>
       <r>   -37.7829     0.0000    12.0000 </r>
       <r>   -37.5339     0.0000    12.0000 </r>
       <r>   -37.2850     0.0000    12.0000 </r>
       <r>   -37.0360     0.0000    12.0000 </r>
       <r>   -36.7871     0.0000    12.0000 </r>
       <r>   -36.5381     0.0000    12.0000 </r>
       <r>   -36.2892     0.0000    12.0000 </r>
       <r>   -36.0402     0.0000    12.0000 </r>
       <r>   -35.7913     0.0000    12.0000 </r>
       <r>   -35.5423     0.0000    12.0000 </r>
       <r>   -35.2934     0.0000    12.0000 </r>
       <r>   -35.0444     0.0000    12.0000 </r>
       <r>   -34.7955     0.0000    12.0000 </r>
       <r>   -34.5465     0.0000    12.0000 </r>
       <r>   -34.2976     0.0000    12.0000 </r>
       <r>   -34.0486     0.0000    12.0000 </r>
       <r>   -33.7997     0.0000    12.0000 </r>
       <r>   -33.5507     0.0000    12.0000 </r>
       <r>   -33.3018     0.0000    12.0000 </r>
       <r>   -33.0528     0.0000    12.0000 </r>
       <r>   -32.8039     0.0000    12.0000 </r>
       <r>   -32.5549     0.0000    12.0000 </r>
       <r>   -32.3060     0.0000    12.0000 </r>
       <r>   -32.0570     0.0000    12.0000 </r>
       <r>   -31.8081     0.0000    12.0000 </r>
       <r>   -31.5591     0.0000    12.0000 </r>
       <r>   -31.3102     0.0000    12.0000 </r>
       <r>   -31.0612     0.0000    12.0000 </r>
       <r>   -30.8123     0.0000    12.0000 </r>
       <r>   -30.5633     0.0000    12.0000 </r>
       <r>   -30.3144     0.0000    12.0000 </r>
       <r>   -30.0654     0.0000    12.0000 </r>
       <r>   -29.8165     0.0000    12.0000 </r>
       <r>   -29.5675     0.0000    12.0000 </r>
       <r>   -29.3186     0.0000    12.0000 </r>
       <r>   -29.0696     0.0000    12.0000 </r>
       <r>   -28.8207     0.0000    12.0000 </r>
       <r>   -28.5717     0.0000    12.0000 </r>
       <r>   -28.3228     0.0000    12.0000 </r>
       <r>   -28.0739     0.0000    12.0000 </r>
       <r>   -27.8249     0.0000    12.0000 </r>
       <r>   -27.5760     0.0000    12.0000 </r>
       <r>   -27.3270     0.0000    12.0000 </r>
       <r>   -27.0781     0.0000    12.0000 </r>
       <r>   -26.8291     0.0000    12.0000 </r>
       <r>   -26.5802    23.4341    17.8339 </r>
       <r>   -26.3312    29.4265    27.3257 </r>
       <r>   -26.0823     0.0000    28.0000 </r>
       <r>   -25.8333    16.0675    32.0000 </r>
       <r>   -25.5844    32.1310    39.9990 </r>
       <r>   -25.3354     0.0000    40.0000 </r>
       <r>   -25.0865     0.0000    40.0000 </r>
       <r>   -24.8375     0.0003    40.0001 </r>
       <r>   -24.5886    11.4768    48.0000 </r>
       <r>   -24.3396     0.0000    48.0000 </r>
       <r>   -24.0907     0.0000    48.0000 </r>
       <r>   -23.8417     0.0000    48.0000 </r>
       <r>   -23.5928     0.0000    48.0000 </r>
       <r>   -23.3438     0.0000    48.0000 </r>
       <r>   -23.0949     0.0000    48.0000 </r>
       <r>   -22.8459     0.0000    48.0000 </r>
       <r>   -22.5970     0.0000    48.0000 </r>
       <r>   -22.3480     0.0000    48.0000 </r>
       <r>   -22.0991     0.0000    48.0000 </r>
       <r>   -21.8501     0.0000    48.0000 </r>
       <r>   -21.6012     0.0000    48.0000 </r>
       <r>   -21.3522     0.0000    48.0000 </r>
       <r>   -21.1033     0.0000    48.0000 </r>
       <r>   -20.8543     0.0000    48.0000 </r>
       <r>   -20.6054     0.0000    48.0000 </r>
       <r>   -20.3564     0.0000    48.0000 </r>
       <r>   -20.1075     0.0000    48.0000 </r>
       <r>   -19.8585     0.0000    48.0000 </r>
       <r>   -19.6096     0.0000    48.0000 </r>
       <r>   -19.3606     0.0000    48.0000 </r>
       <r>   -19.1117     0.0000    48.0000 </r>
       <r>   -18.8627     0.0000    48.0000 </r>
       <r>   -18.6138     0.0000    48.0000 </r>
       <r>   -18.3648     0.0000    48.0000 </r>
       <r>   -18.1159     0.0000    48.0000 </r>
       <r>   -17.8669     0.0000    48.0000 </r>
       <r>   -17.6180     0.0000    48.0000 </r>
       <r>   -17.3690     0.0000    48.0000 </r>
       <r>   -17.1201     0.0000    48.0000 </r>
       <r>   -16.8711     0.0000    48.0000 </r>
       <r>   -16.6222     0.0000    48.0000 </r>
       <r>   -16.3732     0.0000    48.0000 </r>
       <r>   -16.1243     0.0000    48.0000 </r>
       <r>   -15.8753     0.0000    48.0000 </r>
       <r>   -15.6264     0.0000    48.0000 </r>
       <r>   -15.3775     0.0000    48.0000 </r>
       <r>   -15.1285     0.0000    48.0000 </r>
       <r>   -14.8796     0.0000    48.0000 </r>
       <r>   -14.6306     0.0000    48.0000 </r>
       <r>   -14.3817     0.0000    48.0000 </r>
       <r>   -14.1327     0.0000    48.0000 </r>
       <r>   -13.8838     0.0000    48.0000 </r>
       <r>   -13.6348     0.0000    48.0000 </r>
       <r>   -13.3859     0.0000    48.0000 </r>
       <r>   -13.1369     0.0000    48.0000 </r>
       <r>   -12.8880     0.0000    48.0000 </r>
       <r>   -12.6390     0.0000    48.0000 </r>
       <r>   -12.3901     0.0000    48.0000 </r>
       <r>   -12.1411     0.0000    48.0000 </r>
       <r>   -11.8922     0.0000    48.0000 </r>
       <r>   -11.6432     0.0000    48.0000 </r>
       <r>   -11.3943     0.0000    48.0000 </r>
       <r>   -11.1453     0.0000    48.0000 </r>
       <r>   -10.8964     0.0000    48.0000 </r>
       <r>   -10.6474     0.0000    48.0000 </r>
       <r>   -10.3985     0.0000    48.0000 </r>
       <r>   -10.1495     0.0000    48.0000 </r>
       <r>    -9.9006     0.0000    48.0000 </r>
       <r>    -9.6516     0.0000    48.0000 </r>
       <r>    -9.4027     0.0000    48.0000 </r>
       <r>    -9.1537     0.0000    48.0000 </r>
       <r>    -8.9048     0.0000    48.0000 </r>
       <r>    -8.6558     0.0000    48.0000 </r>
       <r>    -8.4069     0.0000    48.0000 </r>
       <r>    -8.1579     0.0000    48.0000 </r>
       <r>    -7.9090     0.0000    48.0000 </r>
       <r>    -7.6600     0.0000    48.0000 </r>
       <r>    -7.4111     0.0000    48.0000 </r>
       <r>    -7.1621     0.0000    48.0000 </r>
       <r>    -6.9132     0.0000    48.0000 </r>
       <r>    -6.6642     0.0000    48.0000 </r>
       <r>    -6.4153     0.0000    48.0000 </r>
       <r>    -6.1663     0.0000    48.0000 </r>
       <r>    -5.9174     0.0000    48.0000 </r>
       <r>    -5.6684     0.0000    48.0000 </r>
       <r>    -5.4195     0.0000    48.0000 </r>
       <r>    -5.1705     0.0000    48.0000 </r>
       <r>    -4.9216     0.0000    48.0000 </r>
       <r>    -4.6726     0.0000    48.0000 </r>
       <r>    -4.4237     0.0000    48.0000 </r>
       <r>    -4.1747     0.0000    48.0000 </r>
       <r>    -3.9258     0.0000    48.0000 </r>
       <r>    -3.6768     0.0000    48.0000 </r>
       <r>    -3.4279     0.0000    48.0000 </r>
       <r>    -3.1790     0.1326    48.0330 </r>
       <r>    -2.9300     0.8105    48.2892 </r>
       <r>    -2.6811     1.2204    48.6595 </r>
       <r>    -2.4321     1.8024    49.2126 </r>
       <r>    -2.1832     2.3684    49.8666 </r>
       <r>    -1.9342     1.3341    50.6353 </r>
       <r>    -1.6853     1.0410    51.3087 </r>
       <r>    -1.4363     1.1712    51.7843 </r>
       <r>    -1.1874     0.7438    51.9811 </r>
       <r>    -0.9384     0.9380    52.2860 </r>
       <r>    -0.6895     1.0369    52.6955 </r>
       <r>    -0.4405     3.0558    53.6004 </r>
       <r>    -0.1916     2.2955    54.5132 </r>
       <r>     0.0574     1.9789    55.5772 </r>
       <r>     0.3063     1.9519    56.3518 </r>
       <r>     0.5553     2.1777    57.0727 </r>
       <r>     0.8042     1.2891    57.6562 </r>
       <r>     1.0532     2.6887    58.6227 </r>
       <r>     1.3021     2.4119    59.4401 </r>
       <r>     1.5511     2.9528    60.6943 </r>
       <r>     1.8000     3.9903    62.3811 </r>
       <r>     2.0490     3.8350    63.8935 </r>
       <r>     2.2979     4.2686    65.1268 </r>
       <r>     2.5469     3.0454    66.2917 </r>
       <r>     2.7958     1.9840    67.2636 </r>
       <r>     3.0448     3.3765    68.4266 </r>
       <r>     3.2937     2.9875    69.4609 </r>
       <r>     3.5427     0.9405    70.2108 </r>
       <r>     3.7916     1.3814    70.8104 </r>
       <r>     4.0406     1.2007    71.2377 </r>
       <r>     4.2895     3.3371    72.4518 </r>
       <r>     4.5385     2.3135    73.2815 </r>
       <r>     4.7874     1.6289    74.2539 </r>
       <r>     5.0364     3.5074    75.6370 </r>
       <r>     5.2853     7.1537    78.3057 </r>
       <r>     5.5343     9.9019    82.1036 </r>
       <r>     5.7832     8.2522    85.4072 </r>
       <r>     6.0322     6.6883    88.0382 </r>
       <r>     6.2811     4.6598    90.2154 </r>
       <r>     6.5301     2.7154    91.3524 </r>
       <r>     6.7790     5.2446    93.2240 </r>
       <r>     7.0280     4.0567    94.6192 </r>
       <r>     7.2769     5.5431    96.6569 </r>
       <r>     7.5259     4.0332    98.6600 </r>
       <r>     7.7748     5.2725   100.3330 </r>
       <r>     8.0238     3.5766   101.7359 </r>
       <r>     8.2727     5.7357   103.7778 </r>
       <r>     8.5217     5.1123   106.1823 </r>
       <r>     8.7706     5.5888   108.6566 </r>
       <r>     9.0195     7.4261   111.2890 </r>
       <r>     9.2685     7.8663   114.6522 </r>
       <r>     9.5174     7.5229   117.5346 </r>
       <r>     9.7664     5.7895   119.6104 </r>
       <r>    10.0153     2.9380   121.1512 </r>
       <r>    10.2643     3.7677   122.5006 </r>
       <r>    10.5132     4.8563   124.4043 </r>
       <r>    10.7622     3.6426   126.0788 </r>
       <r>    11.0111     2.9561   127.3831 </r>
       <r>    11.2601     5.0282   128.8786 </r>
       <r>    11.5090     4.7927   130.8375 </r>
       <r>    11.7580     3.0338   132.4987 </r>
       <r>    12.0069     1.6333   133.3687 </r>
       <r>    12.2559     2.8370   134.7646 </r>
       <r>    12.5048     4.6206   136.2349 </r>
       <r>    12.7538     7.6958   138.6214 </r>
       <r>    13.0027     5.7280   141.3793 </r>
       <r>    13.2517     4.3730   143.3802 </r>
       <r>    13.5006     3.7318   144.7833 </r>
       <r>    13.7496     3.7051   146.1760 </r>
       <r>    13.9985     6.1072   148.0568 </r>
       <r>    14.2475     6.5781   150.3315 </r>
       <r>    14.4964     6.8762   152.6973 </r>
       <r>    14.7454     3.6875   154.3291 </r>
       <r>    14.9943     3.1596   155.5038 </r>
       <r>    15.2433     1.2364   155.9463 </r>
       <r>    15.4922     0.0468   155.9883 </r>
       <r>    15.7412     0.0468   156.0000 </r>
       <r>    15.9901     0.0000   156.0000 </r>
       <r>    16.2391     0.0000   156.0000 </r>
       <r>    16.4880     0.0000   156.0000 </r>
       <r>    16.7370     0.0000   156.0000 </r>
       <r>    16.9859     0.0000   156.0000 </r>
       <r>    17.2349     0.0000   156.0000 </r>
       <r>    17.4838     0.0000   156.0000 </r>
       <r>    17.7328     0.0000   156.0000 </r>
       <r>    17.9817     0.0000   156.0000 </r>
       <r>    18.2307     0.0000   156.0000 </r>
       <r>    18.4796     0.0000   156.0000 </r>
       <r>    18.7286     0.0000   156.0000 </r>
       <r>    18.9775     0.0000   156.0000 </r>
      </set>
     </set>
    </array>
   </total>
  </dos>
 </calculation>
 <structure name="finalpos" >
  <crystal>
   <varray name="basis" >
    <v>       6.25626346       0.00000000      -2.08057549 </v>
    <v>      -3.25489410       5.34289219      -2.08057549 </v>
    <v>       0.00000000       0.00000000       6.59315000 </v>
   </varray>
   <i name="volume">    220.38619994 </i>
   <varray name="rec_basis" >
    <v>       0.15983982       0.09737454       0.00000000 </v>
    <v>       0.00000000       0.18716455       0.00000000 </v>
    <v>       0.05044005       0.08979093       0.15167257 </v>
   </varray>
  </crystal>
  <varray name="positions" >
   <v>       0.00000000       0.50000000       0.50000000 </v>
   <v>       0.50000000       0.00000000       0.50000000 </v>
   <v>       0.25000000       0.25000000       0.00000000 </v>
   <v>       0.74602000       0.24602000       0.99204000 </v>
   <v>       0.75000000       0.75000000       0.00000000 </v>
   <v>       0.25398000       0.75398000       0.00796000 </v>
   <v>       0.24602000       0.25398000       0.50000000 </v>
   <v>       0.75398000       0.74602000       0.50000000 </v>
   <v>       0.97817000       0.23808000       0.21624000 </v>
   <v>       0.02183000       0.76192000       0.78376000 </v>
   <v>       0.23808000       0.02183000       0.25991000 </v>
   <v>       0.76192000       0.97817000       0.74009000 </v>
   <v>       0.52183000       0.73808000       0.25991000 </v>
   <v>       0.47817000       0.26192000       0.74009000 </v>
   <v>       0.26192000       0.52183000       0.78376000 </v>
   <v>       0.73808000       0.47817000       0.21624000 </v>
  </varray>
 </structure>
</modeling>
