 vasp.6.2.0 18Jan21 (build Jan 05 2022 15:41:44) complex                        
  
 executed on             LinuxIFC date 2025.05.07  20:08:43
 running on   24 total cores
 distrk:  each k-point on   12 cores,    2 groups
 distr:  one band on NCORE=   2 cores,    6 groups


--------------------------------------------------------------------------------------------------------


 INCAR:
   SYSTEM = routine with relax: pwdword
   ICHARG = 2
   NPAR = 6
   KPAR = 2
   NCORE = 2
   ADDGRID = T
   PREC = Acc
   ENCUT = 600
   METAGGA = R2SCAN
   LASPH = .TRUE.
   LMIXTAU = .FALSE.
   ALGO = A
   EDIFF = 1E-9
   NELM = 100
   NELMIN = 6
   IALGO = 38
   LREAL = F
   NSW = 0
   ISIF = -1
   ISMEAR = 0
   SIGMA = 0.02

 POTCAR:    PAW_PBE B 06Sep2000                   
 POTCAR:    PAW_PBE Mo_sv 02Feb2006               
 POTCAR:    PAW_PBE Si 05Jan2001                  
 -----------------------------------------------------------------------------
|                                                                             |
|           W    W    AA    RRRRR   N    N  II  N    N   GGGG   !!!           |
|           W    W   A  A   R    R  NN   N  II  NN   N  G    G  !!!           |
|           W    W  A    A  R    R  N N  N  II  N N  N  G       !!!           |
|           W WW W  AAAAAA  RRRRR   N  N N  II  N  N N  G  GGG   !            |
|           WW  WW  A    A  R   R   N   NN  II  N   NN  G    G                |
|           W    W  A    A  R    R  N    N  II  N    N   GGGG   !!!           |
|                                                                             |
|     For optimal performance we recommend to set                             |
|       NCORE = 2 up to number-of-cores-per-socket                            |
|     NCORE specifies how many cores store one orbital (NPAR=cpu/NCORE).      |
|     This setting can greatly improve the performance of VASP for DFT.       |
|     The default, NCORE=1 might be grossly inefficient on modern             |
|     multi-core architectures or massively parallel machines. Do your        |
|     own testing! More info at https://www.vasp.at/wiki/index.php/NCORE      |
|     Unfortunately you need to use the default for GW and RPA                |
|     calculations (for HF NCORE is supported but not extensively tested      |
|     yet).                                                                   |
|                                                                             |
 -----------------------------------------------------------------------------

 POTCAR:    PAW_PBE B 06Sep2000                   
   VRHFIN =B: s2p1                                                                                  
   LEXCH  = PE                                                                                      
   EATOM  =    71.1703 eV,    5.2309 Ry                                                             
                                                                                                    
   TITEL  = PAW_PBE B 06Sep2000                                                                     
   LULTRA =        F    use ultrasoft PP ?                                                          
   IUNSCR =        1    unscreen: 0-lin 1-nonlin 2-no                                               
   RPACOR =    1.200    partial core radius                                                         
   POMASS =   10.811; ZVAL   =    3.000    mass and valenz                                          
   RCORE  =    1.700    outmost cutoff radius                                                       
   RWIGS  =    1.710; RWIGS  =    0.905    wigner-seitz radius (au A)                               
   ENMAX  =  318.614; ENMIN  =  238.960 eV                                                          
   ICORE  =        2    local potential                                                             
   LCOR   =        T    correct aug charges                                                         
   LPAW   =        T    paw PP                                                                      
   EAUG   =  535.514                                                                                
   DEXC   =    0.000                                                                                
   RMAX   =    1.732    core radius for proj-oper                                                   
   RAUG   =    1.300    factor for augmentation sphere                                              
   RDEP   =    1.757    radius for radial grids                                                     
   RDEPT  =    1.436    core radius for aug-charge                                                  
                                                                                                    
   Atomic configuration                                                                             
    4 entries                                                                                       
     n  l   j            E        occ.                                                              
     1  0  0.50      -180.5896   2.0000                                                             
     2  0  0.50        -9.4431   2.0000                                                             
     2  1  0.50        -3.6068   1.0000                                                             
     3  2  1.50        -4.0817   0.0000                                                             
   Description                                                                                      
     l       E           TYP  RCUT    TYP  RCUT                                                     
     0     -9.4430752     23  1.500                                                                 
     0      0.8675899     23  1.500                                                                 
     1     -3.6067955     23  1.700                                                                 
     1      6.1086146     23  1.700                                                                 
     2     -4.0817478      7  1.700                                                                 
  local pseudopotential read in
  partial core-charges read in
  partial kinetic energy density read in
  atomic valenz-charges read in
  non local Contribution for L=           0  read in
    real space projection operators read in
  non local Contribution for L=           0  read in
    real space projection operators read in
  non local Contribution for L=           1  read in
    real space projection operators read in
  non local Contribution for L=           1  read in
    real space projection operators read in
    PAW grid and wavefunctions read in
 
   number of l-projection  operators is LMAX  =           4
   number of lm-projection operators is LMMAX =           8
 
 POTCAR:    PAW_PBE Mo_sv 02Feb2006               
   VRHFIN =Mo: 4p5s4d                                                                               
   LEXCH  = PE                                                                                      
   EATOM  =  1862.2866 eV,  136.8742 Ry                                                             
                                                                                                    
   TITEL  = PAW_PBE Mo_sv 02Feb2006                                                                 
   LULTRA =        F    use ultrasoft PP ?                                                          
   IUNSCR =        1    unscreen: 0-lin 1-nonlin 2-no                                               
   RPACOR =    2.200    partial core radius                                                         
   POMASS =   95.940; ZVAL   =   14.000    mass and valenz                                          
   RCORE  =    2.500    outmost cutoff radius                                                       
   RWIGS  =    2.750; RWIGS  =    1.455    wigner-seitz radius (au A)                               
   ENMAX  =  242.676; ENMIN  =  182.007 eV                                                          
   ICORE  =        3    local potential                                                             
   LCOR   =        T    correct aug charges                                                         
   LPAW   =        T    paw PP                                                                      
   EAUG   =  446.014                                                                                
   DEXC   =    0.000                                                                                
   RMAX   =    2.563    core radius for proj-oper                                                   
   RAUG   =    1.300    factor for augmentation sphere                                              
   RDEP   =    2.641    radius for radial grids                                                     
   RDEPT  =    2.031    core radius for aug-charge                                                  
                                                                                                    
   Atomic configuration                                                                             
   11 entries                                                                                       
     n  l   j            E        occ.                                                              
     1  0  0.50    -19819.0341   2.0000                                                             
     2  0  0.50     -2799.0127   2.0000                                                             
     2  1  1.50     -2502.0276   6.0000                                                             
     3  0  0.50      -476.4449   2.0000                                                             
     3  1  1.50      -379.1496   6.0000                                                             
     3  2  2.50      -220.9367  10.0000                                                             
     4  0  0.50       -64.3378   2.0000                                                             
     5  0  0.50        -4.0862   1.0000                                                             
     4  1  1.50       -38.4773   6.0000                                                             
     4  2  2.50        -3.7535   5.0000                                                             
     4  3  2.50        -1.3606   0.0000                                                             
   Description                                                                                      
     l       E           TYP  RCUT    TYP  RCUT                                                     
     0    -64.3377829     23  2.100                                                                 
     0     -4.0861640     23  2.400                                                                 
     1    -38.4772993     23  2.100                                                                 
     1     13.6058260     23  2.100                                                                 
     2     -3.7534941     23  2.400                                                                 
     2     -5.1140767     23  2.400                                                                 
     3     -4.0817478     23  2.500                                                                 
  local pseudopotential read in
  partial core-charges read in
  partial kinetic energy density read in
  atomic valenz-charges read in
  non local Contribution for L=           0  read in
    real space projection operators read in
  non local Contribution for L=           0  read in
    real space projection operators read in
  non local Contribution for L=           1  read in
    real space projection operators read in
  non local Contribution for L=           1  read in
    real space projection operators read in
  non local Contribution for L=           2  read in
    real space projection operators read in
  non local Contribution for L=           2  read in
    real space projection operators read in
    PAW grid and wavefunctions read in
 
   number of l-projection  operators is LMAX  =           6
   number of lm-projection operators is LMMAX =          18
 
 POTCAR:    PAW_PBE Si 05Jan2001                  
   VRHFIN =Si: s2p2                                                                                 
   LEXCH  = PE                                                                                      
   EATOM  =   103.0669 eV,    7.5752 Ry                                                             
                                                                                                    
   TITEL  = PAW_PBE Si 05Jan2001                                                                    
   LULTRA =        F    use ultrasoft PP ?                                                          
   IUNSCR =        1    unscreen: 0-lin 1-nonlin 2-no                                               
   RPACOR =    1.500    partial core radius                                                         
   POMASS =   28.085; ZVAL   =    4.000    mass and valenz                                          
   RCORE  =    1.900    outmost cutoff radius                                                       
   RWIGS  =    2.480; RWIGS  =    1.312    wigner-seitz radius (au A)                               
   ENMAX  =  245.345; ENMIN  =  184.009 eV                                                          
   ICORE  =        2    local potential                                                             
   LCOR   =        T    correct aug charges                                                         
   LPAW   =        T    paw PP                                                                      
   EAUG   =  322.069                                                                                
   DEXC   =    0.000                                                                                
   RMAX   =    1.950    core radius for proj-oper                                                   
   RAUG   =    1.300    factor for augmentation sphere                                              
   RDEP   =    1.993    radius for radial grids                                                     
   RDEPT  =    1.837    core radius for aug-charge                                                  
                                                                                                    
   Atomic configuration                                                                             
    6 entries                                                                                       
     n  l   j            E        occ.                                                              
     1  0  0.50     -1785.8828   2.0000                                                             
     2  0  0.50      -139.4969   2.0000                                                             
     2  1  1.50       -95.5546   6.0000                                                             
     3  0  0.50       -10.8127   2.0000                                                             
     3  1  0.50        -4.0811   2.0000                                                             
     3  2  1.50        -4.0817   0.0000                                                             
   Description                                                                                      
     l       E           TYP  RCUT    TYP  RCUT                                                     
     0    -10.8127223     23  1.900                                                                 
     0     -7.6451159     23  1.900                                                                 
     1     -4.0811372     23  1.900                                                                 
     1      2.4879257     23  1.900                                                                 
     2     -4.0817478      7  1.900                                                                 
  local pseudopotential read in
  partial core-charges read in
  partial kinetic energy density read in
  atomic valenz-charges read in
  non local Contribution for L=           0  read in
    real space projection operators read in
  non local Contribution for L=           0  read in
    real space projection operators read in
  non local Contribution for L=           1  read in
    real space projection operators read in
  non local Contribution for L=           1  read in
    real space projection operators read in
    PAW grid and wavefunctions read in
 
   number of l-projection  operators is LMAX  =           4
   number of lm-projection operators is LMMAX =           8
 
  PAW_PBE B 06Sep2000                   :
 energy of atom  1       EATOM=  -71.1703
 kinetic energy error for atom=    0.0007 (will be added to EATOM!!)
  PAW_PBE Mo_sv 02Feb2006               :
 energy of atom  2       EATOM=-1862.2866
 kinetic energy error for atom=    0.0041 (will be added to EATOM!!)
  PAW_PBE Si 05Jan2001                  :
 energy of atom  3       EATOM= -103.0669
 kinetic energy error for atom=    0.0003 (will be added to EATOM!!)
 
 
 POSCAR: EA210
  positions in direct lattice
  No initial velocities read in

 METAGGA = R2SCA    LMAXTAU =  6    LMIXTAU =  F

 exchange correlation table for  LEXCH =        8
   RHO(1)=    0.500       N(1)  =     2000
   RHO(2)=  100.500       N(2)  =     4000
 


--------------------------------------------------------------------------------------------------------


 ion  position               nearest neighbor table
   1  0.750  0.250  0.500-   3 1.98   6 1.98
   2  0.250  0.750  0.500-   3 1.98   6 1.98
   3  0.500  0.000  0.500-   1 1.98   2 1.98   7 2.08   8 2.08   9 2.08  10 2.08  15 2.80  16 2.80
                            13 2.96  14 2.96
   4  0.745  0.525  0.270-  14 1.78   6 2.08  16 2.29  11 2.64   7 2.84   8 2.84  12 3.21
   5  0.255  0.475  0.730-  13 1.78   6 2.08  15 2.29  12 2.64   8 2.84   7 2.84  11 3.21
   6  0.000  0.500  0.500-   1 1.98   2 1.98   4 2.08   5 2.08  11 2.08  12 2.08  13 2.80  14 2.80
                            15 2.96  16 2.96
   7  0.525  0.255  0.779-  16 1.78   3 2.08  13 2.29   9 2.64   4 2.84   5 2.84  10 3.21
   8  0.475  0.745  0.221-  15 1.78   3 2.08  14 2.29  10 2.64   5 2.84   4 2.84   9 3.21
   9  0.755  0.025  0.779-  16 1.78   3 2.08  14 2.29   7 2.64  12 2.84  11 2.84   8 3.21
  10  0.245  0.975  0.221-  15 1.78   3 2.08  13 2.29   8 2.64  11 2.84  12 2.84   7 3.21
  11  0.975  0.755  0.730-  14 1.78   6 2.08  15 2.29   4 2.64  10 2.84   9 2.84   5 3.21
  12  0.025  0.245  0.270-  13 1.78   6 2.08  16 2.29   5 2.64   9 2.84  10 2.84   4 3.21
  13  0.243  0.257  0.500-   5 1.78  12 1.78  10 2.29   7 2.29   6 2.80   3 2.96
  14  0.757  0.743  0.500-   4 1.78  11 1.78   9 2.29   8 2.29   6 2.80   3 2.96
  15  0.257  0.757  0.014-   8 1.78  10 1.78   5 2.29  11 2.29   3 2.80   6 2.96
  16  0.743  0.243  0.986-   7 1.78   9 1.78   4 2.29  12 2.29   3 2.80   6 2.96
 
  LATTYP: Found a body centered tetragonal cell.
 ALAT       =     8.1377273782
 C/A-ratio  =     0.9755646700
  
  Lattice vectors:
  
 A1 = (   6.6172056942,   0.0000000000,  -2.2539694104)
 A2 = (  -3.3904439397,   5.6826315287,  -2.2539694104)
 A3 = (   0.0000000000,   0.0000000000,   6.9905500000)


Analysis of symmetry for initial positions (statically):
=====================================================================
 Subroutine PRICEL returns:
 Original cell was already a primitive cell.
 

 Routine SETGRP: Setting up the symmetry group for a 
 body centered tetragonal supercell.


 Subroutine GETGRP returns: Found  4 space group operations
 (whereof  2 operations were pure point group operations)
 out of a pool of 16 trial point group operations.


The static configuration has the point symmetry S_2 .
 The point group associated with its full space group is C_2h.


Analysis of symmetry for dynamics (positions and initial velocities):
=====================================================================
 Subroutine PRICEL returns:
 Original cell was already a primitive cell.
 

 Routine SETGRP: Setting up the symmetry group for a 
 body centered tetragonal supercell.


 Subroutine GETGRP returns: Found  4 space group operations
 (whereof  2 operations were pure point group operations)
 out of a pool of 16 trial point group operations.


The dynamic configuration has the point symmetry S_2 .
 The point group associated with its full space group is C_2h.


 Subroutine INISYM returns: Found  4 space group operations
 (whereof  2 operations are pure point group operations),
 and found     1 'primitive' translations


----------------------------------------------------------------------------------------

                                     Primitive cell                                     

  volume of cell :     262.8666

  direct lattice vectors                    reciprocal lattice vectors
     6.617205694  0.000000000 -2.253969410     0.151121190  0.090163848  0.000000000
    -3.390443940  5.682631529 -2.253969410     0.000000000  0.175974809  0.000000000
     0.000000000  0.000000000  6.990550000     0.048726143  0.085811330  0.143050261

  length of vectors
     6.990550000  6.990550000  6.990550000     0.175974809  0.175974809  0.173784920

  position of ions in fractional coordinates (direct lattice)
     0.750000000  0.250000000  0.500000000
     0.250000000  0.750000000  0.500000000
     0.500000000  0.000000000  0.500000000
     0.745480000  0.524820000  0.270290000
     0.254520000  0.475180000  0.729710000
     0.000000000  0.500000000  0.500000000
     0.524820000  0.254520000  0.779340000
     0.475180000  0.745480000  0.220660000
     0.754520000  0.024820000  0.779340000
     0.245480000  0.975180000  0.220660000
     0.975180000  0.754520000  0.729710000
     0.024820000  0.245480000  0.270290000
     0.242910000  0.257090000  0.500000000
     0.757090000  0.742910000  0.500000000
     0.257090000  0.757090000  0.014190000
     0.742910000  0.242910000  0.985810000

  ion indices of the primitive-cell ions
   primitive index   ion index
                 1           1
                 2           2
                 3           3
                 4           4
                 5           5
                 6           6
                 7           7
                 8           8
                 9           9
                10          10
                11          11
                12          12
                13          13
                14          14
                15          15
                16          16

----------------------------------------------------------------------------------------

 
 
 KPOINTS: EA                                      

Automatic generation of k-mesh.
 Grid dimensions read from file:
 generate k-points for:    6    6    6

 Generating k-lattice:

  Cartesian coordinates                     Fractional coordinates (reciprocal lattice)
     0.025186865  0.015027308  0.000000000     0.166666667  0.000000000  0.000000000
     0.000000000  0.029329135  0.000000000     0.000000000  0.166666667  0.000000000
     0.008121024  0.014301888  0.023841710    -0.000000000 -0.000000000  0.166666667

  Length of vectors
     0.029329135  0.029329135  0.028964153

  Shift w.r.t. Gamma in fractional coordinates (k-lattice)
     0.000000000  0.000000000  0.000000000

 
 Subroutine IBZKPT returns following result:
 ===========================================
 
 Found     68 irreducible k-points:
 
 Following reciprocal coordinates:
            Coordinates               Weight
  0.000000  0.000000  0.000000      1.000000
  0.166667 -0.000000  0.000000      4.000000
  0.166667 -0.000000 -0.166667      4.000000
  0.333333 -0.000000  0.000000      4.000000
  0.333333  0.000000 -0.333333      4.000000
  0.500000 -0.000000  0.000000      2.000000
  0.500000 -0.000000  0.500000      2.000000
  0.166667  0.166667  0.000000      2.000000
  0.333333 -0.000000 -0.166667      4.000000
  0.166667  0.166667 -0.333333      2.000000
  0.333333  0.166667  0.000000      4.000000
  0.500000 -0.000000 -0.333333      4.000000
  0.166667  0.333333  0.500000      4.000000
  0.000000  0.500000 -0.166667      4.000000
  0.500000  0.166667  0.000000      4.000000
 -0.333333 -0.000000  0.500000      4.000000
  0.166667  0.500000  0.333333      4.000000
  0.000000 -0.333333 -0.166667      4.000000
 -0.333333  0.166667  0.000000      4.000000
 -0.166667 -0.000000  0.333333      4.000000
  0.166667 -0.333333  0.166667      4.000000
  0.000000 -0.166667 -0.166667      4.000000
 -0.166667  0.166667  0.000000      2.000000
 -0.000000 -0.000000  0.166667      2.000000
  0.333333  0.333333  0.000000      2.000000
 -0.333333  0.000000 -0.333333      4.000000
  0.333333  0.333333  0.333333      2.000000
  0.500000  0.333333  0.000000      4.000000
 -0.166667 -0.000000  0.500000      4.000000
  0.333333  0.500000  0.166667      4.000000
  0.000000 -0.166667 -0.333333      4.000000
 -0.333333  0.333333  0.000000      2.000000
 -0.000000 -0.000000  0.333333      2.000000
  0.500000  0.500000  0.000000      1.000000
  0.000000 -0.000000  0.500000      1.000000
  0.166667  0.166667  0.166667      2.000000
  0.500000 -0.166667 -0.166667      4.000000
  0.166667  0.166667  0.500000      2.000000
  0.333333  0.166667  0.166667      4.000000
 -0.333333 -0.166667 -0.333333      4.000000
 -0.166667  0.166667  0.166667      4.000000
  0.333333  0.333333  0.166667      2.000000
 -0.166667 -0.166667 -0.333333      2.000000
 -0.333333  0.333333  0.166667      4.000000
  0.166667 -0.166667  0.333333      4.000000
 -0.166667  0.333333  0.166667      4.000000
  0.333333 -0.166667 -0.333333      4.000000
  0.500000  0.500000  0.166667      2.000000
  0.166667 -0.166667  0.500000      2.000000
 -0.333333  0.500000  0.166667      4.000000
  0.333333 -0.166667  0.333333      4.000000
  0.500000 -0.333333 -0.333333      4.000000
 -0.166667  0.333333  0.500000      4.000000
 -0.166667  0.500000  0.166667      4.000000
  0.500000 -0.166667  0.500000      4.000000
 -0.333333 -0.333333  0.166667      2.000000
  0.500000 -0.166667  0.333333      4.000000
 -0.333333 -0.333333  0.500000      2.000000
 -0.166667 -0.333333  0.166667      4.000000
 -0.333333 -0.166667  0.333333      4.000000
 -0.166667 -0.166667  0.166667      2.000000
 -0.333333  0.333333  0.333333      4.000000
  0.500000  0.500000  0.333333      2.000000
  0.333333 -0.333333  0.500000      2.000000
 -0.333333  0.500000  0.333333      4.000000
  0.500000 -0.333333  0.500000      4.000000
 -0.333333 -0.333333  0.333333      2.000000
  0.500000  0.500000  0.500000      1.000000
 
 Following cartesian coordinates:
            Coordinates               Weight
  0.000000  0.000000  0.000000      1.000000
  0.025187  0.015027  0.000000      4.000000
  0.017066  0.000725 -0.023842      4.000000
  0.050374  0.030055  0.000000      4.000000
  0.034132  0.001451 -0.047683      4.000000
  0.075561  0.045082  0.000000      2.000000
  0.099924  0.087988  0.071525      2.000000
  0.025187  0.044356  0.000000      2.000000
  0.042253  0.015753 -0.023842      4.000000
  0.008945  0.015753 -0.047683      2.000000
  0.050374  0.059384  0.000000      4.000000
  0.059319  0.016478 -0.047683      4.000000
  0.049550  0.116591  0.071525      4.000000
 -0.008121  0.073686 -0.023842      4.000000
  0.075561  0.074411  0.000000      4.000000
 -0.026011  0.012851  0.071525      4.000000
  0.041429  0.131618  0.047683      4.000000
 -0.008121 -0.072960 -0.023842      4.000000
 -0.050374 -0.000725  0.000000      4.000000
 -0.008945  0.013576  0.047683      4.000000
  0.033308 -0.029329  0.023842      4.000000
 -0.008121 -0.043631 -0.023842      4.000000
 -0.025187  0.014302  0.000000      2.000000
  0.008121  0.014302  0.023842      2.000000
  0.050374  0.088713  0.000000      2.000000
 -0.066616 -0.058658 -0.047683      4.000000
  0.066616  0.117317  0.047683      2.000000
  0.075561  0.103740  0.000000      4.000000
 -0.000824  0.027878  0.071525      4.000000
  0.058495  0.132344  0.023842      4.000000
 -0.016242 -0.057933 -0.047683      4.000000
 -0.050374  0.028604  0.000000      2.000000
  0.016242  0.028604  0.047683      2.000000
  0.075561  0.133069  0.000000      1.000000
  0.024363  0.042906  0.071525      1.000000
  0.033308  0.058658  0.023842      2.000000
  0.067440  0.001451 -0.023842      4.000000
  0.049550  0.087262  0.071525      2.000000
  0.058495  0.073686  0.023842      4.000000
 -0.066616 -0.087988 -0.047683      4.000000
 -0.017066  0.028604  0.023842      4.000000
  0.058495  0.103015  0.023842      2.000000
 -0.041429 -0.072960 -0.047683      2.000000
 -0.042253  0.042906  0.023842      4.000000
  0.041429  0.014302  0.047683      4.000000
 -0.017066  0.057933  0.023842      4.000000
  0.034132 -0.027878 -0.047683      4.000000
  0.083682  0.147371  0.023842      2.000000
  0.049550  0.028604  0.071525      2.000000
 -0.042253  0.072235  0.023842      4.000000
  0.066616  0.029329  0.047683      4.000000
  0.059319 -0.042180 -0.047683      4.000000
 -0.000824  0.086537  0.071525      4.000000
 -0.017066  0.087262  0.023842      4.000000
  0.099924  0.058658  0.071525      4.000000
 -0.042253 -0.074411  0.023842      2.000000
  0.091803  0.044357  0.047683      4.000000
 -0.026011 -0.045807  0.071525      2.000000
 -0.017066 -0.059384  0.023842      4.000000
 -0.034132 -0.030780  0.047683      4.000000
 -0.017066 -0.030055  0.023842      2.000000
 -0.034132  0.057207  0.047683      4.000000
  0.091803  0.161673  0.047683      2.000000
  0.074737  0.014302  0.071525      2.000000
 -0.034132  0.086537  0.047683      4.000000
  0.099924  0.029329  0.071525      4.000000
 -0.034132 -0.060109  0.047683      2.000000
  0.099924  0.175975  0.071525      1.000000
 


--------------------------------------------------------------------------------------------------------




 Dimension of arrays:
   k-points           NKPTS =     68   k-points in BZ     NKDIM =     68   number of bands    NBANDS=    102
   number of dos      NEDOS =    301   number of ions     NIONS =     16
   non local maximal  LDIM  =      6   non local SUM 2l+1 LMDIM =     18
   total plane-waves  NPLWV = 175616
   max r-space proj   IRMAX =      1   max aug-charges    IRDMAX= 233902
   dimension x,y,z NGX =    56 NGY =   56 NGZ =   56
   dimension x,y,z NGXF=   112 NGYF=  112 NGZF=  112
   support grid    NGXF=   224 NGYF=  224 NGZF=  224
   ions per type =               2  10   4
   NGX,Y,Z   is equivalent  to a cutoff of  13.32, 13.32, 13.32 a.u.
   NGXF,Y,Z  is equivalent  to a cutoff of  26.64, 26.64, 26.64 a.u.

 SYSTEM =  routine with relax: pwdword             
 POSCAR =  EA210                                   

 Startparameter for this run:
   NWRITE =      2    write-flag & timer
   PREC   = acc       normal or accurate (medium, high low for compatibility)
   ISTART =      0    job   : 0-new  1-cont  2-samecut
   ICHARG =      2    charge: 1-file 2-atom 10-const
   ISPIN  =      1    spin polarized calculation?
   LNONCOLLINEAR =      F non collinear calculations
   LSORBIT =      F    spin-orbit coupling
   INIWAV =      1    electr: 0-lowe 1-rand  2-diag
   LASPH  =      T    aspherical Exc in radial PAW
   METAGGA=      F    non-selfconsistent MetaGGA calc.

 Electronic Relaxation 1
   ENCUT  =  600.0 eV  44.10 Ry    6.64 a.u.  13.96 13.96 13.96*2*pi/ulx,y,z
   ENINI  =  600.0     initial cutoff
   ENAUG  =  535.5 eV  augmentation charge cutoff
   NELM   =    100;   NELMIN=  6; NELMDL= -5     # of ELM steps 
   EDIFF  = 0.1E-08   stopping-criterion for ELM
   LREAL  =      F    real-space projection
   NLSPLINE    = F    spline interpolate recip. space projectors
   LCOMPAT=      F    compatible to vasp.4.4
   GGA_COMPAT  = T    GGA compatible to vasp.4.4-vasp.4.6
   LMAXPAW     = -100 max onsite density
   LMAXMIX     =    2 max onsite mixed and CHGCAR
   VOSKOWN=      0    Vosko Wilk Nusair interpolation
   ROPT   =    0.00000   0.00000   0.00000
 Ionic relaxation
   EDIFFG = 0.1E-07   stopping-criterion for IOM
   NSW    =      0    number of steps for IOM
   NBLOCK =      1;   KBLOCK =      1    inner block; outer block 
   IBRION =     -1    ionic relax: 0-MD 1-quasi-New 2-CG
   NFREE  =      0    steps in history (QN), initial steepest desc. (CG)
   ISIF   =     -1    stress and relaxation
   IWAVPR =     10    prediction:  0-non 1-charg 2-wave 3-comb
   ISYM   =      2    0-nonsym 1-usesym 2-fastsym
   LCORR  =      T    Harris-Foulkes like correction to forces

   POTIM  = 0.5000    time-step for ionic-motion
   TEIN   =    0.0    initial temperature
   TEBEG  =    0.0;   TEEND  =   0.0 temperature during run
   SMASS  =  -3.00    Nose mass-parameter (am)
   estimated Nose-frequenzy (Omega)   =  0.10E-29 period in steps = 0.13E+47 mass=  -0.112E-26a.u.
   SCALEE = 1.0000    scale energy and forces
   NPACO  =    256;   APACO  = 16.0  distance and # of slots for P.C.
   PSTRESS=    0.0 pullay stress

  Mass of Ions in am
   POMASS =  10.81 95.94 28.09
  Ionic Valenz
   ZVAL   =   3.00 14.00  4.00
  Atomic Wigner-Seitz radii
   RWIGS  =  -1.00 -1.00 -1.00
  virtual crystal weights 
   VCA    =   1.00  1.00  1.00
   NELECT =     162.0000    total number of electrons
   NUPDOWN=      -1.0000    fix difference up-down

 DOS related values:
   EMIN   =  10.00;   EMAX   =-10.00  energy-range for DOS
   EFERMI =   0.00
   ISMEAR =     0;   SIGMA  =   0.02  broadening in eV -4-tet -1-fermi 0-gaus

 Electronic relaxation 2 (details)
   IALGO  =     58    algorithm
   LDIAG  =      T    sub-space diagonalisation (order eigenvalues)
   LSUBROT=      F    optimize rotation matrix (better conditioning)
   TURBO    =      0    0=normal 1=particle mesh
   IRESTART =      0    0=no restart 2=restart with 2 vectors
   NREBOOT  =      0    no. of reboots
   NMIN     =      0    reboot dimension
   EREF     =   0.00    reference energy to select bands
   IMIX   =      4    mixing-type and parameters
     AMIX     =   0.40;   BMIX     =  1.00
     AMIX_MAG =   1.60;   BMIX_MAG =  1.00
     AMIN     =   0.10
     WC   =   100.;   INIMIX=   1;  MIXPRE=   1;  MAXMIX= -45

 Intra band minimization:
   WEIMIN = 0.0000     energy-eigenvalue tresh-hold
   EBREAK =  0.25E-11  absolut break condition
   DEPER  =   0.30     relativ break condition  

   TIME   =   0.40     timestep for ELM

  volume/ion in A,a.u.               =      16.43       110.87
  Fermi-wavevector in a.u.,A,eV,Ry     =   1.393161  2.632693 26.407519  1.940898
  Thomas-Fermi vector in A             =   2.516834
 
 Write flags
   LWAVE        =      T    write WAVECAR
   LDOWNSAMPLE  =      F    k-point downsampling of WAVECAR
   LCHARG       =      T    write CHGCAR
   LVTOT        =      F    write LOCPOT, total local potential
   LVHAR        =      F    write LOCPOT, Hartree potential only
   LELF         =      F    write electronic localiz. function (ELF)
   LORBIT       =      0    0 simple, 1 ext, 2 COOP (PROOUT), +10 PAW based schemes


 Dipole corrections
   LMONO  =      F    monopole corrections only (constant potential shift)
   LDIPOL =      F    correct potential (dipole corrections)
   IDIPOL =      0    1-x, 2-y, 3-z, 4-all directions 
   EPSILON=  1.0000000 bulk dielectric constant

 Exchange correlation treatment:
   GGA     =    --    GGA type
   LEXCH   =     8    internal setting for exchange type
   VOSKOWN=      0    Vosko Wilk Nusair interpolation
   LHFCALC =     F    Hartree Fock is set to
   LHFONE  =     F    Hartree Fock one center treatment
   AEXX    =    0.0000 exact exchange contribution

 Linear response parameters
   LEPSILON=     F    determine dielectric tensor
   LRPA    =     F    only Hartree local field effects (RPA)
   LNABLA  =     F    use nabla operator in PAW spheres
   LVEL    =     F    velocity operator in full k-point grid
   LINTERFAST=   F  fast interpolation
   KINTER  =     0    interpolate to denser k-point grid
   CSHIFT  =0.1000    complex shift for real part using Kramers Kronig
   OMEGAMAX=  -1.0    maximum frequency
   DEG_THRESHOLD= 0.2000000E-02 threshold for treating states as degnerate
   RTIME   =   -0.100 relaxation time in fs
  (WPLASMAI=    0.000 imaginary part of plasma frequency in eV, 0.658/RTIME)
   DFIELD  = 0.0000000 0.0000000 0.0000000 field for delta impulse in time
 
 Orbital magnetization related:
   ORBITALMAG=     F  switch on orbital magnetization
   LCHIMAG   =     F  perturbation theory with respect to B field
   DQ        =  0.001000  dq finite difference perturbation B field
   LLRAUG    =     F  two centre corrections for induced B field



--------------------------------------------------------------------------------------------------------


 Static calculation
 charge density and potential will be updated during run
 non-spin polarized calculation
 Conjugate gradient for all bands (Freysoldt, et al. PRB 79, 241103 (2009))
 preconditioned conjugated gradient                                        
 perform sub-space diagonalisation
    before iterative eigenvector-optimisation
 modified Broyden-mixing scheme, WC =      100.0
 initial mixing is a Kerker type mixing with AMIX =  0.4000 and BMIX =      1.0000
 Hartree-type preconditioning will be used
 using additional bands           21
 reciprocal scheme for non local part
 use partial core corrections
 no Harris-corrections to forces 
 use gradient corrections 
 use of overlap-Matrix (Vanderbilt PP)
 Gauss-broadening in eV      SIGMA  =   0.02


--------------------------------------------------------------------------------------------------------


  energy-cutoff  :      600.00
  volume of cell :      262.87
      direct lattice vectors                 reciprocal lattice vectors
     6.617205694  0.000000000 -2.253969410     0.151121190  0.090163848  0.000000000
    -3.390443940  5.682631529 -2.253969410     0.000000000  0.175974809  0.000000000
     0.000000000  0.000000000  6.990550000     0.048726143  0.085811330  0.143050261

  length of vectors
     6.990550000  6.990550000  6.990550000     0.175974809  0.175974809  0.173784920


 
 k-points in units of 2pi/SCALE and weight: EA                                      
   0.00000000  0.00000000  0.00000000       0.005
   0.02518687  0.01502731  0.00000000       0.019
   0.01706584  0.00072542 -0.02384171       0.019
   0.05037373  0.03005462  0.00000000       0.019
   0.03413168  0.00145084 -0.04768342       0.019
   0.07556060  0.04508192  0.00000000       0.009
   0.09992367  0.08798759  0.07152513       0.009
   0.02518687  0.04435644  0.00000000       0.009
   0.04225271  0.01575273 -0.02384171       0.019
   0.00894482  0.01575267 -0.04768342       0.009
   0.05037373  0.05938375  0.00000000       0.019
   0.05931855  0.01647815 -0.04768342       0.019
   0.04954994  0.11659124  0.07152513       0.019
  -0.00812102  0.07368552 -0.02384171       0.019
   0.07556060  0.07441106  0.00000000       0.019
  -0.02601066  0.01285105  0.07152513       0.019
   0.04142891  0.13161849  0.04768342       0.019
  -0.00812102 -0.07296016 -0.02384171       0.019
  -0.05037373 -0.00072548  0.00000000       0.019
  -0.00894482  0.01357647  0.04768342       0.019
   0.03330789 -0.02932907  0.02384171       0.019
  -0.00812102 -0.04363102 -0.02384171       0.019
  -0.02518687  0.01430183  0.00000000       0.009
   0.00812102  0.01430189  0.02384171       0.009
   0.05037373  0.08871289  0.00000000       0.009
  -0.06661578 -0.05865839 -0.04768342       0.019
   0.06661578  0.11731666  0.04768342       0.009
   0.07556060  0.10374019  0.00000000       0.019
  -0.00082379  0.02787836  0.07152513       0.019
   0.05849475  0.13234391  0.02384171       0.019
  -0.01624205 -0.05793291 -0.04768342       0.019
  -0.05037373  0.02860365  0.00000000       0.009
   0.01624205  0.02860378  0.04768342       0.009
   0.07556060  0.13306933  0.00000000       0.005
   0.02436307  0.04290566  0.07152513       0.005
   0.03330789  0.05865833  0.02384171       0.009
   0.06743957  0.00145090 -0.02384171       0.019
   0.04954994  0.08726211  0.07152513       0.009
   0.05849475  0.07368564  0.02384171       0.019
  -0.06661578 -0.08798753 -0.04768342       0.019
  -0.01706584  0.02860372  0.02384171       0.019
   0.05849475  0.10301477  0.02384171       0.009
  -0.04142891 -0.07296022 -0.04768342       0.009
  -0.04225271  0.04290554  0.02384171       0.019
   0.04142891  0.01430195  0.04768342       0.019
  -0.01706584  0.05793285  0.02384171       0.019
   0.03413168 -0.02787830 -0.04768342       0.019
   0.08368162  0.14737122  0.02384171       0.009
   0.04954994  0.02860384  0.07152513       0.009
  -0.04225271  0.07223468  0.02384171       0.019
   0.06661578  0.02932926  0.04768342       0.019
   0.05931855 -0.04218012 -0.04768342       0.019
  -0.00082379  0.08653663  0.07152513       0.019
  -0.01706584  0.08726199  0.02384171       0.019
   0.09992367  0.05865845  0.07152513       0.019
  -0.04225271 -0.07441100  0.02384171       0.009
   0.09180264  0.04435657  0.04768342       0.019
  -0.02601066 -0.04580722  0.07152513       0.009
  -0.01706584 -0.05938369  0.02384171       0.019
  -0.03413168 -0.03077997  0.04768342       0.019
  -0.01706584 -0.03005455  0.02384171       0.009
  -0.03413168  0.05720743  0.04768342       0.019
   0.09180264  0.16167311  0.04768342       0.009
   0.07473680  0.01430201  0.07152513       0.009
  -0.03413168  0.08653657  0.04768342       0.019
   0.09992367  0.02932932  0.07152513       0.019
  -0.03413168 -0.06010911  0.04768342       0.009
   0.09992367  0.17597499  0.07152513       0.005
 
 k-points in reciprocal lattice and weights: EA                                      
   0.00000000  0.00000000  0.00000000       0.005
   0.16666667 -0.00000000  0.00000000       0.019
   0.16666667 -0.00000000 -0.16666667       0.019
   0.33333333 -0.00000000  0.00000000       0.019
   0.33333333  0.00000000 -0.33333333       0.019
   0.50000000 -0.00000000  0.00000000       0.009
   0.50000000 -0.00000000  0.50000000       0.009
   0.16666667  0.16666667  0.00000000       0.009
   0.33333333 -0.00000000 -0.16666667       0.019
   0.16666667  0.16666667 -0.33333333       0.009
   0.33333333  0.16666667  0.00000000       0.019
   0.50000000 -0.00000000 -0.33333333       0.019
   0.16666667  0.33333333  0.50000000       0.019
   0.00000000  0.50000000 -0.16666667       0.019
   0.50000000  0.16666667  0.00000000       0.019
  -0.33333333 -0.00000000  0.50000000       0.019
   0.16666667  0.50000000  0.33333333       0.019
   0.00000000 -0.33333333 -0.16666667       0.019
  -0.33333333  0.16666667  0.00000000       0.019
  -0.16666667 -0.00000000  0.33333333       0.019
   0.16666667 -0.33333333  0.16666667       0.019
   0.00000000 -0.16666667 -0.16666667       0.019
  -0.16666667  0.16666667  0.00000000       0.009
  -0.00000000 -0.00000000  0.16666667       0.009
   0.33333333  0.33333333  0.00000000       0.009
  -0.33333333  0.00000000 -0.33333333       0.019
   0.33333333  0.33333333  0.33333333       0.009
   0.50000000  0.33333333  0.00000000       0.019
  -0.16666667 -0.00000000  0.50000000       0.019
   0.33333333  0.50000000  0.16666667       0.019
   0.00000000 -0.16666667 -0.33333333       0.019
  -0.33333333  0.33333333  0.00000000       0.009
  -0.00000000 -0.00000000  0.33333333       0.009
   0.50000000  0.50000000  0.00000000       0.005
   0.00000000 -0.00000000  0.50000000       0.005
   0.16666667  0.16666667  0.16666667       0.009
   0.50000000 -0.16666667 -0.16666667       0.019
   0.16666667  0.16666667  0.50000000       0.009
   0.33333333  0.16666667  0.16666667       0.019
  -0.33333333 -0.16666667 -0.33333333       0.019
  -0.16666667  0.16666667  0.16666667       0.019
   0.33333333  0.33333333  0.16666667       0.009
  -0.16666667 -0.16666667 -0.33333333       0.009
  -0.33333333  0.33333333  0.16666667       0.019
   0.16666667 -0.16666667  0.33333333       0.019
  -0.16666667  0.33333333  0.16666667       0.019
   0.33333333 -0.16666667 -0.33333333       0.019
   0.50000000  0.50000000  0.16666667       0.009
   0.16666667 -0.16666667  0.50000000       0.009
  -0.33333333  0.50000000  0.16666667       0.019
   0.33333333 -0.16666667  0.33333333       0.019
   0.50000000 -0.33333333 -0.33333333       0.019
  -0.16666667  0.33333333  0.50000000       0.019
  -0.16666667  0.50000000  0.16666667       0.019
   0.50000000 -0.16666667  0.50000000       0.019
  -0.33333333 -0.33333333  0.16666667       0.009
   0.50000000 -0.16666667  0.33333333       0.019
  -0.33333333 -0.33333333  0.50000000       0.009
  -0.16666667 -0.33333333  0.16666667       0.019
  -0.33333333 -0.16666667  0.33333333       0.019
  -0.16666667 -0.16666667  0.16666667       0.009
  -0.33333333  0.33333333  0.33333333       0.019
   0.50000000  0.50000000  0.33333333       0.009
   0.33333333 -0.33333333  0.50000000       0.009
  -0.33333333  0.50000000  0.33333333       0.019
   0.50000000 -0.33333333  0.50000000       0.019
  -0.33333333 -0.33333333  0.33333333       0.009
   0.50000000  0.50000000  0.50000000       0.005
 
 position of ions in fractional coordinates (direct lattice) 
   0.75000000  0.25000000  0.50000000
   0.25000000  0.75000000  0.50000000
   0.50000000  0.00000000  0.50000000
   0.74548000  0.52482000  0.27029000
   0.25452000  0.47518000  0.72971000
   0.00000000  0.50000000  0.50000000
   0.52482000  0.25452000  0.77934000
   0.47518000  0.74548000  0.22066000
   0.75452000  0.02482000  0.77934000
   0.24548000  0.97518000  0.22066000
   0.97518000  0.75452000  0.72971000
   0.02482000  0.24548000  0.27029000
   0.24291000  0.25709000  0.50000000
   0.75709000  0.74291000  0.50000000
   0.25709000  0.75709000  0.01419000
   0.74291000  0.24291000  0.98581000
 
 position of ions in cartesian coordinates  (Angst):
   4.11529329  1.42065788  1.24130559
  -0.88853153  4.26197365  1.24130559
   3.30860285  0.00000000  2.36829029
   3.15362171  2.98235868 -0.97374158
   0.07314004  2.70027285  3.45635276
  -1.69522197  2.84131576  2.36829029
   2.60990610  1.44634338  3.69140672
   0.61685565  4.23628815 -1.20879554
   4.90866322  0.14104291  3.69140672
  -1.68190147  5.54158861 -1.20879554
   3.89480889  4.28765914  1.20238335
  -0.66804713  1.39497239  1.28022783
   0.73573620  1.46094774  2.36829029
   2.49102555  4.22168379  0.11432088
  -0.86565379  4.30226350 -2.18673479
   4.09241554  1.38036802  4.66934597
 


--------------------------------------------------------------------------------------------------------


 k-point   1 :   0.0000 0.0000 0.0000  plane waves:    8723
 k-point   2 :   0.1667-0.0000 0.0000  plane waves:    8734
 k-point   3 :   0.1667-0.0000-0.1667  plane waves:    8734
 k-point   4 :   0.3333-0.0000 0.0000  plane waves:    8759
 k-point   5 :   0.3333 0.0000-0.3333  plane waves:    8759
 k-point   6 :   0.5000-0.0000 0.0000  plane waves:    8778
 k-point   7 :   0.5000-0.0000 0.5000  plane waves:    8778
 k-point   8 :   0.1667 0.1667 0.0000  plane waves:    8754
 k-point   9 :   0.3333-0.0000-0.1667  plane waves:    8754
 k-point  10 :   0.1667 0.1667-0.3333  plane waves:    8754
 k-point  11 :   0.3333 0.1667 0.0000  plane waves:    8774
 k-point  12 :   0.5000-0.0000-0.3333  plane waves:    8774
 k-point  13 :   0.1667 0.3333 0.5000  plane waves:    8774
 k-point  14 :   0.0000 0.5000-0.1667  plane waves:    8774
 k-point  15 :   0.5000 0.1667 0.0000  plane waves:    8782
 k-point  16 :  -0.3333-0.0000 0.5000  plane waves:    8782
 k-point  17 :   0.1667 0.5000 0.3333  plane waves:    8782
 k-point  18 :   0.0000-0.3333-0.1667  plane waves:    8782
 k-point  19 :  -0.3333 0.1667 0.0000  plane waves:    8767
 k-point  20 :  -0.1667-0.0000 0.3333  plane waves:    8767
 k-point  21 :   0.1667-0.3333 0.1667  plane waves:    8767
 k-point  22 :   0.0000-0.1667-0.1667  plane waves:    8767
 k-point  23 :  -0.1667 0.1667 0.0000  plane waves:    8767
 k-point  24 :  -0.0000-0.0000 0.1667  plane waves:    8767
 k-point  25 :   0.3333 0.3333 0.0000  plane waves:    8772
 k-point  26 :  -0.3333 0.0000-0.3333  plane waves:    8772
 k-point  27 :   0.3333 0.3333 0.3333  plane waves:    8772
 k-point  28 :   0.5000 0.3333 0.0000  plane waves:    8764
 k-point  29 :  -0.1667-0.0000 0.5000  plane waves:    8764
 k-point  30 :   0.3333 0.5000 0.1667  plane waves:    8764
 k-point  31 :   0.0000-0.1667-0.3333  plane waves:    8764
 k-point  32 :  -0.3333 0.3333 0.0000  plane waves:    8773
 k-point  33 :  -0.0000-0.0000 0.3333  plane waves:    8773
 k-point  34 :   0.5000 0.5000 0.0000  plane waves:    8778
 k-point  35 :   0.0000-0.0000 0.5000  plane waves:    8778
 k-point  36 :   0.1667 0.1667 0.1667  plane waves:    8774
 k-point  37 :   0.5000-0.1667-0.1667  plane waves:    8774
 k-point  38 :   0.1667 0.1667 0.5000  plane waves:    8774
 k-point  39 :   0.3333 0.1667 0.1667  plane waves:    8770
 k-point  40 :  -0.3333-0.1667-0.3333  plane waves:    8770
 k-point  41 :  -0.1667 0.1667 0.1667  plane waves:    8766
 k-point  42 :   0.3333 0.3333 0.1667  plane waves:    8758
 k-point  43 :  -0.1667-0.1667-0.3333  plane waves:    8758
 k-point  44 :  -0.3333 0.3333 0.1667  plane waves:    8770
 k-point  45 :   0.1667-0.1667 0.3333  plane waves:    8770
 k-point  46 :  -0.1667 0.3333 0.1667  plane waves:    8767
 k-point  47 :   0.3333-0.1667-0.3333  plane waves:    8767
 k-point  48 :   0.5000 0.5000 0.1667  plane waves:    8748
 k-point  49 :   0.1667-0.1667 0.5000  plane waves:    8748
 k-point  50 :  -0.3333 0.5000 0.1667  plane waves:    8783
 k-point  51 :   0.3333-0.1667 0.3333  plane waves:    8783
 k-point  52 :   0.5000-0.3333-0.3333  plane waves:    8783
 k-point  53 :  -0.1667 0.3333 0.5000  plane waves:    8783
 k-point  54 :  -0.1667 0.5000 0.1667  plane waves:    8791
 k-point  55 :   0.5000-0.1667 0.5000  plane waves:    8791
 k-point  56 :  -0.3333-0.3333 0.1667  plane waves:    8776
 k-point  57 :   0.5000-0.1667 0.3333  plane waves:    8776
 k-point  58 :  -0.3333-0.3333 0.5000  plane waves:    8776
 k-point  59 :  -0.1667-0.3333 0.1667  plane waves:    8776
 k-point  60 :  -0.3333-0.1667 0.3333  plane waves:    8776
 k-point  61 :  -0.1667-0.1667 0.1667  plane waves:    8768
 k-point  62 :  -0.3333 0.3333 0.3333  plane waves:    8786
 k-point  63 :   0.5000 0.5000 0.3333  plane waves:    8788
 k-point  64 :   0.3333-0.3333 0.5000  plane waves:    8788
 k-point  65 :  -0.3333 0.5000 0.3333  plane waves:    8786
 k-point  66 :   0.5000-0.3333 0.5000  plane waves:    8786
 k-point  67 :  -0.3333-0.3333 0.3333  plane waves:    8780
 k-point  68 :   0.5000 0.5000 0.5000  plane waves:    8808

 maximum and minimum number of plane-waves per node :      4440     4326

 maximum number of plane-waves:      8808
 maximum index in each direction: 
   IXMAX=   14   IYMAX=   14   IZMAX=   14
   IXMIN=  -14   IYMIN=  -14   IZMIN=  -14


 parallel 3D FFT for wavefunctions:
    minimum data exchange during FFTs selected (reduces bandwidth)
 parallel 3D FFT for charge:
    minimum data exchange during FFTs selected (reduces bandwidth)


 total amount of memory used by VASP MPI-rank0   450017. kBytes
=======================================================================

   base      :      30000. kBytes
   nonl-proj :     131566. kBytes
   fftplans  :      20133. kBytes
   grid      :      15504. kBytes
   one-center:        124. kBytes
   wavefun   :     252690. kBytes
 
     INWAV:  cpu time    0.0001: real time    0.0001
 Broyden mixing: mesh for mixing (old mesh)
   NGX = 27   NGY = 27   NGZ = 27
  (NGX  =112   NGY  =112   NGZ  =112)
  gives a total of  19683 points

 initial charge density was supplied:
 charge density of overlapping atoms calculated
 number of electron     162.0000000 magnetization 
 keeping initial charge density in first step


--------------------------------------------------------------------------------------------------------


 Maximum index for augmentation-charges        20227 (set IRDMAX)


--------------------------------------------------------------------------------------------------------


 First call to EWALD:  gamma=   0.277
 Maximum number of real-space cells 3x 3x 3
 Maximum number of reciprocal cells 3x 3x 3

    FEWALD:  cpu time    0.0051: real time    0.0051


--------------------------------------- Iteration      1(   1)  ---------------------------------------


    POTLOK:  cpu time    0.2643: real time    0.2666
    SETDIJ:  cpu time    0.6722: real time    0.6768
    TRIAL :  cpu time   34.5297: real time   34.8839
    CORREC:  cpu time    0.0022: real time    0.0022
    --------------------------------------------
      LOOP:  cpu time   35.5513: real time   35.9186

 eigenvalue-minimisations  : 14556
 total energy-change (2. order) : 0.2034286E+04  (-0.1128940E+05)
 number of electron     162.0000000 magnetization 
 augmentation part      162.0000000 magnetization 

 Free energy of the ion-electron system (eV)
  ---------------------------------------------------
  alpha Z        PSCENC =       860.24277673
  Ewald energy   TEWEN  =    -12574.08604222
  -Hartree energ DENC   =     -6159.58838142
  -exchange      EXHF   =         0.00000000
  -V(xc)+E(xc)   XCENC  =       776.00911665
  PAW double counting   =     15278.13859621   -15202.21075033
  entropy T*S    EENTRO =        -0.00129273
  eigenvalues    EBANDS =      -121.64846398
  atomic energy  EATOM  =     19177.43064738
  ---------------------------------------------------
  free energy    TOTEN  =      2034.28620629 eV

  energy without entropy =     2034.28749902  energy(sigma->0) =     2034.28685266


--------------------------------------------------------------------------------------------------------




--------------------------------------- Iteration      1(   2)  ---------------------------------------


    TRIAL :  cpu time   38.8478: real time   39.6290
    CORREC:  cpu time    0.0019: real time    0.0019
    --------------------------------------------
      LOOP:  cpu time   38.8524: real time   39.6339

 eigenvalue-minimisations  : 15132
 total energy-change (2. order) :-0.2242658E+04  (-0.2174695E+04)
 number of electron     162.0000000 magnetization 
 augmentation part      162.0000000 magnetization 

 Free energy of the ion-electron system (eV)
  ---------------------------------------------------
  alpha Z        PSCENC =       860.24277673
  Ewald energy   TEWEN  =    -12574.08604222
  -Hartree energ DENC   =     -6159.58838142
  -exchange      EXHF   =         0.00000000
  -V(xc)+E(xc)   XCENC  =       776.00911665
  PAW double counting   =     15278.13859621   -15202.21075033
  entropy T*S    EENTRO =        -0.00192199
  eigenvalues    EBANDS =     -2364.30544553
  atomic energy  EATOM  =     19177.43064738
  ---------------------------------------------------
  free energy    TOTEN  =      -208.37140452 eV

  energy without entropy =     -208.36948253  energy(sigma->0) =     -208.37044352


--------------------------------------------------------------------------------------------------------




--------------------------------------- Iteration      1(   3)  ---------------------------------------


    TRIAL :  cpu time   43.1499: real time   43.8871
    CORREC:  cpu time    0.0019: real time    0.0019
    --------------------------------------------
      LOOP:  cpu time   43.1532: real time   43.8920

 eigenvalue-minimisations  : 18030
 total energy-change (2. order) :-0.9268676E+02  (-0.8847641E+02)
 number of electron     162.0000000 magnetization 
 augmentation part      162.0000000 magnetization 

 Free energy of the ion-electron system (eV)
  ---------------------------------------------------
  alpha Z        PSCENC =       860.24277673
  Ewald energy   TEWEN  =    -12574.08604222
  -Hartree energ DENC   =     -6159.58838142
  -exchange      EXHF   =         0.00000000
  -V(xc)+E(xc)   XCENC  =       776.00911665
  PAW double counting   =     15278.13859621   -15202.21075033
  entropy T*S    EENTRO =        -0.00145539
  eigenvalues    EBANDS =     -2456.99267443
  atomic energy  EATOM  =     19177.43064738
  ---------------------------------------------------
  free energy    TOTEN  =      -301.05816683 eV

  energy without entropy =     -301.05671143  energy(sigma->0) =     -301.05743913


--------------------------------------------------------------------------------------------------------




--------------------------------------- Iteration      1(   4)  ---------------------------------------


    TRIAL :  cpu time   41.0257: real time   41.7859
    CORREC:  cpu time    0.0020: real time    0.0020
    --------------------------------------------
      LOOP:  cpu time   41.0283: real time   41.7908

 eigenvalue-minimisations  : 16872
 total energy-change (2. order) :-0.2351113E+01  (-0.2311232E+01)
 number of electron     162.0000000 magnetization 
 augmentation part      162.0000000 magnetization 

 Free energy of the ion-electron system (eV)
  ---------------------------------------------------
  alpha Z        PSCENC =       860.24277673
  Ewald energy   TEWEN  =    -12574.08604222
  -Hartree energ DENC   =     -6159.58838142
  -exchange      EXHF   =         0.00000000
  -V(xc)+E(xc)   XCENC  =       776.00911665
  PAW double counting   =     15278.13859621   -15202.21075033
  entropy T*S    EENTRO =        -0.00181948
  eigenvalues    EBANDS =     -2459.34342346
  atomic energy  EATOM  =     19177.43064738
  ---------------------------------------------------
  free energy    TOTEN  =      -303.40927994 eV

  energy without entropy =     -303.40746046  energy(sigma->0) =     -303.40837020


--------------------------------------------------------------------------------------------------------




--------------------------------------- Iteration      1(   5)  ---------------------------------------


    TRIAL :  cpu time   41.8359: real time   42.5206
    CORREC:  cpu time    0.0019: real time    0.0019
    CHARGE:  cpu time    2.4391: real time    2.4629
    --------------------------------------------
      LOOP:  cpu time   44.2786: real time   45.0694

 eigenvalue-minimisations  : 16986
 total energy-change (2. order) :-0.5424512E-01  (-0.5404724E-01)
 number of electron     162.0000001 magnetization 
 augmentation part       22.8515405 magnetization 

 Free energy of the ion-electron system (eV)
  ---------------------------------------------------
  alpha Z        PSCENC =       860.24277673
  Ewald energy   TEWEN  =    -12574.08604222
  -Hartree energ DENC   =     -6159.58838142
  -exchange      EXHF   =         0.00000000
  -V(xc)+E(xc)   XCENC  =       776.00911665
  PAW double counting   =     15278.13859621   -15202.21075033
  entropy T*S    EENTRO =        -0.00186993
  eigenvalues    EBANDS =     -2459.39761814
  atomic energy  EATOM  =     19177.43064738
  ---------------------------------------------------
  free energy    TOTEN  =      -303.46352506 eV

  energy without entropy =     -303.46165514  energy(sigma->0) =     -303.46259010


--------------------------------------------------------------------------------------------------------




--------------------------------------- Iteration      1(   6)  ---------------------------------------


    POTLOK:  cpu time    0.2067: real time    0.2080
    SETDIJ:  cpu time    0.6457: real time    0.6498
    TRIAL :  cpu time   29.7192: real time   30.1019
    CORREC:  cpu time   11.3855: real time   11.4950
    CHARGE:  cpu time    2.8716: real time    2.8966
    --------------------------------------------
      LOOP:  cpu time   44.8543: real time   45.3777

 eigenvalue-minimisations  :     0
 total energy-change (2. order) : 0.8995844E+02  (-0.1448503E+02)
 number of electron     162.0000001 magnetization 
 augmentation part       24.0137862 magnetization 

 Free energy of the ion-electron system (eV)
  ---------------------------------------------------
  alpha Z        PSCENC =       860.24277673
  Ewald energy   TEWEN  =    -12574.08604222
  -Hartree energ DENC   =     -6306.84371611
  -exchange      EXHF   =         0.00000000
  -V(xc)+E(xc)   XCENC  =       802.75021880
  PAW double counting   =     36421.33056607   -36381.94994473
  entropy T*S    EENTRO =        -0.00226444
  eigenvalues    EBANDS =     -2212.37772158
  atomic energy  EATOM  =     19177.43064738
  ---------------------------------------------------
  free energy    TOTEN  =      -213.50508558 eV

  energy without entropy =     -213.50282115  energy(sigma->0) =     -213.50395336


--------------------------------------------------------------------------------------------------------




--------------------------------------- Iteration      1(   7)  ---------------------------------------


    POTLOK:  cpu time    0.1674: real time    0.1690
    SETDIJ:  cpu time    0.6313: real time    0.6358
    TRIAL :  cpu time   36.3430: real time   36.9531
    CORREC:  cpu time   10.9169: real time   11.0207
    CHARGE:  cpu time    3.5091: real time    3.5381
    --------------------------------------------
      LOOP:  cpu time   51.5684: real time   52.3187

 eigenvalue-minimisations  :     0
 total energy-change (2. order) :-0.1453605E+02  (-0.3051717E+01)
 number of electron     162.0000001 magnetization 
 augmentation part       24.2183828 magnetization 

 Free energy of the ion-electron system (eV)
  ---------------------------------------------------
  alpha Z        PSCENC =       860.24277673
  Ewald energy   TEWEN  =    -12574.08604222
  -Hartree energ DENC   =     -6226.24446882
  -exchange      EXHF   =         0.00000000
  -V(xc)+E(xc)   XCENC  =       803.72628626
  PAW double counting   =     34821.98246631   -34771.80145472
  entropy T*S    EENTRO =        -0.00187903
  eigenvalues    EBANDS =     -2319.28908622
  atomic energy  EATOM  =     19177.43064738
  ---------------------------------------------------
  free energy    TOTEN  =      -228.04113974 eV

  energy without entropy =     -228.03926070  energy(sigma->0) =     -228.04020022


--------------------------------------------------------------------------------------------------------




--------------------------------------- Iteration      1(   8)  ---------------------------------------


    POTLOK:  cpu time    0.1729: real time    0.1740
    SETDIJ:  cpu time    0.6325: real time    0.6367
    TRIAL :  cpu time   35.3172: real time   35.7169
    CORREC:  cpu time   10.7152: real time   10.8155
    CHARGE:  cpu time    3.2881: real time    3.3139
    --------------------------------------------
      LOOP:  cpu time   50.1275: real time   50.6588

 eigenvalue-minimisations  :     0
 total energy-change (2. order) :-0.3052505E+01  (-0.7362449E+00)
 number of electron     162.0000001 magnetization 
 augmentation part       24.3731059 magnetization 

 Free energy of the ion-electron system (eV)
  ---------------------------------------------------
  alpha Z        PSCENC =       860.24277673
  Ewald energy   TEWEN  =    -12574.08604222
  -Hartree energ DENC   =     -6211.87892652
  -exchange      EXHF   =         0.00000000
  -V(xc)+E(xc)   XCENC  =       803.19388630
  PAW double counting   =     34380.39523042   -34326.63511764
  entropy T*S    EENTRO =        -0.00311960
  eigenvalues    EBANDS =     -2339.75421981
  atomic energy  EATOM  =     19177.43064738
  ---------------------------------------------------
  free energy    TOTEN  =      -231.09364439 eV

  energy without entropy =     -231.09052478  energy(sigma->0) =     -231.09208459


--------------------------------------------------------------------------------------------------------




--------------------------------------- Iteration      1(   9)  ---------------------------------------


    POTLOK:  cpu time    0.1868: real time    0.1882
    SETDIJ:  cpu time    0.6093: real time    0.6133
    TRIAL :  cpu time   36.9123: real time   37.4402
    CORREC:  cpu time   11.5055: real time   11.6171
    CHARGE:  cpu time    2.9616: real time    2.9866
    --------------------------------------------
      LOOP:  cpu time   52.1773: real time   52.8483

 eigenvalue-minimisations  :     0
 total energy-change (2. order) :-0.7356596E+00  (-0.3254504E+00)
 number of electron     162.0000001 magnetization 
 augmentation part       24.3149317 magnetization 

 Free energy of the ion-electron system (eV)
  ---------------------------------------------------
  alpha Z        PSCENC =       860.24277673
  Ewald energy   TEWEN  =    -12574.08604222
  -Hartree energ DENC   =     -6230.26692298
  -exchange      EXHF   =         0.00000000
  -V(xc)+E(xc)   XCENC  =       803.84334499
  PAW double counting   =     34483.59563787   -34427.47997145
  entropy T*S    EENTRO =        -0.00289226
  eigenvalues    EBANDS =     -2325.10565476
  atomic energy  EATOM  =     19177.43064738
  ---------------------------------------------------
  free energy    TOTEN  =      -231.82930403 eV

  energy without entropy =     -231.82641177  energy(sigma->0) =     -231.82785790


--------------------------------------------------------------------------------------------------------




--------------------------------------- Iteration      1(  10)  ---------------------------------------


    POTLOK:  cpu time    0.1738: real time    0.1750
    SETDIJ:  cpu time    0.6755: real time    0.6800
    TRIAL :  cpu time   35.3213: real time   36.0270
    CORREC:  cpu time   13.8718: real time   14.0026
    CHARGE:  cpu time    2.7501: real time    2.7739
    --------------------------------------------
      LOOP:  cpu time   52.7941: real time   53.6607

 eigenvalue-minimisations  :     0
 total energy-change (2. order) :-0.3252637E+00  (-0.1201147E+00)
 number of electron     162.0000001 magnetization 
 augmentation part       24.2590421 magnetization 

 Free energy of the ion-electron system (eV)
  ---------------------------------------------------
  alpha Z        PSCENC =       860.24277673
  Ewald energy   TEWEN  =    -12574.08604222
  -Hartree energ DENC   =     -6226.06956485
  -exchange      EXHF   =         0.00000000
  -V(xc)+E(xc)   XCENC  =       803.83886525
  PAW double counting   =     34680.23273585   -34623.55610803
  entropy T*S    EENTRO =        -0.00304141
  eigenvalues    EBANDS =     -2330.18498561
  atomic energy  EATOM  =     19177.43064738
  ---------------------------------------------------
  free energy    TOTEN  =      -232.15456775 eV

  energy without entropy =     -232.15152634  energy(sigma->0) =     -232.15304704


--------------------------------------------------------------------------------------------------------




--------------------------------------- Iteration      1(  11)  ---------------------------------------


    POTLOK:  cpu time    0.1703: real time    0.1715
    SETDIJ:  cpu time    0.6370: real time    0.6412
    TRIAL :  cpu time   38.1215: real time   38.6271
    CORREC:  cpu time   10.8728: real time   10.9755
    CHARGE:  cpu time    2.5849: real time    2.6068
    --------------------------------------------
      LOOP:  cpu time   52.7658: real time   53.4045

 eigenvalue-minimisations  :     0
 total energy-change (2. order) :-0.1202048E+00  (-0.4655791E-01)
 number of electron     162.0000001 magnetization 
 augmentation part       24.2689486 magnetization 

 Free energy of the ion-electron system (eV)
  ---------------------------------------------------
  alpha Z        PSCENC =       860.24277673
  Ewald energy   TEWEN  =    -12574.08604222
  -Hartree energ DENC   =     -6219.52995657
  -exchange      EXHF   =         0.00000000
  -V(xc)+E(xc)   XCENC  =       803.65150597
  PAW double counting   =     34768.82011239   -34712.34010721
  entropy T*S    EENTRO =        -0.00308572
  eigenvalues    EBANDS =     -2336.46066764
  atomic energy  EATOM  =     19177.43064738
  ---------------------------------------------------
  free energy    TOTEN  =      -232.27477257 eV

  energy without entropy =     -232.27168685  energy(sigma->0) =     -232.27322971


--------------------------------------------------------------------------------------------------------




--------------------------------------- Iteration      1(  12)  ---------------------------------------


    POTLOK:  cpu time    0.1708: real time    0.1720
    SETDIJ:  cpu time    0.6423: real time    0.6469
    TRIAL :  cpu time   39.7635: real time   40.3260
    CORREC:  cpu time   12.7301: real time   12.8443
    CHARGE:  cpu time    3.5460: real time    3.5738
    --------------------------------------------
      LOOP:  cpu time   56.8556: real time   57.5666

 eigenvalue-minimisations  :     0
 total energy-change (2. order) :-0.4650320E-01  (-0.1757264E-01)
 number of electron     162.0000001 magnetization 
 augmentation part       24.2696701 magnetization 

 Free energy of the ion-electron system (eV)
  ---------------------------------------------------
  alpha Z        PSCENC =       860.24277673
  Ewald energy   TEWEN  =    -12574.08604222
  -Hartree energ DENC   =     -6219.47227926
  -exchange      EXHF   =         0.00000000
  -V(xc)+E(xc)   XCENC  =       803.62445079
  PAW double counting   =     34754.51378564   -34698.14782404
  entropy T*S    EENTRO =        -0.00291608
  eigenvalues    EBANDS =     -2336.42370509
  atomic energy  EATOM  =     19177.43064738
  ---------------------------------------------------
  free energy    TOTEN  =      -232.32127578 eV

  energy without entropy =     -232.31835970  energy(sigma->0) =     -232.31981774


--------------------------------------------------------------------------------------------------------




--------------------------------------- Iteration      1(  13)  ---------------------------------------


    POTLOK:  cpu time    0.2365: real time    0.2382
    SETDIJ:  cpu time    0.6507: real time    0.6549
    TRIAL :  cpu time   37.3736: real time   38.1212
    CORREC:  cpu time   11.6154: real time   11.7285
    CHARGE:  cpu time    3.5286: real time    3.5572
    --------------------------------------------
      LOOP:  cpu time   53.4079: real time   54.3035

 eigenvalue-minimisations  :     0
 total energy-change (2. order) :-0.1755777E-01  (-0.6098374E-02)
 number of electron     162.0000001 magnetization 
 augmentation part       24.2664550 magnetization 

 Free energy of the ion-electron system (eV)
  ---------------------------------------------------
  alpha Z        PSCENC =       860.24277673
  Ewald energy   TEWEN  =    -12574.08604222
  -Hartree energ DENC   =     -6217.64708402
  -exchange      EXHF   =         0.00000000
  -V(xc)+E(xc)   XCENC  =       803.56136251
  PAW double counting   =     34718.30432821   -34662.07538255
  entropy T*S    EENTRO =        -0.00276819
  eigenvalues    EBANDS =     -2338.06652352
  atomic energy  EATOM  =     19177.43064738
  ---------------------------------------------------
  free energy    TOTEN  =      -232.33883355 eV

  energy without entropy =     -232.33606536  energy(sigma->0) =     -232.33744945


--------------------------------------------------------------------------------------------------------




--------------------------------------- Iteration      1(  14)  ---------------------------------------


    POTLOK:  cpu time    0.1718: real time    0.1731
    SETDIJ:  cpu time    0.8758: real time    0.8817
    TRIAL :  cpu time   35.8942: real time   36.4305
    CORREC:  cpu time   11.9696: real time   12.0810
    CHARGE:  cpu time    2.9471: real time    2.9714
    --------------------------------------------
      LOOP:  cpu time   52.1878: real time   52.8701

 eigenvalue-minimisations  :     0
 total energy-change (2. order) :-0.6100171E-02  (-0.2232827E-02)
 number of electron     162.0000001 magnetization 
 augmentation part       24.2671936 magnetization 

 Free energy of the ion-electron system (eV)
  ---------------------------------------------------
  alpha Z        PSCENC =       860.24277673
  Ewald energy   TEWEN  =    -12574.08604222
  -Hartree energ DENC   =     -6216.72225325
  -exchange      EXHF   =         0.00000000
  -V(xc)+E(xc)   XCENC  =       803.52202000
  PAW double counting   =     34684.04495440   -34627.88463476
  entropy T*S    EENTRO =        -0.00269340
  eigenvalues    EBANDS =     -2338.88963382
  atomic energy  EATOM  =     19177.43064738
  ---------------------------------------------------
  free energy    TOTEN  =      -232.34493372 eV

  energy without entropy =     -232.34224032  energy(sigma->0) =     -232.34358702


--------------------------------------------------------------------------------------------------------




--------------------------------------- Iteration      1(  15)  ---------------------------------------


    POTLOK:  cpu time    0.1740: real time    0.1754
    SETDIJ:  cpu time    0.6702: real time    0.6747
    TRIAL :  cpu time   36.6276: real time   37.1297
    CORREC:  cpu time   11.7043: real time   11.8170
    CHARGE:  cpu time    2.6690: real time    2.6926
    --------------------------------------------
      LOOP:  cpu time   51.8791: real time   52.5243

 eigenvalue-minimisations  :     0
 total energy-change (2. order) :-0.2235708E-02  (-0.8171644E-03)
 number of electron     162.0000001 magnetization 
 augmentation part       24.2682915 magnetization 

 Free energy of the ion-electron system (eV)
  ---------------------------------------------------
  alpha Z        PSCENC =       860.24277673
  Ewald energy   TEWEN  =    -12574.08604222
  -Hartree energ DENC   =     -6217.24852052
  -exchange      EXHF   =         0.00000000
  -V(xc)+E(xc)   XCENC  =       803.53067505
  PAW double counting   =     34652.89119058   -34596.72443697
  entropy T*S    EENTRO =        -0.00267747
  eigenvalues    EBANDS =     -2338.38076607
  atomic energy  EATOM  =     19177.43064738
  ---------------------------------------------------
  free energy    TOTEN  =      -232.34716943 eV

  energy without entropy =     -232.34449196  energy(sigma->0) =     -232.34583069


--------------------------------------------------------------------------------------------------------




--------------------------------------- Iteration      1(  16)  ---------------------------------------


    POTLOK:  cpu time    0.1676: real time    0.1687
    SETDIJ:  cpu time    0.7047: real time    0.7109
    TRIAL :  cpu time   35.9216: real time   36.2761
    CORREC:  cpu time   11.4171: real time   11.5254
    CHARGE:  cpu time    3.3696: real time    3.3978
    --------------------------------------------
      LOOP:  cpu time   51.5829: real time   52.0821

 eigenvalue-minimisations  :     0
 total energy-change (2. order) :-0.8176219E-03  (-0.3177110E-03)
 number of electron     162.0000001 magnetization 
 augmentation part       24.2685183 magnetization 

 Free energy of the ion-electron system (eV)
  ---------------------------------------------------
  alpha Z        PSCENC =       860.24277673
  Ewald energy   TEWEN  =    -12574.08604222
  -Hartree energ DENC   =     -6217.20502451
  -exchange      EXHF   =         0.00000000
  -V(xc)+E(xc)   XCENC  =       803.53589991
  PAW double counting   =     34634.27227409   -34578.08401990
  entropy T*S    EENTRO =        -0.00267516
  eigenvalues    EBANDS =     -2338.45182107
  atomic energy  EATOM  =     19177.43064738
  ---------------------------------------------------
  free energy    TOTEN  =      -232.34798705 eV

  energy without entropy =     -232.34531189  energy(sigma->0) =     -232.34664947


--------------------------------------------------------------------------------------------------------




--------------------------------------- Iteration      1(  17)  ---------------------------------------


    POTLOK:  cpu time    0.1686: real time    0.1698
    SETDIJ:  cpu time    0.7056: real time    0.7105
    TRIAL :  cpu time   36.2331: real time   36.6165
    CORREC:  cpu time   10.8955: real time   11.0064
    CHARGE:  cpu time    2.8505: real time    2.8734
    --------------------------------------------
      LOOP:  cpu time   50.8543: real time   51.3788

 eigenvalue-minimisations  :     0
 total energy-change (2. order) :-0.3177665E-03  (-0.2408249E-03)
 number of electron     162.0000001 magnetization 
 augmentation part       24.2684497 magnetization 

 Free energy of the ion-electron system (eV)
  ---------------------------------------------------
  alpha Z        PSCENC =       860.24277673
  Ewald energy   TEWEN  =    -12574.08604222
  -Hartree energ DENC   =     -6217.17647077
  -exchange      EXHF   =         0.00000000
  -V(xc)+E(xc)   XCENC  =       803.53562213
  PAW double counting   =     34627.82355745   -34571.63024754
  entropy T*S    EENTRO =        -0.00267789
  eigenvalues    EBANDS =     -2338.48547281
  atomic energy  EATOM  =     19177.43064738
  ---------------------------------------------------
  free energy    TOTEN  =      -232.34830482 eV

  energy without entropy =     -232.34562692  energy(sigma->0) =     -232.34696587


--------------------------------------------------------------------------------------------------------




--------------------------------------- Iteration      1(  18)  ---------------------------------------


    POTLOK:  cpu time    0.1679: real time    0.1690
    SETDIJ:  cpu time    0.7752: real time    0.7802
    TRIAL :  cpu time   38.3744: real time   39.0007
    CORREC:  cpu time   11.1828: real time   11.2900
    CHARGE:  cpu time    2.7579: real time    2.7818
    --------------------------------------------
      LOOP:  cpu time   53.5657: real time   54.3314

 eigenvalue-minimisations  :     0
 total energy-change (2. order) :-0.2407347E-03  (-0.1161029E-03)
 number of electron     162.0000001 magnetization 
 augmentation part       24.2685918 magnetization 

 Free energy of the ion-electron system (eV)
  ---------------------------------------------------
  alpha Z        PSCENC =       860.24277673
  Ewald energy   TEWEN  =    -12574.08604222
  -Hartree energ DENC   =     -6217.19730881
  -exchange      EXHF   =         0.00000000
  -V(xc)+E(xc)   XCENC  =       803.53390165
  PAW double counting   =     34626.29773823   -34570.10585276
  entropy T*S    EENTRO =        -0.00268896
  eigenvalues    EBANDS =     -2338.46172787
  atomic energy  EATOM  =     19177.43064738
  ---------------------------------------------------
  free energy    TOTEN  =      -232.34854555 eV

  energy without entropy =     -232.34585659  energy(sigma->0) =     -232.34720107


--------------------------------------------------------------------------------------------------------




--------------------------------------- Iteration      1(  19)  ---------------------------------------


    POTLOK:  cpu time    0.1703: real time    0.1715
    SETDIJ:  cpu time    1.1186: real time    1.1262
    TRIAL :  cpu time   36.9665: real time   37.3322
    CORREC:  cpu time   12.2816: real time   12.3858
    CHARGE:  cpu time    3.1741: real time    3.1988
    --------------------------------------------
      LOOP:  cpu time   53.7117: real time   54.2164

 eigenvalue-minimisations  :     0
 total energy-change (2. order) :-0.1158632E-03  (-0.3857407E-04)
 number of electron     162.0000001 magnetization 
 augmentation part       24.2685711 magnetization 

 Free energy of the ion-electron system (eV)
  ---------------------------------------------------
  alpha Z        PSCENC =       860.24277673
  Ewald energy   TEWEN  =    -12574.08604222
  -Hartree energ DENC   =     -6217.17611193
  -exchange      EXHF   =         0.00000000
  -V(xc)+E(xc)   XCENC  =       803.53504316
  PAW double counting   =     34630.71975421   -34574.52625469
  entropy T*S    EENTRO =        -0.00269749
[...]
     32     -26.8590      2.00000
     33     -26.8520      2.00000
     34     -26.8126      2.00000
     35     -26.6370      2.00000
     36     -26.5782      2.00000
     37     -25.1881      2.00000
     38     -25.1808      2.00000
     39     -24.8854      2.00000
     40     -24.8831      2.00000
     41      -1.2128      2.00000
     42      -0.4363      2.00000
     43       0.2098      2.00000
     44       0.3580      2.00000
     45       1.2362      2.00000
     46       1.7731      2.00000
     47       2.1383      2.00000
     48       2.1710      2.00000
     49       2.4423      2.00000
     50       2.5908      2.00000
     51       2.7463      2.00000
     52       3.0819      2.00000
     53       3.1516      2.00000
     54       3.4711      2.00000
     55       3.6926      2.00000
     56       3.8732      2.00000
     57       4.0491      2.00000
     58       4.1918      2.00000
     59       4.4839      2.00000
     60       5.0156      2.00000
     61       5.2452      2.00000
     62       5.4677      2.00000
     63       5.5015      2.00000
     64       5.5098      2.00000
     65       5.5675      2.00000
     66       5.9230      2.00000
     67       6.0323      2.00000
     68       6.1148      2.00000
     69       6.5189      2.00000
     70       6.7737      2.00000
     71       7.0524      2.00000
     72       7.0841      2.00000
     73       7.3585      2.00000
     74       7.4386      2.00000
     75       7.7571      2.00000
     76       8.1104      2.00000
     77       8.2039      2.00000
     78       8.2056      2.00000
     79       8.4133      2.00000
     80       8.4277      2.00000
     81       9.0367      0.00000
     82       9.2344      0.00000
     83       9.3575      0.00000
     84       9.4890      0.00000
     85       9.6594      0.00000
     86       9.7146      0.00000
     87       9.9517      0.00000
     88       9.9599      0.00000
     89       9.9935      0.00000
     90      10.2933      0.00000
     91      10.4882      0.00000
     92      10.7674      0.00000
     93      10.8537      0.00000
     94      10.9672      0.00000
     95      11.3822      0.00000
     96      11.5867      0.00000
     97      11.8126      0.00000
     98      12.0855      0.00000
     99      12.2134      0.00000
    100      12.2958      0.00000
    101      12.4579      0.00000
    102      12.9617      0.00000

 k-point    65 :      -0.3333    0.5000    0.3333
  band No.  band energies     occupation 
      1     -55.0613      2.00000
      2     -55.0405      2.00000
      3     -53.7984      2.00000
      4     -53.7980      2.00000
      5     -53.6771      2.00000
      6     -53.6662      2.00000
      7     -53.6569      2.00000
      8     -53.5979      2.00000
      9     -53.1333      2.00000
     10     -53.0765      2.00000
     11     -30.9545      2.00000
     12     -30.9539      2.00000
     13     -30.2727      2.00000
     14     -30.2723      2.00000
     15     -28.5052      2.00000
     16     -28.2453      2.00000
     17     -28.1557      2.00000
     18     -28.1033      2.00000
     19     -28.0980      2.00000
     20     -28.0720      2.00000
     21     -27.8679      2.00000
     22     -27.6678      2.00000
     23     -27.6503      2.00000
     24     -27.5811      2.00000
     25     -27.4744      2.00000
     26     -27.3666      2.00000
     27     -27.3325      2.00000
     28     -27.1469      2.00000
     29     -26.9666      2.00000
     30     -26.9665      2.00000
     31     -26.8781      2.00000
     32     -26.8629      2.00000
     33     -26.8537      2.00000
     34     -26.8089      2.00000
     35     -26.6408      2.00000
     36     -26.5750      2.00000
     37     -25.1814      2.00000
     38     -25.1813      2.00000
     39     -24.8864      2.00000
     40     -24.8862      2.00000
     41      -1.3345      2.00000
     42      -0.3082      2.00000
     43       0.2589      2.00000
     44       0.4498      2.00000
     45       1.1715      2.00000
     46       1.7366      2.00000
     47       1.8198      2.00000
     48       2.3460      2.00000
     49       2.5695      2.00000
     50       2.5930      2.00000
     51       2.7044      2.00000
     52       3.0191      2.00000
     53       3.4139      2.00000
     54       3.6062      2.00000
     55       3.6153      2.00000
     56       3.8704      2.00000
     57       3.9336      2.00000
     58       3.9606      2.00000
     59       4.4350      2.00000
     60       4.8784      2.00000
     61       5.2450      2.00000
     62       5.4151      2.00000
     63       5.4953      2.00000
     64       5.7307      2.00000
     65       5.7647      2.00000
     66       5.8167      2.00000
     67       6.1106      2.00000
     68       6.2837      2.00000
     69       6.4004      2.00000
     70       6.6770      2.00000
     71       7.0144      2.00000
     72       7.0644      2.00000
     73       7.3458      2.00000
     74       7.3474      2.00000
     75       7.8005      2.00000
     76       7.9475      2.00000
     77       8.1435      2.00000
     78       8.2983      2.00000
     79       8.3678      2.00000
     80       8.9754      0.00000
     81       9.0041      0.00000
     82       9.2720      0.00000
     83       9.3102      0.00000
     84       9.3645      0.00000
     85       9.5270      0.00000
     86       9.6734      0.00000
     87       9.8196      0.00000
     88       9.9339      0.00000
     89      10.1127      0.00000
     90      10.4762      0.00000
     91      10.6380      0.00000
     92      10.6609      0.00000
     93      11.0258      0.00000
     94      11.2323      0.00000
     95      11.4465      0.00000
     96      11.6091      0.00000
     97      11.7054      0.00000
     98      11.8336      0.00000
     99      12.0248      0.00000
    100      12.2381      0.00000
    101      12.6973      0.00000
    102      13.0547      0.00000

 k-point    66 :       0.5000   -0.3333    0.5000
  band No.  band energies     occupation 
      1     -55.0613      2.00000
      2     -55.0405      2.00000
      3     -53.7984      2.00000
      4     -53.7980      2.00000
      5     -53.6771      2.00000
      6     -53.6662      2.00000
      7     -53.6569      2.00000
      8     -53.5979      2.00000
      9     -53.1333      2.00000
     10     -53.0765      2.00000
     11     -30.9545      2.00000
     12     -30.9539      2.00000
     13     -30.2727      2.00000
     14     -30.2723      2.00000
     15     -28.5052      2.00000
     16     -28.2453      2.00000
     17     -28.1557      2.00000
     18     -28.1033      2.00000
     19     -28.0980      2.00000
     20     -28.0720      2.00000
     21     -27.8679      2.00000
     22     -27.6678      2.00000
     23     -27.6503      2.00000
     24     -27.5811      2.00000
     25     -27.4744      2.00000
     26     -27.3666      2.00000
     27     -27.3325      2.00000
     28     -27.1469      2.00000
     29     -26.9666      2.00000
     30     -26.9665      2.00000
     31     -26.8781      2.00000
     32     -26.8629      2.00000
     33     -26.8537      2.00000
     34     -26.8089      2.00000
     35     -26.6408      2.00000
     36     -26.5750      2.00000
     37     -25.1814      2.00000
     38     -25.1813      2.00000
     39     -24.8864      2.00000
     40     -24.8862      2.00000
     41      -1.3345      2.00000
     42      -0.3082      2.00000
     43       0.2589      2.00000
     44       0.4498      2.00000
     45       1.1715      2.00000
     46       1.7366      2.00000
     47       1.8198      2.00000
     48       2.3459      2.00000
     49       2.5695      2.00000
     50       2.5930      2.00000
     51       2.7044      2.00000
     52       3.0191      2.00000
     53       3.4139      2.00000
     54       3.6062      2.00000
     55       3.6153      2.00000
     56       3.8704      2.00000
     57       3.9336      2.00000
     58       3.9606      2.00000
     59       4.4350      2.00000
     60       4.8783      2.00000
     61       5.2450      2.00000
     62       5.4151      2.00000
     63       5.4953      2.00000
     64       5.7307      2.00000
     65       5.7647      2.00000
     66       5.8167      2.00000
     67       6.1106      2.00000
     68       6.2837      2.00000
     69       6.4004      2.00000
     70       6.6770      2.00000
     71       7.0144      2.00000
     72       7.0644      2.00000
     73       7.3458      2.00000
     74       7.3474      2.00000
     75       7.8005      2.00000
     76       7.9475      2.00000
     77       8.1435      2.00000
     78       8.2982      2.00000
     79       8.3678      2.00000
     80       8.9754      0.00000
     81       9.0041      0.00000
     82       9.2720      0.00000
     83       9.3101      0.00000
     84       9.3645      0.00000
     85       9.5270      0.00000
     86       9.6734      0.00000
     87       9.8196      0.00000
     88       9.9338      0.00000
     89      10.1127      0.00000
     90      10.4762      0.00000
     91      10.6379      0.00000
     92      10.6608      0.00000
     93      11.0258      0.00000
     94      11.2324      0.00000
     95      11.4465      0.00000
     96      11.6091      0.00000
     97      11.7055      0.00000
     98      11.8349      0.00000
     99      12.0277      0.00000
    100      12.2389      0.00000
    101      12.7237      0.00000
    102      13.0303      0.00000

 k-point    67 :      -0.3333   -0.3333    0.3333
  band No.  band energies     occupation 
      1     -55.0629      2.00000
      2     -55.0389      2.00000
      3     -53.7975      2.00000
      4     -53.7973      2.00000
      5     -53.6754      2.00000
      6     -53.6646      2.00000
      7     -53.6645      2.00000
      8     -53.5947      2.00000
      9     -53.1380      2.00000
     10     -53.0723      2.00000
     11     -30.9543      2.00000
     12     -30.9536      2.00000
     13     -30.2720      2.00000
     14     -30.2716      2.00000
     15     -28.5209      2.00000
     16     -28.1634      2.00000
     17     -28.1578      2.00000
     18     -28.1574      2.00000
     19     -28.0968      2.00000
     20     -28.0731      2.00000
     21     -27.9102      2.00000
     22     -27.6651      2.00000
     23     -27.5920      2.00000
     24     -27.5510      2.00000
     25     -27.5508      2.00000
     26     -27.3649      2.00000
     27     -27.3392      2.00000
     28     -27.1256      2.00000
     29     -26.9652      2.00000
     30     -26.9651      2.00000
     31     -26.8808      2.00000
     32     -26.8608      2.00000
     33     -26.8608      2.00000
     34     -26.8032      2.00000
     35     -26.6446      2.00000
     36     -26.5722      2.00000
     37     -25.1824      2.00000
     38     -25.1823      2.00000
     39     -24.8854      2.00000
     40     -24.8852      2.00000
     41      -1.5069      2.00000
     42       0.0644      2.00000
     43       0.4335      2.00000
     44       0.4337      2.00000
     45       1.0927      2.00000
     46       1.1165      2.00000
     47       1.8666      2.00000
     48       2.5619      2.00000
     49       2.5621      2.00000
     50       2.8050      2.00000
     51       2.8053      2.00000
     52       2.9283      2.00000
     53       3.5236      2.00000
     54       3.5552      2.00000
     55       3.5896      2.00000
     56       3.5897      2.00000
     57       3.8689      2.00000
     58       4.2526      2.00000
     59       4.3002      2.00000
     60       4.6191      2.00000
     61       5.2898      2.00000
     62       5.2902      2.00000
     63       5.4415      2.00000
     64       5.7908      2.00000
     65       5.7910      2.00000
     66       5.9543      2.00000
     67       5.9913      2.00000
     68       6.7287      2.00000
     69       6.7881      2.00000
     70       6.7883      2.00000
     71       6.9962      2.00000
     72       7.0347      2.00000
     73       7.1974      2.00000
     74       7.2341      2.00000
     75       7.7424      2.00000
     76       7.7425      2.00000
     77       8.2243      2.00000
     78       8.2245      2.00000
     79       8.3172      2.00000
     80       8.8348      1.99999
     81       8.8348      1.99999
     82       9.1498      0.00000
     83       9.1773      0.00000
     84       9.6058      0.00000
     85       9.8042      0.00000
     86       9.8793      0.00000
     87       9.8794      0.00000
     88       9.8979      0.00000
     89      10.1945      0.00000
     90      10.3407      0.00000
     91      10.9686      0.00000
     92      10.9687      0.00000
     93      11.1223      0.00000
     94      11.2310      0.00000
     95      11.2547      0.00000
     96      11.2547      0.00000
     97      11.8513      0.00000
     98      11.9322      0.00000
     99      11.9408      0.00000
    100      12.2252      0.00000
    101      12.4089      0.00000
    102      12.7294      0.00000

 k-point    68 :       0.5000    0.5000    0.5000
  band No.  band energies     occupation 
      1     -55.0629      2.00000
      2     -55.0389      2.00000
      3     -53.7975      2.00000
      4     -53.7974      2.00000
      5     -53.6756      2.00000
      6     -53.6645      2.00000
      7     -53.6644      2.00000
      8     -53.5945      2.00000
      9     -53.1380      2.00000
     10     -53.0723      2.00000
     11     -30.9542      2.00000
     12     -30.9536      2.00000
     13     -30.2721      2.00000
     14     -30.2717      2.00000
     15     -28.5203      2.00000
     16     -28.1635      2.00000
     17     -28.1580      2.00000
     18     -28.1576      2.00000
     19     -28.1001      2.00000
     20     -28.0700      2.00000
     21     -27.9104      2.00000
     22     -27.6655      2.00000
     23     -27.5917      2.00000
     24     -27.5509      2.00000
     25     -27.5508      2.00000
     26     -27.3651      2.00000
     27     -27.3392      2.00000
     28     -27.1255      2.00000
     29     -26.9654      2.00000
     30     -26.9653      2.00000
     31     -26.8764      2.00000
     32     -26.8605      2.00000
     33     -26.8604      2.00000
     34     -26.8068      2.00000
     35     -26.6468      2.00000
     36     -26.5706      2.00000
     37     -25.1823      2.00000
     38     -25.1822      2.00000
     39     -24.8854      2.00000
     40     -24.8853      2.00000
     41      -1.4015      2.00000
     42      -0.2963      2.00000
     43       0.3454      2.00000
     44       0.3457      2.00000
     45       1.1135      2.00000
     46       1.8638      2.00000
     47       2.1656      2.00000
     48       2.5623      2.00000
     49       2.5625      2.00000
     50       2.6452      2.00000
     51       2.6454      2.00000
     52       2.8711      2.00000
     53       3.1460      2.00000
     54       3.4903      2.00000
     55       3.5124      2.00000
     56       3.8665      2.00000
     57       4.1475      2.00000
     58       4.1475      2.00000
     59       4.2546      2.00000
     60       4.6687      2.00000
     61       5.4366      2.00000
     62       5.5075      2.00000
     63       5.5079      2.00000
     64       5.5192      2.00000
     65       5.5194      2.00000
     66       5.8105      2.00000
     67       6.1895      2.00000
     68       6.1897      2.00000
     69       6.2965      2.00000
     70       6.4508      2.00000
     71       7.0282      2.00000
     72       7.1658      2.00000
     73       7.2083      2.00000
     74       7.2436      2.00000
     75       7.8918      2.00000
     76       7.8918      2.00000
     77       8.1474      2.00000
     78       8.2302      2.00000
     79       8.2304      2.00000
     80       9.2715      0.00000
     81       9.3474      0.00000
     82       9.7204      0.00000
     83       9.7448      0.00000
     84       9.7785      0.00000
     85       9.8059      0.00000
     86       9.8061      0.00000
     87       9.8062      0.00000
     88       9.9174      0.00000
     89       9.9174      0.00000
     90      10.1487      0.00000
     91      10.1516      0.00000
     92      10.1517      0.00000
     93      11.2128      0.00000
     94      11.2128      0.00000
     95      11.4361      0.00000
     96      11.8051      0.00000
     97      11.8053      0.00000
     98      11.8719      0.00000
     99      12.1794      0.00000
    100      12.1953      0.00000
    101      12.7567      0.00000
    102      12.9889      0.00000


--------------------------------------------------------------------------------------------------------


 soft charge-density along one line, spin component           1
         0         1         2         3         4         5         6         7         8         9
 total charge-density along one line
 
 pseudopotential strength for first ion, spin component:           1
  6.045   9.168  -0.000   0.000  -0.000  -0.000   0.000  -0.000
  9.168  13.894  -0.000   0.000  -0.000  -0.000   0.000  -0.000
 -0.000  -0.000  -2.019   0.011  -0.008  -3.380   0.022  -0.015
  0.000   0.000   0.011  -2.014   0.006   0.022  -3.370   0.012
 -0.000  -0.000  -0.008   0.006  -2.010  -0.015   0.012  -3.362
 -0.000  -0.000  -3.380   0.022  -0.015  -5.448   0.041  -0.030
  0.000   0.000   0.022  -3.370   0.012   0.041  -5.429   0.023
 -0.000  -0.000  -0.015   0.012  -3.362  -0.030   0.023  -5.413
 total augmentation occupancy for first ion, spin component:           1
  3.031  -0.610  -0.000   0.000  -0.000   0.000  -0.000   0.000
 -0.610   0.150  -0.000  -0.000  -0.000  -0.000   0.000  -0.000
 -0.000  -0.000   2.233  -0.556   0.398  -0.545   0.147  -0.105
  0.000  -0.000  -0.556   1.973  -0.316   0.147  -0.476   0.084
 -0.000  -0.000   0.398  -0.316   1.757  -0.105   0.084  -0.420
  0.000  -0.000  -0.545   0.147  -0.105   0.146  -0.046   0.033
 -0.000   0.000   0.147  -0.476   0.084  -0.046   0.124  -0.026
  0.000  -0.000  -0.105   0.084  -0.420   0.033  -0.026   0.106


------------------------ aborting loop because EDIFF is reached ----------------------------------------




--------------------------------------------------------------------------------------------------------



  FREE ENERGIE OF THE ION-ELECTRON SYSTEM (eV)
  ---------------------------------------------------
  free  energy   TOTEN  =      -232.34873468 eV

  energy  without entropy=     -232.34602521  energy(sigma->0) =     -232.34737994
 


--------------------------------------------------------------------------------------------------------


    POTLOK:  cpu time    1.6160: real time    1.6271


--------------------------------------------------------------------------------------------------------


 writing wavefunctions
     LOOP+:  cpu time 1743.7538: real time 1766.8937
    4ORBIT:  cpu time    0.0000: real time    0.0000

 total amount of memory used by VASP MPI-rank0   450017. kBytes
=======================================================================

   base      :      30000. kBytes
   nonl-proj :     131566. kBytes
   fftplans  :      20133. kBytes
   grid      :      15504. kBytes
   one-center:        124. kBytes
   wavefun   :     252690. kBytes
 
  
  
 General timing and accounting informations for this job:
 ========================================================
  
                  Total CPU time used (sec):     1754.931
                            User time (sec):     1695.721
                          System time (sec):       59.210
                         Elapsed time (sec):     1785.392
  
                   Maximum memory used (kb):      615384.
                   Average memory used (kb):          N/A
  
                          Minor page faults:      7405909
                          Major page faults:           31
                 Voluntary context switches:        15383
