 vasp.6.2.0 18Jan21 (build Jan 05 2022 15:41:44) complex                        
  
 executed on             LinuxIFC date 2025.05.07  15:26:21
 running on   24 total cores
 distrk:  each k-point on   12 cores,    2 groups
 distr:  one band on NCORE=   2 cores,    6 groups


--------------------------------------------------------------------------------------------------------


 INCAR:
   SYSTEM = routine with relax: pwdword
   ICHARG = 2
   NPAR = 6
   KPAR = 2
   NCORE = 2
   ADDGRID = T
   PREC = Acc
   ENCUT = 600
   METAGGA = R2SCAN
   LASPH = .TRUE.
   LMIXTAU = .FALSE.
   ALGO = A
   EDIFF = 1E-9
   NELM = 100
   NELMIN = 6
   IALGO = 38
   LREAL = F
   NSW = 0
   ISIF = -1
   ISMEAR = 0
   SIGMA = 0.02

 POTCAR:    PAW_PBE B 06Sep2000                   
 POTCAR:    PAW_PBE Mo_sv 02Feb2006               
 POTCAR:    PAW_PBE Si 05Jan2001                  
 -----------------------------------------------------------------------------
|                                                                             |
|           W    W    AA    RRRRR   N    N  II  N    N   GGGG   !!!           |
|           W    W   A  A   R    R  NN   N  II  NN   N  G    G  !!!           |
|           W    W  A    A  R    R  N N  N  II  N N  N  G       !!!           |
|           W WW W  AAAAAA  RRRRR   N  N N  II  N  N N  G  GGG   !            |
|           WW  WW  A    A  R   R   N   NN  II  N   NN  G    G                |
|           W    W  A    A  R    R  N    N  II  N    N   GGGG   !!!           |
|                                                                             |
|     For optimal performance we recommend to set                             |
|       NCORE = 2 up to number-of-cores-per-socket                            |
|     NCORE specifies how many cores store one orbital (NPAR=cpu/NCORE).      |
|     This setting can greatly improve the performance of VASP for DFT.       |
|     The default, NCORE=1 might be grossly inefficient on modern             |
|     multi-core architectures or massively parallel machines. Do your        |
|     own testing! More info at https://www.vasp.at/wiki/index.php/NCORE      |
|     Unfortunately you need to use the default for GW and RPA                |
|     calculations (for HF NCORE is supported but not extensively tested      |
|     yet).                                                                   |
|                                                                             |
 -----------------------------------------------------------------------------

 POTCAR:    PAW_PBE B 06Sep2000                   
   VRHFIN =B: s2p1                                                                                  
   LEXCH  = PE                                                                                      
   EATOM  =    71.1703 eV,    5.2309 Ry                                                             
                                                                                                    
   TITEL  = PAW_PBE B 06Sep2000                                                                     
   LULTRA =        F    use ultrasoft PP ?                                                          
   IUNSCR =        1    unscreen: 0-lin 1-nonlin 2-no                                               
   RPACOR =    1.200    partial core radius                                                         
   POMASS =   10.811; ZVAL   =    3.000    mass and valenz                                          
   RCORE  =    1.700    outmost cutoff radius                                                       
   RWIGS  =    1.710; RWIGS  =    0.905    wigner-seitz radius (au A)                               
   ENMAX  =  318.614; ENMIN  =  238.960 eV                                                          
   ICORE  =        2    local potential                                                             
   LCOR   =        T    correct aug charges                                                         
   LPAW   =        T    paw PP                                                                      
   EAUG   =  535.514                                                                                
   DEXC   =    0.000                                                                                
   RMAX   =    1.732    core radius for proj-oper                                                   
   RAUG   =    1.300    factor for augmentation sphere                                              
   RDEP   =    1.757    radius for radial grids                                                     
   RDEPT  =    1.436    core radius for aug-charge                                                  
                                                                                                    
   Atomic configuration                                                                             
    4 entries                                                                                       
     n  l   j            E        occ.                                                              
     1  0  0.50      -180.5896   2.0000                                                             
     2  0  0.50        -9.4431   2.0000                                                             
     2  1  0.50        -3.6068   1.0000                                                             
     3  2  1.50        -4.0817   0.0000                                                             
   Description                                                                                      
     l       E           TYP  RCUT    TYP  RCUT                                                     
     0     -9.4430752     23  1.500                                                                 
     0      0.8675899     23  1.500                                                                 
     1     -3.6067955     23  1.700                                                                 
     1      6.1086146     23  1.700                                                                 
     2     -4.0817478      7  1.700                                                                 
  local pseudopotential read in
  partial core-charges read in
  partial kinetic energy density read in
  atomic valenz-charges read in
  non local Contribution for L=           0  read in
    real space projection operators read in
  non local Contribution for L=           0  read in
    real space projection operators read in
  non local Contribution for L=           1  read in
    real space projection operators read in
  non local Contribution for L=           1  read in
    real space projection operators read in
    PAW grid and wavefunctions read in
 
   number of l-projection  operators is LMAX  =           4
   number of lm-projection operators is LMMAX =           8
 
 POTCAR:    PAW_PBE Mo_sv 02Feb2006               
   VRHFIN =Mo: 4p5s4d                                                                               
   LEXCH  = PE                                                                                      
   EATOM  =  1862.2866 eV,  136.8742 Ry                                                             
                                                                                                    
   TITEL  = PAW_PBE Mo_sv 02Feb2006                                                                 
   LULTRA =        F    use ultrasoft PP ?                                                          
   IUNSCR =        1    unscreen: 0-lin 1-nonlin 2-no                                               
   RPACOR =    2.200    partial core radius                                                         
   POMASS =   95.940; ZVAL   =   14.000    mass and valenz                                          
   RCORE  =    2.500    outmost cutoff radius                                                       
   RWIGS  =    2.750; RWIGS  =    1.455    wigner-seitz radius (au A)                               
   ENMAX  =  242.676; ENMIN  =  182.007 eV                                                          
   ICORE  =        3    local potential                                                             
   LCOR   =        T    correct aug charges                                                         
   LPAW   =        T    paw PP                                                                      
   EAUG   =  446.014                                                                                
   DEXC   =    0.000                                                                                
   RMAX   =    2.563    core radius for proj-oper                                                   
   RAUG   =    1.300    factor for augmentation sphere                                              
   RDEP   =    2.641    radius for radial grids                                                     
   RDEPT  =    2.031    core radius for aug-charge                                                  
                                                                                                    
   Atomic configuration                                                                             
   11 entries                                                                                       
     n  l   j            E        occ.                                                              
     1  0  0.50    -19819.0341   2.0000                                                             
     2  0  0.50     -2799.0127   2.0000                                                             
     2  1  1.50     -2502.0276   6.0000                                                             
     3  0  0.50      -476.4449   2.0000                                                             
     3  1  1.50      -379.1496   6.0000                                                             
     3  2  2.50      -220.9367  10.0000                                                             
     4  0  0.50       -64.3378   2.0000                                                             
     5  0  0.50        -4.0862   1.0000                                                             
     4  1  1.50       -38.4773   6.0000                                                             
     4  2  2.50        -3.7535   5.0000                                                             
     4  3  2.50        -1.3606   0.0000                                                             
   Description                                                                                      
     l       E           TYP  RCUT    TYP  RCUT                                                     
     0    -64.3377829     23  2.100                                                                 
     0     -4.0861640     23  2.400                                                                 
     1    -38.4772993     23  2.100                                                                 
     1     13.6058260     23  2.100                                                                 
     2     -3.7534941     23  2.400                                                                 
     2     -5.1140767     23  2.400                                                                 
     3     -4.0817478     23  2.500                                                                 
  local pseudopotential read in
  partial core-charges read in
  partial kinetic energy density read in
  atomic valenz-charges read in
  non local Contribution for L=           0  read in
    real space projection operators read in
  non local Contribution for L=           0  read in
    real space projection operators read in
  non local Contribution for L=           1  read in
    real space projection operators read in
  non local Contribution for L=           1  read in
    real space projection operators read in
  non local Contribution for L=           2  read in
    real space projection operators read in
  non local Contribution for L=           2  read in
    real space projection operators read in
    PAW grid and wavefunctions read in
 
   number of l-projection  operators is LMAX  =           6
   number of lm-projection operators is LMMAX =          18
 
 POTCAR:    PAW_PBE Si 05Jan2001                  
   VRHFIN =Si: s2p2                                                                                 
   LEXCH  = PE                                                                                      
   EATOM  =   103.0669 eV,    7.5752 Ry                                                             
                                                                                                    
   TITEL  = PAW_PBE Si 05Jan2001                                                                    
   LULTRA =        F    use ultrasoft PP ?                                                          
   IUNSCR =        1    unscreen: 0-lin 1-nonlin 2-no                                               
   RPACOR =    1.500    partial core radius                                                         
   POMASS =   28.085; ZVAL   =    4.000    mass and valenz                                          
   RCORE  =    1.900    outmost cutoff radius                                                       
   RWIGS  =    2.480; RWIGS  =    1.312    wigner-seitz radius (au A)                               
   ENMAX  =  245.345; ENMIN  =  184.009 eV                                                          
   ICORE  =        2    local potential                                                             
   LCOR   =        T    correct aug charges                                                         
   LPAW   =        T    paw PP                                                                      
   EAUG   =  322.069                                                                                
   DEXC   =    0.000                                                                                
   RMAX   =    1.950    core radius for proj-oper                                                   
   RAUG   =    1.300    factor for augmentation sphere                                              
   RDEP   =    1.993    radius for radial grids                                                     
   RDEPT  =    1.837    core radius for aug-charge                                                  
                                                                                                    
   Atomic configuration                                                                             
    6 entries                                                                                       
     n  l   j            E        occ.                                                              
     1  0  0.50     -1785.8828   2.0000                                                             
     2  0  0.50      -139.4969   2.0000                                                             
     2  1  1.50       -95.5546   6.0000                                                             
     3  0  0.50       -10.8127   2.0000                                                             
     3  1  0.50        -4.0811   2.0000                                                             
     3  2  1.50        -4.0817   0.0000                                                             
   Description                                                                                      
     l       E           TYP  RCUT    TYP  RCUT                                                     
     0    -10.8127223     23  1.900                                                                 
     0     -7.6451159     23  1.900                                                                 
     1     -4.0811372     23  1.900                                                                 
     1      2.4879257     23  1.900                                                                 
     2     -4.0817478      7  1.900                                                                 
  local pseudopotential read in
  partial core-charges read in
  partial kinetic energy density read in
  atomic valenz-charges read in
  non local Contribution for L=           0  read in
    real space projection operators read in
  non local Contribution for L=           0  read in
    real space projection operators read in
  non local Contribution for L=           1  read in
    real space projection operators read in
  non local Contribution for L=           1  read in
    real space projection operators read in
    PAW grid and wavefunctions read in
 
   number of l-projection  operators is LMAX  =           4
   number of lm-projection operators is LMMAX =           8
 
  PAW_PBE B 06Sep2000                   :
 energy of atom  1       EATOM=  -71.1703
 kinetic energy error for atom=    0.0007 (will be added to EATOM!!)
  PAW_PBE Mo_sv 02Feb2006               :
 energy of atom  2       EATOM=-1862.2866
 kinetic energy error for atom=    0.0041 (will be added to EATOM!!)
  PAW_PBE Si 05Jan2001                  :
 energy of atom  3       EATOM= -103.0669
 kinetic energy error for atom=    0.0003 (will be added to EATOM!!)
 
 
 POSCAR: EA48
  positions in direct lattice
  No initial velocities read in

 METAGGA = R2SCA    LMAXTAU =  6    LMIXTAU =  F

 exchange correlation table for  LEXCH =        8
   RHO(1)=    0.500       N(1)  =     2000
   RHO(2)=  100.500       N(2)  =     4000
 


--------------------------------------------------------------------------------------------------------


 ion  position               nearest neighbor table
   1  0.250  0.750  0.500-  10 2.45   7 2.45   4 2.45   9 2.45   5 2.54   8 2.54   6 2.54   3 2.54

   2  0.750  0.250  0.500-   7 2.45  10 2.45   9 2.45   4 2.45   3 2.54   6 2.54   8 2.54   5 2.54

   3  0.377  0.877  0.254-   5 2.41   2 2.54   1 2.54   7 2.56  10 2.56
   4  0.000  0.000  0.500-  11 2.45  12 2.45   1 2.45   2 2.45   6 2.56   8 2.56   7 3.46  10 3.46
                             7 3.46  10 3.46
   5  0.623  0.123  0.746-   3 2.41   1 2.54   2 2.54   7 2.56  10 2.56
   6  0.877  0.623  0.500-   8 2.41   2 2.54   1 2.54   9 2.56   4 2.56
   7  0.000  0.500  0.000-   1 2.45   2 2.45  12 2.45  11 2.45   5 2.56   3 2.56   9 3.46   4 3.46
                             4 3.46   9 3.46
   8  0.123  0.377  0.500-   6 2.41   2 2.54   1 2.54   9 2.56   4 2.56
   9  0.500  0.500  0.500-  12 2.45  11 2.45   1 2.45   2 2.45   6 2.56   8 2.56   7 3.46  10 3.46
                            10 3.46   7 3.46
  10  0.500  0.000  0.000-   2 2.45   1 2.45  12 2.45  11 2.45   5 2.56   3 2.56   9 3.46   4 3.46
                             9 3.46   4 3.46
  11  0.250  0.250  0.000-   9 2.45   4 2.45  10 2.45   7 2.45
  12  0.750  0.750  0.000-   4 2.45   9 2.45  10 2.45   7 2.45
 
  Warning from LATTYP: Got some problem with cell dimensions!
  Tried to take original basis but could not verify dimensions!
  LATTYP: Found a base centered monoclinic cell.
 ALAT       =     8.9295426708
 B/A-ratio  =     1.0957252894
 C/A-ratio  =     0.7417125989
 COS(beta)  =    -0.6741048375
  
  Lattice vectors:
  
 A1 = (  -5.8998888118,   0.0000000000,   3.0097761663)
 A2 = (   2.2132327227,  -5.4690299786,   3.0097761663)
 A3 = (   3.6866560890,   5.4690299786,   0.6036976675)


Analysis of symmetry for initial positions (statically):
=====================================================================
 Subroutine PRICEL returns:
 Original cell was already a primitive cell.
 

 Routine SETGRP: Setting up the symmetry group for a 
 base centered monoclinic supercell.


 Subroutine GETGRP returns: Found  4 space group operations
 (whereof  2 operations were pure point group operations)
 out of a pool of  4 trial point group operations.


The static configuration has the point symmetry S_2 .
 The point group associated with its full space group is C_2h.


Analysis of symmetry for dynamics (positions and initial velocities):
=====================================================================
 Subroutine PRICEL returns:
 Original cell was already a primitive cell.
 

 Routine SETGRP: Setting up the symmetry group for a 
 base centered monoclinic supercell.


 Subroutine GETGRP returns: Found  4 space group operations
 (whereof  2 operations were pure point group operations)
 out of a pool of  4 trial point group operations.


The dynamic configuration has the point symmetry S_2 .
 The point group associated with its full space group is C_2h.


 Subroutine INISYM returns: Found  4 space group operations
 (whereof  2 operations are pure point group operations),
 and found     1 'primitive' translations


----------------------------------------------------------------------------------------

                                     Primitive cell                                     

  volume of cell :     213.7102

  direct lattice vectors                    reciprocal lattice vectors
     5.899888812  0.000000000 -3.009776166     0.169494720  0.068591919  0.000000000
    -2.213232723  5.469029979 -3.009776166     0.000000000  0.182847782  0.000000000
     0.000000000  0.000000000  6.623250000     0.077022786  0.114260706  0.150983279

  length of vectors
     6.623250000  6.623250000  6.623250000     0.182847782  0.182847782  0.204411274

  position of ions in fractional coordinates (direct lattice)
     0.250000000  0.750000000  0.500000000
     0.750000000  0.250000000  0.500000000
     0.377040000  0.877040000  0.254080000
     0.000000000  0.000000000  0.500000000
     0.622960000  0.122960000  0.745920000
     0.877040000  0.622960000  0.500000000
     1.000000000  0.500000000  0.000000000
     0.122960000  0.377040000  0.500000000
     0.500000000  0.500000000  0.500000000
     0.500000000  0.000000000  1.000000000
     0.250000000  0.250000000  1.000000000
     0.750000000  0.750000000  1.000000000

  ion indices of the primitive-cell ions
   primitive index   ion index
                 1           1
                 2           2
                 3           3
                 4           4
                 5           5
                 6           6
                 7           7
                 8           8
                 9           9
                10          10
                11          11
                12          12

----------------------------------------------------------------------------------------

 
 
 KPOINTS: EA                                      

Automatic generation of k-mesh.
 Grid dimensions read from file:
 generate k-points for:    7    7    7

 Generating k-lattice:

  Cartesian coordinates                     Fractional coordinates (reciprocal lattice)
     0.024213531  0.009798846  0.000000000     0.142857143 -0.000000000  0.000000000
     0.000000000  0.026121112  0.000000000     0.000000000  0.142857143  0.000000000
     0.011003255  0.016322958  0.021569040    -0.000000000  0.000000000  0.142857143

  Length of vectors
     0.026121112  0.026121112  0.029201611

  Shift w.r.t. Gamma in fractional coordinates (k-lattice)
     0.000000000  0.000000000  0.000000000

 
 Subroutine IBZKPT returns following result:
 ===========================================
 
 Found    100 irreducible k-points:
 
 Following reciprocal coordinates:
            Coordinates               Weight
  0.000000  0.000000  0.000000      1.000000
  0.142857 -0.000000  0.000000      4.000000
  0.285714 -0.000000  0.000000      4.000000
  0.428571 -0.000000  0.000000      4.000000
  0.142857  0.142857  0.000000      2.000000
  0.285714  0.142857  0.000000      4.000000
  0.428571  0.142857  0.000000      4.000000
 -0.428571  0.142857  0.000000      4.000000
 -0.285714  0.142857  0.000000      4.000000
 -0.142857  0.142857  0.000000      2.000000
  0.285714  0.285714  0.000000      2.000000
  0.428571  0.285714  0.000000      4.000000
 -0.428571  0.285714  0.000000      4.000000
 -0.285714  0.285714  0.000000      2.000000
  0.428571  0.428571  0.000000      2.000000
 -0.428571  0.428571  0.000000      2.000000
 -0.000000 -0.000000  0.142857      2.000000
  0.142857 -0.000000  0.142857      4.000000
  0.285714  0.000000  0.142857      4.000000
  0.428571 -0.000000  0.142857      4.000000
 -0.428571 -0.000000  0.142857      4.000000
 -0.285714 -0.000000  0.142857      4.000000
 -0.142857 -0.000000  0.142857      4.000000
  0.142857  0.142857  0.142857      2.000000
  0.285714  0.142857  0.142857      4.000000
  0.428571  0.142857  0.142857      4.000000
 -0.428571  0.142857  0.142857      4.000000
 -0.285714  0.142857  0.142857      4.000000
 -0.142857  0.142857  0.142857      4.000000
  0.285714  0.285714  0.142857      2.000000
  0.428571  0.285714  0.142857      4.000000
 -0.428571  0.285714  0.142857      4.000000
 -0.285714  0.285714  0.142857      4.000000
 -0.142857  0.285714  0.142857      4.000000
  0.428571  0.428571  0.142857      2.000000
 -0.428571  0.428571  0.142857      4.000000
 -0.285714  0.428571  0.142857      4.000000
 -0.142857  0.428571  0.142857      4.000000
 -0.428571 -0.428571  0.142857      2.000000
 -0.285714 -0.428571  0.142857      4.000000
 -0.142857 -0.428571  0.142857      4.000000
 -0.285714 -0.285714  0.142857      2.000000
 -0.142857 -0.285714  0.142857      4.000000
 -0.142857 -0.142857  0.142857      2.000000
  0.000000  0.000000  0.285714      2.000000
  0.142857 -0.000000  0.285714      4.000000
  0.285714 -0.000000  0.285714      4.000000
  0.428571 -0.000000  0.285714      4.000000
 -0.428571  0.000000  0.285714      4.000000
 -0.285714 -0.000000  0.285714      4.000000
 -0.142857 -0.000000  0.285714      4.000000
  0.142857  0.142857  0.285714      2.000000
  0.285714  0.142857  0.285714      4.000000
  0.428571  0.142857  0.285714      4.000000
 -0.428571  0.142857  0.285714      4.000000
 -0.285714  0.142857  0.285714      4.000000
 -0.142857  0.142857  0.285714      4.000000
  0.285714  0.285714  0.285714      2.000000
  0.428571  0.285714  0.285714      4.000000
 -0.428571  0.285714  0.285714      4.000000
 -0.285714  0.285714  0.285714      4.000000
 -0.142857  0.285714  0.285714      4.000000
  0.428571  0.428571  0.285714      2.000000
 -0.428571  0.428571  0.285714      4.000000
 -0.285714  0.428571  0.285714      4.000000
 -0.142857  0.428571  0.285714      4.000000
 -0.428571 -0.428571  0.285714      2.000000
 -0.285714 -0.428571  0.285714      4.000000
 -0.142857 -0.428571  0.285714      4.000000
 -0.285714 -0.285714  0.285714      2.000000
 -0.142857 -0.285714  0.285714      4.000000
 -0.142857 -0.142857  0.285714      2.000000
  0.000000  0.000000  0.428571      2.000000
  0.142857  0.000000  0.428571      4.000000
  0.285714 -0.000000  0.428571      4.000000
  0.428571 -0.000000  0.428571      4.000000
 -0.428571  0.000000  0.428571      4.000000
 -0.285714  0.000000  0.428571      4.000000
 -0.142857  0.000000  0.428571      4.000000
  0.142857  0.142857  0.428571      2.000000
  0.285714  0.142857  0.428571      4.000000
  0.428571  0.142857  0.428571      4.000000
 -0.428571  0.142857  0.428571      4.000000
 -0.285714  0.142857  0.428571      4.000000
 -0.142857  0.142857  0.428571      4.000000
  0.285714  0.285714  0.428571      2.000000
  0.428571  0.285714  0.428571      4.000000
 -0.428571  0.285714  0.428571      4.000000
 -0.285714  0.285714  0.428571      4.000000
 -0.142857  0.285714  0.428571      4.000000
  0.428571  0.428571  0.428571      2.000000
 -0.428571  0.428571  0.428571      4.000000
 -0.285714  0.428571  0.428571      4.000000
 -0.142857  0.428571  0.428571      4.000000
 -0.428571 -0.428571  0.428571      2.000000
 -0.285714 -0.428571  0.428571      4.000000
 -0.142857 -0.428571  0.428571      4.000000
 -0.285714 -0.285714  0.428571      2.000000
 -0.142857 -0.285714  0.428571      4.000000
 -0.142857 -0.142857  0.428571      2.000000
 
 Following cartesian coordinates:
            Coordinates               Weight
  0.000000  0.000000  0.000000      1.000000
  0.024214  0.009799  0.000000      4.000000
  0.048427  0.019598  0.000000      4.000000
  0.072641  0.029397  0.000000      4.000000
  0.024214  0.035920  0.000000      2.000000
  0.048427  0.045719  0.000000      4.000000
  0.072641  0.055518  0.000000      4.000000
 -0.072641 -0.003275  0.000000      4.000000
 -0.048427  0.006523  0.000000      4.000000
 -0.024214  0.016322  0.000000      2.000000
  0.048427  0.071840  0.000000      2.000000
  0.072641  0.081639  0.000000      4.000000
 -0.072641  0.022846  0.000000      4.000000
 -0.048427  0.032645  0.000000      2.000000
  0.072641  0.107760  0.000000      2.000000
 -0.072641  0.048967  0.000000      2.000000
  0.011003  0.016323  0.021569      2.000000
  0.035217  0.026122  0.021569      4.000000
  0.059430  0.035921  0.021569      4.000000
  0.083644  0.045719  0.021569      4.000000
 -0.061637 -0.013074  0.021569      4.000000
 -0.037424 -0.003275  0.021569      4.000000
 -0.013210  0.006524  0.021569      4.000000
  0.035217  0.052243  0.021569      2.000000
  0.059430  0.062042  0.021569      4.000000
  0.083644  0.071841  0.021569      4.000000
 -0.061637  0.013048  0.021569      4.000000
 -0.037424  0.022846  0.021569      4.000000
 -0.013210  0.032645  0.021569      4.000000
  0.059430  0.088163  0.021569      2.000000
  0.083644  0.097962  0.021569      4.000000
 -0.061637  0.039169  0.021569      4.000000
 -0.037424  0.048967  0.021569      4.000000
 -0.013210  0.058766  0.021569      4.000000
  0.083644  0.124083  0.021569      2.000000
 -0.061637  0.065290  0.021569      4.000000
 -0.037424  0.075089  0.021569      4.000000
 -0.013210  0.084887  0.021569      4.000000
 -0.061637 -0.091437  0.021569      2.000000
 -0.037424 -0.081638  0.021569      4.000000
 -0.013210 -0.071839  0.021569      4.000000
 -0.037424 -0.055517  0.021569      2.000000
 -0.013210 -0.045718  0.021569      4.000000
 -0.013210 -0.019597  0.021569      2.000000
  0.022007  0.032646  0.043138      2.000000
  0.046220  0.042445  0.043138      4.000000
  0.070434  0.052244  0.043138      4.000000
  0.094647  0.062042  0.043138      4.000000
 -0.050634  0.003249  0.043138      4.000000
 -0.026421  0.013048  0.043138      4.000000
 -0.002207  0.022847  0.043138      4.000000
  0.046220  0.068566  0.043138      2.000000
  0.070434  0.078365  0.043138      4.000000
  0.094647  0.088164  0.043138      4.000000
 -0.050634  0.029370  0.043138      4.000000
 -0.026421  0.039169  0.043138      4.000000
 -0.002207  0.048968  0.043138      4.000000
  0.070434  0.104486  0.043138      2.000000
  0.094647  0.114285  0.043138      4.000000
 -0.050634  0.055492  0.043138      4.000000
 -0.026421  0.065290  0.043138      4.000000
 -0.002207  0.075089  0.043138      4.000000
  0.094647  0.140406  0.043138      2.000000
 -0.050634  0.081613  0.043138      4.000000
 -0.026421  0.091412  0.043138      4.000000
 -0.002207  0.101210  0.043138      4.000000
 -0.050634 -0.075114  0.043138      2.000000
 -0.026421 -0.065315  0.043138      4.000000
 -0.002207 -0.055516  0.043138      4.000000
 -0.026421 -0.039194  0.043138      2.000000
 -0.002207 -0.029395  0.043138      4.000000
 -0.002207 -0.003274  0.043138      2.000000
  0.033010  0.048969  0.064707      2.000000
  0.057223  0.058768  0.064707      4.000000
  0.081437  0.068567  0.064707      4.000000
  0.105650  0.078365  0.064707      4.000000
 -0.039631  0.019572  0.064707      4.000000
 -0.015417  0.029371  0.064707      4.000000
  0.008796  0.039170  0.064707      4.000000
  0.057223  0.084889  0.064707      2.000000
  0.081437  0.094688  0.064707      4.000000
  0.105650  0.104487  0.064707      4.000000
 -0.039631  0.045693  0.064707      4.000000
 -0.015417  0.055492  0.064707      4.000000
  0.008796  0.065291  0.064707      4.000000
  0.081437  0.120809  0.064707      2.000000
  0.105650  0.130608  0.064707      4.000000
 -0.039631  0.071815  0.064707      4.000000
 -0.015417  0.081613  0.064707      4.000000
  0.008796  0.091412  0.064707      4.000000
  0.105650  0.156729  0.064707      2.000000
 -0.039631  0.097936  0.064707      4.000000
 -0.015417  0.107735  0.064707      4.000000
  0.008796  0.117533  0.064707      4.000000
 -0.039631 -0.058791  0.064707      2.000000
 -0.015417 -0.048992  0.064707      4.000000
  0.008796 -0.039193  0.064707      4.000000
 -0.015417 -0.022871  0.064707      2.000000
  0.008796 -0.013072  0.064707      4.000000
  0.008796  0.013049  0.064707      2.000000
 


--------------------------------------------------------------------------------------------------------




 Dimension of arrays:
   k-points           NKPTS =    100   k-points in BZ     NKDIM =    100   number of bands    NBANDS=     78
   number of dos      NEDOS =    301   number of ions     NIONS =     12
   non local maximal  LDIM  =      6   non local SUM 2l+1 LMDIM =     18
   total plane-waves  NPLWV = 157464
   max r-space proj   IRMAX =      1   max aug-charges    IRDMAX= 257945
   dimension x,y,z NGX =    54 NGY =   54 NGZ =   54
   dimension x,y,z NGXF=   108 NGYF=  108 NGZF=  108
   support grid    NGXF=   216 NGYF=  216 NGZF=  216
   ions per type =               2   8   2
   NGX,Y,Z   is equivalent  to a cutoff of  13.55, 13.55, 13.55 a.u.
   NGXF,Y,Z  is equivalent  to a cutoff of  27.11, 27.11, 27.11 a.u.

 SYSTEM =  routine with relax: pwdword             
 POSCAR =  EA48                                    

 Startparameter for this run:
   NWRITE =      2    write-flag & timer
   PREC   = acc       normal or accurate (medium, high low for compatibility)
   ISTART =      0    job   : 0-new  1-cont  2-samecut
   ICHARG =      2    charge: 1-file 2-atom 10-const
   ISPIN  =      1    spin polarized calculation?
   LNONCOLLINEAR =      F non collinear calculations
   LSORBIT =      F    spin-orbit coupling
   INIWAV =      1    electr: 0-lowe 1-rand  2-diag
   LASPH  =      T    aspherical Exc in radial PAW
   METAGGA=      F    non-selfconsistent MetaGGA calc.

 Electronic Relaxation 1
   ENCUT  =  600.0 eV  44.10 Ry    6.64 a.u.  13.23 13.23 13.23*2*pi/ulx,y,z
   ENINI  =  600.0     initial cutoff
   ENAUG  =  535.5 eV  augmentation charge cutoff
   NELM   =    100;   NELMIN=  6; NELMDL= -5     # of ELM steps 
   EDIFF  = 0.1E-08   stopping-criterion for ELM
   LREAL  =      F    real-space projection
   NLSPLINE    = F    spline interpolate recip. space projectors
   LCOMPAT=      F    compatible to vasp.4.4
   GGA_COMPAT  = T    GGA compatible to vasp.4.4-vasp.4.6
   LMAXPAW     = -100 max onsite density
   LMAXMIX     =    2 max onsite mixed and CHGCAR
   VOSKOWN=      0    Vosko Wilk Nusair interpolation
   ROPT   =    0.00000   0.00000   0.00000
 Ionic relaxation
   EDIFFG = 0.1E-07   stopping-criterion for IOM
   NSW    =      0    number of steps for IOM
   NBLOCK =      1;   KBLOCK =      1    inner block; outer block 
   IBRION =     -1    ionic relax: 0-MD 1-quasi-New 2-CG
   NFREE  =      0    steps in history (QN), initial steepest desc. (CG)
   ISIF   =     -1    stress and relaxation
   IWAVPR =     10    prediction:  0-non 1-charg 2-wave 3-comb
   ISYM   =      2    0-nonsym 1-usesym 2-fastsym
   LCORR  =      T    Harris-Foulkes like correction to forces

   POTIM  = 0.5000    time-step for ionic-motion
   TEIN   =    0.0    initial temperature
   TEBEG  =    0.0;   TEEND  =   0.0 temperature during run
   SMASS  =  -3.00    Nose mass-parameter (am)
   estimated Nose-frequenzy (Omega)   =  0.10E-29 period in steps = 0.13E+47 mass=  -0.100E-26a.u.
   SCALEE = 1.0000    scale energy and forces
   NPACO  =    256;   APACO  = 16.0  distance and # of slots for P.C.
   PSTRESS=    0.0 pullay stress

  Mass of Ions in am
   POMASS =  10.81 95.94 28.09
  Ionic Valenz
   ZVAL   =   3.00 14.00  4.00
  Atomic Wigner-Seitz radii
   RWIGS  =  -1.00 -1.00 -1.00
  virtual crystal weights 
   VCA    =   1.00  1.00  1.00
   NELECT =     126.0000    total number of electrons
   NUPDOWN=      -1.0000    fix difference up-down

 DOS related values:
   EMIN   =  10.00;   EMAX   =-10.00  energy-range for DOS
   EFERMI =   0.00
   ISMEAR =     0;   SIGMA  =   0.02  broadening in eV -4-tet -1-fermi 0-gaus

 Electronic relaxation 2 (details)
   IALGO  =     58    algorithm
   LDIAG  =      T    sub-space diagonalisation (order eigenvalues)
   LSUBROT=      F    optimize rotation matrix (better conditioning)
   TURBO    =      0    0=normal 1=particle mesh
   IRESTART =      0    0=no restart 2=restart with 2 vectors
   NREBOOT  =      0    no. of reboots
   NMIN     =      0    reboot dimension
   EREF     =   0.00    reference energy to select bands
   IMIX   =      4    mixing-type and parameters
     AMIX     =   0.40;   BMIX     =  1.00
     AMIX_MAG =   1.60;   BMIX_MAG =  1.00
     AMIN     =   0.10
     WC   =   100.;   INIMIX=   1;  MIXPRE=   1;  MAXMIX= -45

 Intra band minimization:
   WEIMIN = 0.0000     energy-eigenvalue tresh-hold
   EBREAK =  0.32E-11  absolut break condition
   DEPER  =   0.30     relativ break condition  

   TIME   =   0.40     timestep for ELM

  volume/ion in A,a.u.               =      17.81       120.18
  Fermi-wavevector in a.u.,A,eV,Ry     =   1.372745  2.594112 25.639217  1.884429
  Thomas-Fermi vector in A             =   2.498325
 
 Write flags
   LWAVE        =      T    write WAVECAR
   LDOWNSAMPLE  =      F    k-point downsampling of WAVECAR
   LCHARG       =      T    write CHGCAR
   LVTOT        =      F    write LOCPOT, total local potential
   LVHAR        =      F    write LOCPOT, Hartree potential only
   LELF         =      F    write electronic localiz. function (ELF)
   LORBIT       =      0    0 simple, 1 ext, 2 COOP (PROOUT), +10 PAW based schemes


 Dipole corrections
   LMONO  =      F    monopole corrections only (constant potential shift)
   LDIPOL =      F    correct potential (dipole corrections)
   IDIPOL =      0    1-x, 2-y, 3-z, 4-all directions 
   EPSILON=  1.0000000 bulk dielectric constant

 Exchange correlation treatment:
   GGA     =    --    GGA type
   LEXCH   =     8    internal setting for exchange type
   VOSKOWN=      0    Vosko Wilk Nusair interpolation
   LHFCALC =     F    Hartree Fock is set to
   LHFONE  =     F    Hartree Fock one center treatment
   AEXX    =    0.0000 exact exchange contribution

 Linear response parameters
   LEPSILON=     F    determine dielectric tensor
   LRPA    =     F    only Hartree local field effects (RPA)
   LNABLA  =     F    use nabla operator in PAW spheres
   LVEL    =     F    velocity operator in full k-point grid
   LINTERFAST=   F  fast interpolation
   KINTER  =     0    interpolate to denser k-point grid
   CSHIFT  =0.1000    complex shift for real part using Kramers Kronig
   OMEGAMAX=  -1.0    maximum frequency
   DEG_THRESHOLD= 0.2000000E-02 threshold for treating states as degnerate
   RTIME   =   -0.100 relaxation time in fs
  (WPLASMAI=    0.000 imaginary part of plasma frequency in eV, 0.658/RTIME)
   DFIELD  = 0.0000000 0.0000000 0.0000000 field for delta impulse in time
 
 Orbital magnetization related:
   ORBITALMAG=     F  switch on orbital magnetization
   LCHIMAG   =     F  perturbation theory with respect to B field
   DQ        =  0.001000  dq finite difference perturbation B field
   LLRAUG    =     F  two centre corrections for induced B field



--------------------------------------------------------------------------------------------------------


 Static calculation
 charge density and potential will be updated during run
 non-spin polarized calculation
 Conjugate gradient for all bands (Freysoldt, et al. PRB 79, 241103 (2009))
 preconditioned conjugated gradient                                        
 perform sub-space diagonalisation
    before iterative eigenvector-optimisation
 modified Broyden-mixing scheme, WC =      100.0
 initial mixing is a Kerker type mixing with AMIX =  0.4000 and BMIX =      1.0000
 Hartree-type preconditioning will be used
 using additional bands           15
 reciprocal scheme for non local part
 use partial core corrections
 no Harris-corrections to forces 
 use gradient corrections 
 use of overlap-Matrix (Vanderbilt PP)
 Gauss-broadening in eV      SIGMA  =   0.02


--------------------------------------------------------------------------------------------------------


  energy-cutoff  :      600.00
  volume of cell :      213.71
      direct lattice vectors                 reciprocal lattice vectors
     5.899888812  0.000000000 -3.009776166     0.169494720  0.068591919  0.000000000
    -2.213232723  5.469029979 -3.009776166     0.000000000  0.182847782  0.000000000
     0.000000000  0.000000000  6.623250000     0.077022786  0.114260706  0.150983279

  length of vectors
     6.623250000  6.623250000  6.623250000     0.182847782  0.182847782  0.204411274


 
 k-points in units of 2pi/SCALE and weight: EA                                      
   0.00000000  0.00000000  0.00000000       0.003
   0.02421353  0.00979885  0.00000000       0.012
   0.04842706  0.01959769  0.00000000       0.012
   0.07264059  0.02939654  0.00000000       0.012
   0.02421353  0.03591996  0.00000000       0.006
   0.04842706  0.04571880  0.00000000       0.012
   0.07264059  0.05551765  0.00000000       0.012
  -0.07264059 -0.00327542  0.00000000       0.012
  -0.04842706  0.00652342  0.00000000       0.012
  -0.02421353  0.01632227  0.00000000       0.006
   0.04842706  0.07183991  0.00000000       0.006
   0.07264059  0.08163876  0.00000000       0.012
  -0.07264059  0.02284569  0.00000000       0.012
  -0.04842706  0.03264453  0.00000000       0.006
   0.07264059  0.10775987  0.00000000       0.006
  -0.07264059  0.04896680  0.00000000       0.006
   0.01100326  0.01632296  0.02156904       0.006
   0.03521679  0.02612180  0.02156904       0.012
   0.05943032  0.03592065  0.02156904       0.012
   0.08364385  0.04571949  0.02156904       0.012
  -0.06163734 -0.01307358  0.02156904       0.012
  -0.03742381 -0.00327473  0.02156904       0.012
  -0.01321028  0.00652411  0.02156904       0.012
   0.03521679  0.05224292  0.02156904       0.006
   0.05943032  0.06204176  0.02156904       0.012
   0.08364385  0.07184061  0.02156904       0.012
  -0.06163734  0.01304753  0.02156904       0.012
  -0.03742381  0.02284638  0.02156904       0.012
  -0.01321028  0.03264522  0.02156904       0.012
   0.05943032  0.08816287  0.02156904       0.006
   0.08364385  0.09796172  0.02156904       0.012
  -0.06163734  0.03916864  0.02156904       0.012
  -0.03742381  0.04896749  0.02156904       0.012
  -0.01321028  0.05876634  0.02156904       0.012
   0.08364385  0.12408283  0.02156904       0.006
  -0.06163734  0.06528976  0.02156904       0.012
  -0.03742381  0.07508860  0.02156904       0.012
  -0.01321028  0.08488745  0.02156904       0.012
  -0.06163734 -0.09143691  0.02156904       0.006
  -0.03742381 -0.08163807  0.02156904       0.012
  -0.01321028 -0.07183922  0.02156904       0.012
  -0.03742381 -0.05551696  0.02156904       0.006
  -0.01321028 -0.04571811  0.02156904       0.012
  -0.01321028 -0.01959700  0.02156904       0.006
   0.02200651  0.03264592  0.04313808       0.006
   0.04622004  0.04244476  0.04313808       0.012
   0.07043357  0.05224361  0.04313808       0.012
   0.09464710  0.06204245  0.04313808       0.012
  -0.05063408  0.00324938  0.04313808       0.012
  -0.02642055  0.01304822  0.04313808       0.012
  -0.00220702  0.02284707  0.04313808       0.012
   0.04622004  0.06856587  0.04313808       0.006
   0.07043357  0.07836472  0.04313808       0.012
   0.09464710  0.08816356  0.04313808       0.012
  -0.05063408  0.02937049  0.04313808       0.012
  -0.02642055  0.03916934  0.04313808       0.012
  -0.00220702  0.04896818  0.04313808       0.012
   0.07043357  0.10448583  0.04313808       0.006
   0.09464710  0.11428468  0.04313808       0.012
  -0.05063408  0.05549160  0.04313808       0.012
  -0.02642055  0.06529045  0.04313808       0.012
  -0.00220702  0.07508929  0.04313808       0.012
   0.09464710  0.14040579  0.04313808       0.006
  -0.05063408  0.08161271  0.04313808       0.012
  -0.02642055  0.09141156  0.04313808       0.012
  -0.00220702  0.10121041  0.04313808       0.012
  -0.05063408 -0.07511396  0.04313808       0.006
  -0.02642055 -0.06531511  0.04313808       0.012
  -0.00220702 -0.05551626  0.04313808       0.012
  -0.02642055 -0.03919400  0.04313808       0.006
  -0.00220702 -0.02939515  0.04313808       0.012
  -0.00220702 -0.00327404  0.04313808       0.006
   0.03300977  0.04896887  0.06470712       0.006
   0.05722330  0.05876772  0.06470712       0.012
   0.08143683  0.06856656  0.06470712       0.012
   0.10565036  0.07836541  0.06470712       0.012
  -0.03963083  0.01957234  0.06470712       0.012
  -0.01541730  0.02937118  0.06470712       0.012
   0.00879623  0.03917003  0.06470712       0.012
   0.05722330  0.08488883  0.06470712       0.006
   0.08143683  0.09468768  0.06470712       0.012
   0.10565036  0.10448652  0.06470712       0.012
  -0.03963083  0.04569345  0.06470712       0.012
  -0.01541730  0.05549229  0.06470712       0.012
   0.00879623  0.06529114  0.06470712       0.012
   0.08143683  0.12080879  0.06470712       0.006
   0.10565036  0.13060763  0.06470712       0.012
  -0.03963083  0.07181456  0.06470712       0.012
  -0.01541730  0.08161341  0.06470712       0.012
   0.00879623  0.09141225  0.06470712       0.012
   0.10565036  0.15672875  0.06470712       0.006
  -0.03963083  0.09793567  0.06470712       0.012
  -0.01541730  0.10773452  0.06470712       0.012
   0.00879623  0.11753336  0.06470712       0.012
  -0.03963083 -0.05879100  0.06470712       0.006
  -0.01541730 -0.04899215  0.06470712       0.012
   0.00879623 -0.03919331  0.06470712       0.012
  -0.01541730 -0.02287104  0.06470712       0.006
   0.00879623 -0.01307220  0.06470712       0.012
   0.00879623  0.01304892  0.06470712       0.006
 
 k-points in reciprocal lattice and weights: EA                                      
   0.00000000  0.00000000  0.00000000       0.003
   0.14285714 -0.00000000  0.00000000       0.012
   0.28571429 -0.00000000  0.00000000       0.012
   0.42857143 -0.00000000  0.00000000       0.012
   0.14285714  0.14285714  0.00000000       0.006
   0.28571429  0.14285714  0.00000000       0.012
   0.42857143  0.14285714  0.00000000       0.012
  -0.42857143  0.14285714  0.00000000       0.012
  -0.28571429  0.14285714  0.00000000       0.012
  -0.14285714  0.14285714  0.00000000       0.006
   0.28571429  0.28571429  0.00000000       0.006
   0.42857143  0.28571429  0.00000000       0.012
  -0.42857143  0.28571429  0.00000000       0.012
  -0.28571429  0.28571429  0.00000000       0.006
   0.42857143  0.42857143  0.00000000       0.006
  -0.42857143  0.42857143  0.00000000       0.006
  -0.00000000 -0.00000000  0.14285714       0.006
   0.14285714 -0.00000000  0.14285714       0.012
   0.28571429  0.00000000  0.14285714       0.012
   0.42857143 -0.00000000  0.14285714       0.012
  -0.42857143 -0.00000000  0.14285714       0.012
  -0.28571429 -0.00000000  0.14285714       0.012
  -0.14285714 -0.00000000  0.14285714       0.012
   0.14285714  0.14285714  0.14285714       0.006
   0.28571429  0.14285714  0.14285714       0.012
   0.42857143  0.14285714  0.14285714       0.012
  -0.42857143  0.14285714  0.14285714       0.012
  -0.28571429  0.14285714  0.14285714       0.012
  -0.14285714  0.14285714  0.14285714       0.012
   0.28571429  0.28571429  0.14285714       0.006
   0.42857143  0.28571429  0.14285714       0.012
  -0.42857143  0.28571429  0.14285714       0.012
  -0.28571429  0.28571429  0.14285714       0.012
  -0.14285714  0.28571429  0.14285714       0.012
   0.42857143  0.42857143  0.14285714       0.006
  -0.42857143  0.42857143  0.14285714       0.012
  -0.28571429  0.42857143  0.14285714       0.012
  -0.14285714  0.42857143  0.14285714       0.012
  -0.42857143 -0.42857143  0.14285714       0.006
  -0.28571429 -0.42857143  0.14285714       0.012
  -0.14285714 -0.42857143  0.14285714       0.012
  -0.28571429 -0.28571429  0.14285714       0.006
  -0.14285714 -0.28571429  0.14285714       0.012
  -0.14285714 -0.14285714  0.14285714       0.006
   0.00000000  0.00000000  0.28571429       0.006
   0.14285714 -0.00000000  0.28571429       0.012
   0.28571429 -0.00000000  0.28571429       0.012
   0.42857143 -0.00000000  0.28571429       0.012
  -0.42857143  0.00000000  0.28571429       0.012
  -0.28571429 -0.00000000  0.28571429       0.012
  -0.14285714 -0.00000000  0.28571429       0.012
   0.14285714  0.14285714  0.28571429       0.006
   0.28571429  0.14285714  0.28571429       0.012
   0.42857143  0.14285714  0.28571429       0.012
  -0.42857143  0.14285714  0.28571429       0.012
  -0.28571429  0.14285714  0.28571429       0.012
  -0.14285714  0.14285714  0.28571429       0.012
   0.28571429  0.28571429  0.28571429       0.006
   0.42857143  0.28571429  0.28571429       0.012
  -0.42857143  0.28571429  0.28571429       0.012
  -0.28571429  0.28571429  0.28571429       0.012
  -0.14285714  0.28571429  0.28571429       0.012
   0.42857143  0.42857143  0.28571429       0.006
  -0.42857143  0.42857143  0.28571429       0.012
  -0.28571429  0.42857143  0.28571429       0.012
  -0.14285714  0.42857143  0.28571429       0.012
  -0.42857143 -0.42857143  0.28571429       0.006
  -0.28571429 -0.42857143  0.28571429       0.012
  -0.14285714 -0.42857143  0.28571429       0.012
  -0.28571429 -0.28571429  0.28571429       0.006
  -0.14285714 -0.28571429  0.28571429       0.012
  -0.14285714 -0.14285714  0.28571429       0.006
   0.00000000  0.00000000  0.42857143       0.006
   0.14285714  0.00000000  0.42857143       0.012
   0.28571429 -0.00000000  0.42857143       0.012
   0.42857143 -0.00000000  0.42857143       0.012
  -0.42857143  0.00000000  0.42857143       0.012
  -0.28571429  0.00000000  0.42857143       0.012
  -0.14285714  0.00000000  0.42857143       0.012
   0.14285714  0.14285714  0.42857143       0.006
   0.28571429  0.14285714  0.42857143       0.012
   0.42857143  0.14285714  0.42857143       0.012
  -0.42857143  0.14285714  0.42857143       0.012
  -0.28571429  0.14285714  0.42857143       0.012
  -0.14285714  0.14285714  0.42857143       0.012
   0.28571429  0.28571429  0.42857143       0.006
   0.42857143  0.28571429  0.42857143       0.012
  -0.42857143  0.28571429  0.42857143       0.012
  -0.28571429  0.28571429  0.42857143       0.012
  -0.14285714  0.28571429  0.42857143       0.012
   0.42857143  0.42857143  0.42857143       0.006
  -0.42857143  0.42857143  0.42857143       0.012
  -0.28571429  0.42857143  0.42857143       0.012
  -0.14285714  0.42857143  0.42857143       0.012
  -0.42857143 -0.42857143  0.42857143       0.006
  -0.28571429 -0.42857143  0.42857143       0.012
  -0.14285714 -0.42857143  0.42857143       0.012
  -0.28571429 -0.28571429  0.42857143       0.006
  -0.14285714 -0.28571429  0.42857143       0.012
  -0.14285714 -0.14285714  0.42857143       0.006
 
 position of ions in fractional coordinates (direct lattice) 
   0.25000000  0.75000000  0.50000000
   0.75000000  0.25000000  0.50000000
   0.37704000  0.87704000  0.25408000
   0.00000000  0.00000000  0.50000000
   0.62296000  0.12296000  0.74592000
   0.87704000  0.62296000  0.50000000
   0.00000000  0.50000000  0.00000000
   0.12296000  0.37704000  0.50000000
   0.50000000  0.50000000  0.50000000
   0.50000000  0.00000000  0.00000000
   0.25000000  0.25000000  0.00000000
   0.75000000  0.75000000  0.00000000
 
 position of ions in cartesian coordinates  (Angst):
  -0.18495234  4.10177248  0.30184883
   3.87160843  1.36725749  0.30184883
   0.28340045  4.79655805 -2.09166473
   0.00000000  0.00000000  3.31162500
   3.40325564  0.67247193  2.69536240
   3.79568303  3.40698692 -1.20303925
  -1.10661636  2.73451499 -1.50488808
  -0.10902694  2.06204306  1.80673692
   1.84332804  2.73451499  0.30184883
   2.94994441  0.00000000 -1.50488808
   0.92166402  1.36725749 -1.50488808
   2.76499207  4.10177248 -4.51466425
 


--------------------------------------------------------------------------------------------------------


 k-point   1 :   0.0000 0.0000 0.0000  plane waves:    7189
 k-point   2 :   0.1429-0.0000 0.0000  plane waves:    7150
 k-point   3 :   0.2857-0.0000 0.0000  plane waves:    7125
 k-point   4 :   0.4286-0.0000 0.0000  plane waves:    7137
 k-point   5 :   0.1429 0.1429 0.0000  plane waves:    7124
 k-point   6 :   0.2857 0.1429 0.0000  plane waves:    7130
 k-point   7 :   0.4286 0.1429 0.0000  plane waves:    7135
 k-point   8 :  -0.4286 0.1429 0.0000  plane waves:    7123
 k-point   9 :  -0.2857 0.1429 0.0000  plane waves:    7133
 k-point  10 :  -0.1429 0.1429 0.0000  plane waves:    7143
 k-point  11 :   0.2857 0.2857 0.0000  plane waves:    7138
 k-point  12 :   0.4286 0.2857 0.0000  plane waves:    7134
 k-point  13 :  -0.4286 0.2857 0.0000  plane waves:    7133
 k-point  14 :  -0.2857 0.2857 0.0000  plane waves:    7132
 k-point  15 :   0.4286 0.4286 0.0000  plane waves:    7133
 k-point  16 :  -0.4286 0.4286 0.0000  plane waves:    7132
 k-point  17 :  -0.0000-0.0000 0.1429  plane waves:    7143
 k-point  18 :   0.1429-0.0000 0.1429  plane waves:    7133
 k-point  19 :   0.2857 0.0000 0.1429  plane waves:    7124
 k-point  20 :   0.4286-0.0000 0.1429  plane waves:    7133
 k-point  21 :  -0.4286-0.0000 0.1429  plane waves:    7130
 k-point  22 :  -0.2857-0.0000 0.1429  plane waves:    7124
 k-point  23 :  -0.1429-0.0000 0.1429  plane waves:    7150
 k-point  24 :   0.1429 0.1429 0.1429  plane waves:    7124
 k-point  25 :   0.2857 0.1429 0.1429  plane waves:    7143
 k-point  26 :   0.4286 0.1429 0.1429  plane waves:    7143
 k-point  27 :  -0.4286 0.1429 0.1429  plane waves:    7124
 k-point  28 :  -0.2857 0.1429 0.1429  plane waves:    7133
 k-point  29 :  -0.1429 0.1429 0.1429  plane waves:    7122
 k-point  30 :   0.2857 0.2857 0.1429  plane waves:    7156
 k-point  31 :   0.4286 0.2857 0.1429  plane waves:    7146
 k-point  32 :  -0.4286 0.2857 0.1429  plane waves:    7133
 k-point  33 :  -0.2857 0.2857 0.1429  plane waves:    7122
 k-point  34 :  -0.1429 0.2857 0.1429  plane waves:    7119
 k-point  35 :   0.4286 0.4286 0.1429  plane waves:    7133
 k-point  36 :  -0.4286 0.4286 0.1429  plane waves:    7137
 k-point  37 :  -0.2857 0.4286 0.1429  plane waves:    7132
 k-point  38 :  -0.1429 0.4286 0.1429  plane waves:    7138
 k-point  39 :  -0.4286-0.4286 0.1429  plane waves:    7138
 k-point  40 :  -0.2857-0.4286 0.1429  plane waves:    7128
 k-point  41 :  -0.1429-0.4286 0.1429  plane waves:    7145
 k-point  42 :  -0.2857-0.2857 0.1429  plane waves:    7122
 k-point  43 :  -0.1429-0.2857 0.1429  plane waves:    7122
 k-point  44 :  -0.1429-0.1429 0.1429  plane waves:    7126
 k-point  45 :   0.0000 0.0000 0.2857  plane waves:    7132
 k-point  46 :   0.1429-0.0000 0.2857  plane waves:    7133
 k-point  47 :   0.2857-0.0000 0.2857  plane waves:    7134
 k-point  48 :   0.4286-0.0000 0.2857  plane waves:    7138
 k-point  49 :  -0.4286 0.0000 0.2857  plane waves:    7130
 k-point  50 :  -0.2857-0.0000 0.2857  plane waves:    7125
 k-point  51 :  -0.1429-0.0000 0.2857  plane waves:    7133
 k-point  52 :   0.1429 0.1429 0.2857  plane waves:    7146
 k-point  53 :   0.2857 0.1429 0.2857  plane waves:    7156
 k-point  54 :   0.4286 0.1429 0.2857  plane waves:    7143
 k-point  55 :  -0.4286 0.1429 0.2857  plane waves:    7123
 k-point  56 :  -0.2857 0.1429 0.2857  plane waves:    7119
 k-point  57 :  -0.1429 0.1429 0.2857  plane waves:    7122
 k-point  58 :   0.2857 0.2857 0.2857  plane waves:    7156
 k-point  59 :   0.4286 0.2857 0.2857  plane waves:    7134
 k-point  60 :  -0.4286 0.2857 0.2857  plane waves:    7132
 k-point  61 :  -0.2857 0.2857 0.2857  plane waves:    7128
 k-point  62 :  -0.1429 0.2857 0.2857  plane waves:    7133
 k-point  63 :   0.4286 0.4286 0.2857  plane waves:    7138
 k-point  64 :  -0.4286 0.4286 0.2857  plane waves:    7134
 k-point  65 :  -0.2857 0.4286 0.2857  plane waves:    7133
 k-point  66 :  -0.1429 0.4286 0.2857  plane waves:    7128
 k-point  67 :  -0.4286-0.4286 0.2857  plane waves:    7134
 k-point  68 :  -0.2857-0.4286 0.2857  plane waves:    7139
 k-point  69 :  -0.1429-0.4286 0.2857  plane waves:    7122
 k-point  70 :  -0.2857-0.2857 0.2857  plane waves:    7138
 k-point  71 :  -0.1429-0.2857 0.2857  plane waves:    7123
 k-point  72 :  -0.1429-0.1429 0.2857  plane waves:    7124
 k-point  73 :   0.0000 0.0000 0.4286  plane waves:    7132
 k-point  74 :   0.1429 0.0000 0.4286  plane waves:    7133
 k-point  75 :   0.2857-0.0000 0.4286  plane waves:    7134
 k-point  76 :   0.4286-0.0000 0.4286  plane waves:    7134
 k-point  77 :  -0.4286 0.0000 0.4286  plane waves:    7137
 k-point  78 :  -0.2857 0.0000 0.4286  plane waves:    7124
 k-point  79 :  -0.1429 0.0000 0.4286  plane waves:    7133
 k-point  80 :   0.1429 0.1429 0.4286  plane waves:    7146
 k-point  81 :   0.2857 0.1429 0.4286  plane waves:    7143
 k-point  82 :   0.4286 0.1429 0.4286  plane waves:    7133
 k-point  83 :  -0.4286 0.1429 0.4286  plane waves:    7139
 k-point  84 :  -0.2857 0.1429 0.4286  plane waves:    7133
 k-point  85 :  -0.1429 0.1429 0.4286  plane waves:    7137
 k-point  86 :   0.2857 0.2857 0.4286  plane waves:    7138
 k-point  87 :   0.4286 0.2857 0.4286  plane waves:    7128
 k-point  88 :  -0.4286 0.2857 0.4286  plane waves:    7133
 k-point  89 :  -0.2857 0.2857 0.4286  plane waves:    7134
 k-point  90 :  -0.1429 0.2857 0.4286  plane waves:    7138
 k-point  91 :   0.4286 0.4286 0.4286  plane waves:    7134
 k-point  92 :  -0.4286 0.4286 0.4286  plane waves:    7128
 k-point  93 :  -0.2857 0.4286 0.4286  plane waves:    7134
 k-point  94 :  -0.1429 0.4286 0.4286  plane waves:    7128
 k-point  95 :  -0.4286-0.4286 0.4286  plane waves:    7126
 k-point  96 :  -0.2857-0.4286 0.4286  plane waves:    7139
 k-point  97 :  -0.1429-0.4286 0.4286  plane waves:    7145
 k-point  98 :  -0.2857-0.2857 0.4286  plane waves:    7122
 k-point  99 :  -0.1429-0.2857 0.4286  plane waves:    7130
 k-point 100 :  -0.1429-0.1429 0.4286  plane waves:    7124

 maximum and minimum number of plane-waves per node :      3616     3520

 maximum number of plane-waves:      7189
 maximum index in each direction: 
   IXMAX=   13   IYMAX=   13   IZMAX=   13
   IXMIN=  -13   IYMIN=  -13   IZMIN=  -13


 parallel 3D FFT for wavefunctions:
    minimum data exchange during FFTs selected (reduces bandwidth)
 parallel 3D FFT for charge:
    minimum data exchange during FFTs selected (reduces bandwidth)


 total amount of memory used by VASP MPI-rank0   446420. kBytes
=======================================================================

   base      :      30000. kBytes
   nonl-proj :     155690. kBytes
   fftplans  :      17773. kBytes
   grid      :      13358. kBytes
   one-center:         93. kBytes
   wavefun   :     229506. kBytes
 
     INWAV:  cpu time    0.0001: real time    0.0001
 Broyden mixing: mesh for mixing (old mesh)
   NGX = 27   NGY = 27   NGZ = 27
  (NGX  =108   NGY  =108   NGZ  =108)
  gives a total of  19683 points

 initial charge density was supplied:
 charge density of overlapping atoms calculated
 number of electron     126.0000000 magnetization 
 keeping initial charge density in first step


--------------------------------------------------------------------------------------------------------


 Maximum index for augmentation-charges        21053 (set IRDMAX)


--------------------------------------------------------------------------------------------------------


 First call to EWALD:  gamma=   0.296
 Maximum number of real-space cells 3x 3x 3
 Maximum number of reciprocal cells 3x 3x 3

    FEWALD:  cpu time    0.0026: real time    0.0026


--------------------------------------- Iteration      1(   1)  ---------------------------------------


    POTLOK:  cpu time    0.2849: real time    0.2872
    SETDIJ:  cpu time    0.6496: real time    0.6535
    TRIAL :  cpu time   34.3792: real time   34.6705
    CORREC:  cpu time    0.0023: real time    0.0023
    --------------------------------------------
      LOOP:  cpu time   35.3911: real time   35.6937

 eigenvalue-minimisations  : 16428
 total energy-change (2. order) : 0.1404549E+04  (-0.8613390E+04)
 number of electron     126.0000000 magnetization 
 augmentation part      126.0000000 magnetization 

 Free energy of the ion-electron system (eV)
  ---------------------------------------------------
  alpha Z        PSCENC =       657.83407630
  Ewald energy   TEWEN  =    -11316.36515296
  -Hartree energ DENC   =     -3722.39098642
  -exchange      EXHF   =         0.00000000
  -V(xc)+E(xc)   XCENC  =       612.16655898
  PAW double counting   =     12139.29562609   -12091.82663909
  entropy T*S    EENTRO =        -0.00088880
  eigenvalues    EBANDS =      -120.89642079
  atomic energy  EATOM  =     15246.73248675
  ---------------------------------------------------
  free energy    TOTEN  =      1404.54866005 eV

  energy without entropy =     1404.54954885  energy(sigma->0) =     1404.54910445


--------------------------------------------------------------------------------------------------------




--------------------------------------- Iteration      1(   2)  ---------------------------------------


    TRIAL :  cpu time   41.7705: real time   42.6992
    CORREC:  cpu time    0.0022: real time    0.0023
    --------------------------------------------
      LOOP:  cpu time   41.7763: real time   42.7053

 eigenvalue-minimisations  : 17256
 total energy-change (2. order) :-0.1621936E+04  (-0.1583958E+04)
 number of electron     126.0000000 magnetization 
 augmentation part      126.0000000 magnetization 

 Free energy of the ion-electron system (eV)
  ---------------------------------------------------
  alpha Z        PSCENC =       657.83407630
  Ewald energy   TEWEN  =    -11316.36515296
  -Hartree energ DENC   =     -3722.39098642
  -exchange      EXHF   =         0.00000000
  -V(xc)+E(xc)   XCENC  =       612.16655898
  PAW double counting   =     12139.29562609   -12091.82663909
  entropy T*S    EENTRO =        -0.00202277
  eigenvalues    EBANDS =     -1742.83169133
  atomic energy  EATOM  =     15246.73248675
  ---------------------------------------------------
  free energy    TOTEN  =      -217.38774446 eV

  energy without entropy =     -217.38572169  energy(sigma->0) =     -217.38673307


--------------------------------------------------------------------------------------------------------




--------------------------------------- Iteration      1(   3)  ---------------------------------------


    TRIAL :  cpu time   46.3323: real time   47.1440
    CORREC:  cpu time    0.0022: real time    0.0022
    --------------------------------------------
      LOOP:  cpu time   46.3363: real time   47.1491

 eigenvalue-minimisations  : 21054
 total energy-change (2. order) :-0.6720229E+02  (-0.6520087E+02)
 number of electron     126.0000000 magnetization 
 augmentation part      126.0000000 magnetization 

 Free energy of the ion-electron system (eV)
  ---------------------------------------------------
  alpha Z        PSCENC =       657.83407630
  Ewald energy   TEWEN  =    -11316.36515296
  -Hartree energ DENC   =     -3722.39098642
  -exchange      EXHF   =         0.00000000
  -V(xc)+E(xc)   XCENC  =       612.16655898
  PAW double counting   =     12139.29562609   -12091.82663909
  entropy T*S    EENTRO =        -0.00173539
  eigenvalues    EBANDS =     -1810.03426662
  atomic energy  EATOM  =     15246.73248675
  ---------------------------------------------------
  free energy    TOTEN  =      -284.59003238 eV

  energy without entropy =     -284.58829698  energy(sigma->0) =     -284.58916468


--------------------------------------------------------------------------------------------------------




--------------------------------------- Iteration      1(   4)  ---------------------------------------


    TRIAL :  cpu time   45.4623: real time   46.2433
    CORREC:  cpu time    0.0020: real time    0.0021
    --------------------------------------------
      LOOP:  cpu time   45.4659: real time   46.2481

 eigenvalue-minimisations  : 19764
 total energy-change (2. order) :-0.1826120E+01  (-0.1801503E+01)
 number of electron     126.0000000 magnetization 
 augmentation part      126.0000000 magnetization 

 Free energy of the ion-electron system (eV)
  ---------------------------------------------------
  alpha Z        PSCENC =       657.83407630
  Ewald energy   TEWEN  =    -11316.36515296
  -Hartree energ DENC   =     -3722.39098642
  -exchange      EXHF   =         0.00000000
  -V(xc)+E(xc)   XCENC  =       612.16655898
  PAW double counting   =     12139.29562609   -12091.82663909
  entropy T*S    EENTRO =        -0.00238352
  eigenvalues    EBANDS =     -1811.85973820
  atomic energy  EATOM  =     15246.73248675
  ---------------------------------------------------
  free energy    TOTEN  =      -286.41615208 eV

  energy without entropy =     -286.41376857  energy(sigma->0) =     -286.41496033


--------------------------------------------------------------------------------------------------------




--------------------------------------- Iteration      1(   5)  ---------------------------------------


    TRIAL :  cpu time   46.2323: real time   47.0719
    CORREC:  cpu time    0.0025: real time    0.0025
    CHARGE:  cpu time    2.4722: real time    2.4921
    --------------------------------------------
      LOOP:  cpu time   48.7084: real time   49.5693

 eigenvalue-minimisations  : 20394
 total energy-change (2. order) :-0.4327912E-01  (-0.4307364E-01)
 number of electron     126.0000001 magnetization 
 augmentation part       16.9124907 magnetization 

 Free energy of the ion-electron system (eV)
  ---------------------------------------------------
  alpha Z        PSCENC =       657.83407630
  Ewald energy   TEWEN  =    -11316.36515296
  -Hartree energ DENC   =     -3722.39098642
  -exchange      EXHF   =         0.00000000
  -V(xc)+E(xc)   XCENC  =       612.16655898
  PAW double counting   =     12139.29562609   -12091.82663909
  entropy T*S    EENTRO =        -0.00249751
  eigenvalues    EBANDS =     -1811.90290333
  atomic energy  EATOM  =     15246.73248675
  ---------------------------------------------------
  free energy    TOTEN  =      -286.45943120 eV

  energy without entropy =     -286.45693369  energy(sigma->0) =     -286.45818245


--------------------------------------------------------------------------------------------------------




--------------------------------------- Iteration      1(   6)  ---------------------------------------


    POTLOK:  cpu time    0.1635: real time    0.1645
    SETDIJ:  cpu time    0.6632: real time    0.6676
    TRIAL :  cpu time   30.1280: real time   30.4770
    CORREC:  cpu time   12.1165: real time   12.5797
    CHARGE:  cpu time    4.8702: real time    4.9012
    --------------------------------------------
      LOOP:  cpu time   47.9551: real time   48.8043

 eigenvalue-minimisations  :     0
 total energy-change (2. order) : 0.7220896E+02  (-0.1403263E+02)
 number of electron     126.0000001 magnetization 
 augmentation part       19.2421246 magnetization 

 Free energy of the ion-electron system (eV)
  ---------------------------------------------------
  alpha Z        PSCENC =       657.83407630
  Ewald energy   TEWEN  =    -11316.36515296
  -Hartree energ DENC   =     -3258.28322476
  -exchange      EXHF   =         0.00000000
  -V(xc)+E(xc)   XCENC  =       608.23727858
  PAW double counting   =     15236.96240988   -15237.49667375
  entropy T*S    EENTRO =        -0.00106966
  eigenvalues    EBANDS =     -2151.86917574
  atomic energy  EATOM  =     15246.73248675
  ---------------------------------------------------
  free energy    TOTEN  =      -214.25047321 eV

  energy without entropy =     -214.24940355  energy(sigma->0) =     -214.24993838


--------------------------------------------------------------------------------------------------------




--------------------------------------- Iteration      1(   7)  ---------------------------------------


    POTLOK:  cpu time    0.1514: real time    0.1524
    SETDIJ:  cpu time    0.7041: real time    0.7080
    TRIAL :  cpu time   35.9989: real time   36.6713
    CORREC:  cpu time   15.2629: real time   15.3809
    CHARGE:  cpu time    2.4185: real time    2.4353
    --------------------------------------------
      LOOP:  cpu time   54.5371: real time   55.3500

 eigenvalue-minimisations  :     0
 total energy-change (2. order) :-0.1382380E+02  (-0.2592728E+01)
 number of electron     126.0000001 magnetization 
 augmentation part       19.1786684 magnetization 

 Free energy of the ion-electron system (eV)
  ---------------------------------------------------
  alpha Z        PSCENC =       657.83407630
  Ewald energy   TEWEN  =    -11316.36515296
  -Hartree energ DENC   =     -3514.79001740
  -exchange      EXHF   =         0.00000000
  -V(xc)+E(xc)   XCENC  =       620.36213920
  PAW double counting   =     14620.52964512   -14604.21817036
  entropy T*S    EENTRO =        -0.00140433
  eigenvalues    EBANDS =     -1938.15821259
  atomic energy  EATOM  =     15246.73248675
  ---------------------------------------------------
  free energy    TOTEN  =      -228.07427561 eV

  energy without entropy =     -228.07287127  energy(sigma->0) =     -228.07357344


--------------------------------------------------------------------------------------------------------




--------------------------------------- Iteration      1(   8)  ---------------------------------------


    POTLOK:  cpu time    0.1374: real time    0.1383
    SETDIJ:  cpu time    0.6309: real time    0.6348
    TRIAL :  cpu time   38.7357: real time   39.0904
    CORREC:  cpu time   13.9339: real time   14.2443
    CHARGE:  cpu time    3.7936: real time    3.8207
    --------------------------------------------
      LOOP:  cpu time   57.2541: real time   57.9517

 eigenvalue-minimisations  :     0
 total energy-change (2. order) :-0.2586386E+01  (-0.7126766E+00)
 number of electron     126.0000001 magnetization 
 augmentation part       19.1612986 magnetization 

 Free energy of the ion-electron system (eV)
  ---------------------------------------------------
  alpha Z        PSCENC =       657.83407630
  Ewald energy   TEWEN  =    -11316.36515296
  -Hartree energ DENC   =     -3542.45014607
  -exchange      EXHF   =         0.00000000
  -V(xc)+E(xc)   XCENC  =       621.83868701
  PAW double counting   =     14408.83197443   -14389.16366228
  entropy T*S    EENTRO =        -0.00178519
  eigenvalues    EBANDS =     -1917.91752085
  atomic energy  EATOM  =     15246.73248675
  ---------------------------------------------------
  free energy    TOTEN  =      -230.66066201 eV

  energy without entropy =     -230.65887682  energy(sigma->0) =     -230.65976941


--------------------------------------------------------------------------------------------------------




--------------------------------------- Iteration      1(   9)  ---------------------------------------


    POTLOK:  cpu time    0.1452: real time    0.1462
    SETDIJ:  cpu time    1.0661: real time    1.0730
    TRIAL :  cpu time   37.5327: real time   37.8897
    CORREC:  cpu time   13.2253: real time   13.3333
    CHARGE:  cpu time    3.4206: real time    3.4438
    --------------------------------------------
      LOOP:  cpu time   55.3942: real time   55.8910

 eigenvalue-minimisations  :     0
 total energy-change (2. order) :-0.7124685E+00  (-0.3075334E+00)
 number of electron     126.0000001 magnetization 
 augmentation part       19.1747760 magnetization 

 Free energy of the ion-electron system (eV)
  ---------------------------------------------------
  alpha Z        PSCENC =       657.83407630
  Ewald energy   TEWEN  =    -11316.36515296
  -Hartree energ DENC   =     -3550.04644384
  -exchange      EXHF   =         0.00000000
  -V(xc)+E(xc)   XCENC  =       622.26738913
  PAW double counting   =     14329.24328165   -14306.97537848
  entropy T*S    EENTRO =        -0.00208455
  eigenvalues    EBANDS =     -1914.06160389
  atomic energy  EATOM  =     15246.73248675
  ---------------------------------------------------
  free energy    TOTEN  =      -231.37313053 eV

  energy without entropy =     -231.37104597  energy(sigma->0) =     -231.37208825


--------------------------------------------------------------------------------------------------------




--------------------------------------- Iteration      1(  10)  ---------------------------------------


    POTLOK:  cpu time    0.1459: real time    0.1468
    SETDIJ:  cpu time    0.6319: real time    0.6356
    TRIAL :  cpu time   37.6594: real time   37.9881
    CORREC:  cpu time   13.4706: real time   13.8996
    CHARGE:  cpu time    3.9929: real time    4.0217
    --------------------------------------------
      LOOP:  cpu time   56.4535: real time   57.2482

 eigenvalue-minimisations  :     0
 total energy-change (2. order) :-0.3076801E+00  (-0.9763801E-01)
 number of electron     126.0000001 magnetization 
 augmentation part       19.1769292 magnetization 

 Free energy of the ion-electron system (eV)
  ---------------------------------------------------
  alpha Z        PSCENC =       657.83407630
  Ewald energy   TEWEN  =    -11316.36515296
  -Hartree energ DENC   =     -3558.87423437
  -exchange      EXHF   =         0.00000000
  -V(xc)+E(xc)   XCENC  =       622.71241230
  PAW double counting   =     14294.85688816   -14270.53458824
  entropy T*S    EENTRO =        -0.00223505
  eigenvalues    EBANDS =     -1908.04061397
  atomic energy  EATOM  =     15246.73248675
  ---------------------------------------------------
  free energy    TOTEN  =      -231.68081059 eV

  energy without entropy =     -231.67857554  energy(sigma->0) =     -231.67969306


--------------------------------------------------------------------------------------------------------




--------------------------------------- Iteration      1(  11)  ---------------------------------------


    POTLOK:  cpu time    0.1445: real time    0.1456
    SETDIJ:  cpu time    0.6231: real time    0.6271
    TRIAL :  cpu time   38.2000: real time   38.9817
    CORREC:  cpu time   11.6483: real time   11.7362
    CHARGE:  cpu time    2.9513: real time    2.9716
    --------------------------------------------
      LOOP:  cpu time   53.5720: real time   54.4681

 eigenvalue-minimisations  :     0
 total energy-change (2. order) :-0.9764674E-01  (-0.4260211E-01)
 number of electron     126.0000001 magnetization 
 augmentation part       19.1837569 magnetization 

 Free energy of the ion-electron system (eV)
  ---------------------------------------------------
  alpha Z        PSCENC =       657.83407630
  Ewald energy   TEWEN  =    -11316.36515296
  -Hartree energ DENC   =     -3561.39431392
  -exchange      EXHF   =         0.00000000
  -V(xc)+E(xc)   XCENC  =       622.85340220
  PAW double counting   =     14296.24484044   -14271.38431129
  entropy T*S    EENTRO =        -0.00225777
  eigenvalues    EBANDS =     -1906.29724980
  atomic energy  EATOM  =     15246.73248675
  ---------------------------------------------------
  free energy    TOTEN  =      -231.77845733 eV

  energy without entropy =     -231.77619956  energy(sigma->0) =     -231.77732844


--------------------------------------------------------------------------------------------------------




--------------------------------------- Iteration      1(  12)  ---------------------------------------


    POTLOK:  cpu time    0.1409: real time    0.1417
    SETDIJ:  cpu time    0.5717: real time    0.5753
    TRIAL :  cpu time   37.6190: real time   37.9504
    CORREC:  cpu time   13.1712: real time   13.2756
    CHARGE:  cpu time    3.0596: real time    3.0793
    --------------------------------------------
      LOOP:  cpu time   54.5671: real time   55.0273

 eigenvalue-minimisations  :     0
 total energy-change (2. order) :-0.4257350E-01  (-0.1881163E-01)
 number of electron     126.0000001 magnetization 
 augmentation part       19.1783950 magnetization 

 Free energy of the ion-electron system (eV)
  ---------------------------------------------------
  alpha Z        PSCENC =       657.83407630
  Ewald energy   TEWEN  =    -11316.36515296
  -Hartree energ DENC   =     -3560.95525791
  -exchange      EXHF   =         0.00000000
  -V(xc)+E(xc)   XCENC  =       622.83909302
  PAW double counting   =     14320.43024764   -14295.61261702
  entropy T*S    EENTRO =        -0.00232204
  eigenvalues    EBANDS =     -1906.72164887
  atomic energy  EATOM  =     15246.73248675
  ---------------------------------------------------
  free energy    TOTEN  =      -231.82103083 eV

  energy without entropy =     -231.81870879  energy(sigma->0) =     -231.81986981


--------------------------------------------------------------------------------------------------------




--------------------------------------- Iteration      1(  13)  ---------------------------------------


    POTLOK:  cpu time    0.1414: real time    0.1423
    SETDIJ:  cpu time    1.5743: real time    1.5834
    TRIAL :  cpu time   38.4952: real time   38.9313
    CORREC:  cpu time   14.7210: real time   14.8331
    CHARGE:  cpu time    2.7101: real time    2.7284
    --------------------------------------------
      LOOP:  cpu time   58.1607: real time   58.7406

 eigenvalue-minimisations  :     0
 total energy-change (2. order) :-0.1879441E-01  (-0.8481646E-02)
 number of electron     126.0000001 magnetization 
 augmentation part       19.1777354 magnetization 

 Free energy of the ion-electron system (eV)
  ---------------------------------------------------
  alpha Z        PSCENC =       657.83407630
  Ewald energy   TEWEN  =    -11316.36515296
  -Hartree energ DENC   =     -3560.75266223
  -exchange      EXHF   =         0.00000000
  -V(xc)+E(xc)   XCENC  =       622.82367834
  PAW double counting   =     14346.46011576   -14321.82067446
  entropy T*S    EENTRO =        -0.00244180
  eigenvalues    EBANDS =     -1906.74937070
  atomic energy  EATOM  =     15246.73248675
  ---------------------------------------------------
  free energy    TOTEN  =      -231.83982524 eV

  energy without entropy =     -231.83738345  energy(sigma->0) =     -231.83860434


--------------------------------------------------------------------------------------------------------




--------------------------------------- Iteration      1(  14)  ---------------------------------------


    POTLOK:  cpu time    0.1393: real time    0.1403
    SETDIJ:  cpu time    0.6356: real time    0.6400
    TRIAL :  cpu time   37.9859: real time   38.4155
    CORREC:  cpu time   13.8658: real time   13.9696
    CHARGE:  cpu time    2.9440: real time    2.9639
    --------------------------------------------
      LOOP:  cpu time   55.5747: real time   56.1340

 eigenvalue-minimisations  :     0
 total energy-change (2. order) :-0.8464606E-02  (-0.4745472E-02)
 number of electron     126.0000001 magnetization 
 augmentation part       19.1775310 magnetization 

 Free energy of the ion-electron system (eV)
  ---------------------------------------------------
  alpha Z        PSCENC =       657.83407630
  Ewald energy   TEWEN  =    -11316.36515296
  -Hartree energ DENC   =     -3561.99906207
  -exchange      EXHF   =         0.00000000
  -V(xc)+E(xc)   XCENC  =       622.87086330
  PAW double counting   =     14358.07534900   -14333.42426684
  entropy T*S    EENTRO =        -0.00261434
  eigenvalues    EBANDS =     -1905.57014152
  atomic energy  EATOM  =     15246.73248675
  ---------------------------------------------------
[...]
     74      10.2449      0.00000
     75      10.3050      0.00000
     76      10.4076      0.00000
     77      10.6851      0.00000
     78      10.7933      0.00000

 k-point    95 :      -0.4286   -0.4286    0.4286
  band No.  band energies     occupation 
      1     -54.6979      2.00000
      2     -54.6949      2.00000
      3     -54.6141      2.00000
      4     -54.6141      2.00000
      5     -54.5172      2.00000
      6     -54.5038      2.00000
      7     -54.3604      2.00000
      8     -54.3604      2.00000
      9     -28.7989      2.00000
     10     -28.7749      2.00000
     11     -28.6399      2.00000
     12     -28.6398      2.00000
     13     -28.1594      2.00000
     14     -28.1580      2.00000
     15     -28.1281      2.00000
     16     -28.1239      2.00000
     17     -28.1239      2.00000
     18     -28.0206      2.00000
     19     -28.0140      2.00000
     20     -28.0140      2.00000
     21     -27.9593      2.00000
     22     -27.8743      2.00000
     23     -27.8739      2.00000
     24     -27.8739      2.00000
     25     -27.8668      2.00000
     26     -27.8545      2.00000
     27     -27.6318      2.00000
     28     -27.6033      2.00000
     29     -27.2516      2.00000
     30     -27.2516      2.00000
     31     -27.0872      2.00000
     32     -27.0871      2.00000
     33      -1.2669      2.00000
     34       0.2427      2.00000
     35       0.7125      2.00000
     36       0.8133      2.00000
     37       2.5482      2.00000
     38       2.5482      2.00000
     39       3.6095      2.00000
     40       3.9635      2.00000
     41       4.3332      2.00000
     42       4.3818      2.00000
     43       4.3818      2.00000
     44       4.9349      2.00000
     45       5.1922      2.00000
     46       5.2785      2.00000
     47       5.2786      2.00000
     48       5.4699      2.00000
     49       5.4699      2.00000
     50       5.8372      2.00000
     51       5.8372      2.00000
     52       5.9287      2.00000
     53       6.0797      2.00000
     54       6.1830      2.00000
     55       6.2672      2.00000
     56       6.2672      2.00000
     57       6.3546      2.00000
     58       7.6935      2.00000
     59       8.0747      2.00000
     60       8.1133      2.00000
     61       8.5842      0.00000
     62       8.6556      0.00000
     63       8.6557      0.00000
     64       8.7988      0.00000
     65       8.7989      0.00000
     66       9.2587      0.00000
     67       9.4562      0.00000
     68       9.4563      0.00000
     69       9.5134      0.00000
     70       9.6678      0.00000
     71       9.6879      0.00000
     72       9.7392      0.00000
     73       9.7760      0.00000
     74       9.8243      0.00000
     75      10.1005      0.00000
     76      10.1995      0.00000
     77      10.2440      0.00000
     78      10.3750      0.00000

 k-point    96 :      -0.2857   -0.4286    0.4286
  band No.  band energies     occupation 
      1     -54.7121      2.00000
      2     -54.7081      2.00000
      3     -54.6015      2.00000
      4     -54.6010      2.00000
      5     -54.5037      2.00000
      6     -54.4933      2.00000
      7     -54.3716      2.00000
      8     -54.3714      2.00000
      9     -28.7878      2.00000
     10     -28.7684      2.00000
     11     -28.6004      2.00000
     12     -28.5988      2.00000
     13     -28.2691      2.00000
     14     -28.2278      2.00000
     15     -28.1589      2.00000
     16     -28.1403      2.00000
     17     -28.1252      2.00000
     18     -28.0225      2.00000
     19     -27.9964      2.00000
     20     -27.9939      2.00000
     21     -27.9162      2.00000
     22     -27.8837      2.00000
     23     -27.8805      2.00000
     24     -27.8738      2.00000
     25     -27.8632      2.00000
     26     -27.8571      2.00000
     27     -27.5597      2.00000
     28     -27.5548      2.00000
     29     -27.3074      2.00000
     30     -27.3063      2.00000
     31     -27.0591      2.00000
     32     -27.0588      2.00000
     33      -1.2759      2.00000
     34       0.2541      2.00000
     35       0.4996      2.00000
     36       0.7597      2.00000
     37       2.6832      2.00000
     38       2.8843      2.00000
     39       3.6644      2.00000
     40       4.0617      2.00000
     41       4.3087      2.00000
     42       4.4841      2.00000
     43       4.4920      2.00000
     44       4.9431      2.00000
     45       4.9978      2.00000
     46       5.1665      2.00000
     47       5.2432      2.00000
     48       5.4864      2.00000
     49       5.5749      2.00000
     50       5.6893      2.00000
     51       5.7598      2.00000
     52       5.8262      2.00000
     53       6.0240      2.00000
     54       6.1732      2.00000
     55       6.2747      2.00000
     56       6.4543      2.00000
     57       6.8407      2.00000
     58       7.3349      2.00000
     59       7.8258      2.00000
     60       7.9533      2.00000
     61       8.4261      1.50594
     62       8.4290      1.36744
     63       8.6955      0.00000
     64       8.7586      0.00000
     65       8.8663      0.00000
     66       9.1900      0.00000
     67       9.1916      0.00000
     68       9.3909      0.00000
     69       9.4317      0.00000
     70       9.5604      0.00000
     71       9.6479      0.00000
     72       9.7969      0.00000
     73       9.9411      0.00000
     74      10.0485      0.00000
     75      10.1067      0.00000
     76      10.2092      0.00000
     77      10.3034      0.00000
     78      10.5196      0.00000

 k-point    97 :      -0.1429   -0.4286    0.4286
  band No.  band energies     occupation 
      1     -54.7260      2.00000
      2     -54.7220      2.00000
      3     -54.5870      2.00000
      4     -54.5864      2.00000
      5     -54.4857      2.00000
      6     -54.4798      2.00000
      7     -54.3881      2.00000
      8     -54.3878      2.00000
      9     -28.7704      2.00000
     10     -28.7587      2.00000
     11     -28.5551      2.00000
     12     -28.5533      2.00000
     13     -28.3465      2.00000
     14     -28.3153      2.00000
     15     -28.1638      2.00000
     16     -28.1568      2.00000
     17     -28.1070      2.00000
     18     -28.0338      2.00000
     19     -27.9747      2.00000
     20     -27.9697      2.00000
     21     -27.9073      2.00000
     22     -27.8956      2.00000
     23     -27.8930      2.00000
     24     -27.8757      2.00000
     25     -27.8697      2.00000
     26     -27.8563      2.00000
     27     -27.5418      2.00000
     28     -27.5364      2.00000
     29     -27.3261      2.00000
     30     -27.3260      2.00000
     31     -27.0387      2.00000
     32     -27.0383      2.00000
     33      -1.1742      2.00000
     34       0.0431      2.00000
     35       0.3049      2.00000
     36       0.6911      2.00000
     37       3.0106      2.00000
     38       3.4657      2.00000
     39       3.8132      2.00000
     40       4.0858      2.00000
     41       4.3036      2.00000
     42       4.5518      2.00000
     43       4.6857      2.00000
     44       4.7963      2.00000
     45       4.9517      2.00000
     46       5.0128      2.00000
     47       5.1816      2.00000
     48       5.3552      2.00000
     49       5.5074      2.00000
     50       5.6978      2.00000
     51       5.7579      2.00000
     52       5.8528      2.00000
     53       5.9429      2.00000
     54       6.0242      2.00000
     55       6.4398      2.00000
     56       6.6908      2.00000
     57       6.9099      2.00000
     58       7.2021      2.00000
     59       7.4530      2.00000
     60       7.5899      2.00000
     61       8.0310      2.00000
     62       8.1159      2.00000
     63       8.6306      0.00000
     64       8.7314      0.00000
     65       8.9049      0.00000
     66       9.0786      0.00000
     67       9.1467      0.00000
     68       9.2254      0.00000
     69       9.3451      0.00000
     70       9.4075      0.00000
     71       9.6422      0.00000
     72       9.8502      0.00000
     73      10.0596      0.00000
     74      10.1468      0.00000
     75      10.3199      0.00000
     76      10.4173      0.00000
     77      10.6146      0.00000
     78      10.9715      0.00000

 k-point    98 :      -0.2857   -0.2857    0.4286
  band No.  band energies     occupation 
      1     -54.7258      2.00000
      2     -54.7193      2.00000
      3     -54.5907      2.00000
      4     -54.5867      2.00000
      5     -54.4875      2.00000
      6     -54.4799      2.00000
      7     -54.3880      2.00000
      8     -54.3849      2.00000
      9     -28.7796      2.00000
     10     -28.7611      2.00000
     11     -28.5543      2.00000
     12     -28.5199      2.00000
     13     -28.3718      2.00000
     14     -28.3229      2.00000
     15     -28.1636      2.00000
     16     -28.1542      2.00000
     17     -28.1213      2.00000
     18     -28.0195      2.00000
     19     -27.9835      2.00000
     20     -27.9708      2.00000
     21     -27.9054      2.00000
     22     -27.8977      2.00000
     23     -27.8838      2.00000
     24     -27.8783      2.00000
     25     -27.8719      2.00000
     26     -27.8546      2.00000
     27     -27.5394      2.00000
     28     -27.4309      2.00000
     29     -27.4281      2.00000
     30     -27.3261      2.00000
     31     -27.0385      2.00000
     32     -27.0325      2.00000
     33      -1.3163      2.00000
     34       0.2394      2.00000
     35       0.4726      2.00000
     36       0.6424      2.00000
     37       2.9287      2.00000
     38       3.0389      2.00000
     39       3.7634      2.00000
     40       4.0721      2.00000
     41       4.2656      2.00000
     42       4.5501      2.00000
     43       4.6569      2.00000
     44       4.8750      2.00000
     45       5.0702      2.00000
     46       5.0789      2.00000
     47       5.3080      2.00000
     48       5.4602      2.00000
     49       5.4810      2.00000
     50       5.6313      2.00000
     51       5.7469      2.00000
     52       5.7996      2.00000
     53       5.8931      2.00000
     54       6.2423      2.00000
     55       6.2858      2.00000
     56       6.5479      2.00000
     57       7.1133      2.00000
     58       7.2584      2.00000
     59       7.5565      2.00000
     60       7.8009      2.00000
     61       8.1547      2.00000
     62       8.1646      2.00000
     63       8.6677      0.00000
     64       8.7444      0.00000
     65       9.0192      0.00000
     66       9.1026      0.00000
     67       9.1377      0.00000
     68       9.3890      0.00000
     69       9.3954      0.00000
     70       9.5313      0.00000
     71       9.5461      0.00000
     72       9.7835      0.00000
     73       9.9774      0.00000
     74      10.0838      0.00000
     75      10.3284      0.00000
     76      10.3659      0.00000
     77      10.4747      0.00000
     78      10.6215      0.00000

 k-point    99 :      -0.1429   -0.2857    0.4286
  band No.  band energies     occupation 
      1     -54.7358      2.00000
      2     -54.7283      2.00000
      3     -54.5785      2.00000
      4     -54.5725      2.00000
      5     -54.4776      2.00000
      6     -54.4711      2.00000
      7     -54.4033      2.00000
      8     -54.3958      2.00000
      9     -28.7667      2.00000
     10     -28.7529      2.00000
     11     -28.5656      2.00000
     12     -28.4936      2.00000
     13     -28.3863      2.00000
     14     -28.3211      2.00000
     15     -28.1682      2.00000
     16     -28.1661      2.00000
     17     -28.0988      2.00000
     18     -28.0275      2.00000
     19     -27.9679      2.00000
     20     -27.9585      2.00000
     21     -27.9103      2.00000
     22     -27.9027      2.00000
     23     -27.8987      2.00000
     24     -27.8810      2.00000
     25     -27.8753      2.00000
     26     -27.8563      2.00000
     27     -27.5848      2.00000
     28     -27.5570      2.00000
     29     -27.3267      2.00000
     30     -27.2918      2.00000
     31     -27.0352      2.00000
     32     -27.0164      2.00000
     33      -1.2223      2.00000
     34       0.1282      2.00000
     35       0.2561      2.00000
     36       0.6192      2.00000
     37       3.1942      2.00000
     38       3.5428      2.00000
     39       3.9098      2.00000
     40       3.9678      2.00000
     41       4.2646      2.00000
     42       4.4462      2.00000
     43       4.8245      2.00000
     44       4.8878      2.00000
     45       5.0032      2.00000
     46       5.0900      2.00000
     47       5.1851      2.00000
     48       5.3538      2.00000
     49       5.4078      2.00000
     50       5.6030      2.00000
     51       5.6900      2.00000
     52       5.9378      2.00000
     53       5.9877      2.00000
     54       6.1718      2.00000
     55       6.4780      2.00000
     56       6.5820      2.00000
     57       6.9674      2.00000
     58       7.0713      2.00000
     59       7.2478      2.00000
     60       7.6081      2.00000
     61       7.8121      2.00000
     62       8.0195      2.00000
     63       8.4052      1.96898
     64       8.6594      0.00000
     65       8.8636      0.00000
     66       9.1415      0.00000
     67       9.1819      0.00000
     68       9.3134      0.00000
     69       9.4681      0.00000
     70       9.5258      0.00000
     71       9.6583      0.00000
     72       9.8762      0.00000
     73      10.0963      0.00000
     74      10.1715      0.00000
     75      10.3485      0.00000
     76      10.4905      0.00000
     77      10.6898      0.00000
     78      10.9096      0.00000

 k-point   100 :      -0.1429   -0.1429    0.4286
  band No.  band energies     occupation 
      1     -54.7464      2.00000
      2     -54.7252      2.00000
      3     -54.5788      2.00000
      4     -54.5495      2.00000
      5     -54.4923      2.00000
      6     -54.4587      2.00000
      7     -54.4274      2.00000
      8     -54.3846      2.00000
      9     -28.7592      2.00000
     10     -28.7518      2.00000
     11     -28.6217      2.00000
     12     -28.5322      2.00000
     13     -28.3051      2.00000
     14     -28.2300      2.00000
     15     -28.1729      2.00000
     16     -28.1652      2.00000
     17     -28.0787      2.00000
     18     -28.0307      2.00000
     19     -27.9699      2.00000
     20     -27.9583      2.00000
     21     -27.9170      2.00000
     22     -27.9055      2.00000
     23     -27.8990      2.00000
     24     -27.8883      2.00000
     25     -27.8775      2.00000
     26     -27.8592      2.00000
     27     -27.6785      2.00000
     28     -27.6526      2.00000
     29     -27.2629      2.00000
     30     -27.2407      2.00000
     31     -27.0542      2.00000
     32     -26.9990      2.00000
     33      -1.1217      2.00000
     34       0.1069      2.00000
     35       0.2090      2.00000
     36       0.4920      2.00000
     37       3.4674      2.00000
     38       3.6813      2.00000
     39       3.8066      2.00000
     40       4.1498      2.00000
     41       4.2293      2.00000
     42       4.2351      2.00000
     43       4.8676      2.00000
     44       4.9170      2.00000
     45       4.9981      2.00000
     46       5.1656      2.00000
     47       5.2034      2.00000
     48       5.2332      2.00000
     49       5.3797      2.00000
     50       5.5609      2.00000
     51       5.7926      2.00000
     52       6.0331      2.00000
     53       6.0557      2.00000
     54       6.1247      2.00000
     55       6.3445      2.00000
     56       6.4828      2.00000
     57       6.8770      2.00000
     58       7.0636      2.00000
     59       7.1438      2.00000
     60       7.3742      2.00000
     61       7.5998      2.00000
     62       8.1271      2.00000
     63       8.2785      2.00000
     64       8.4479      0.39149
     65       8.8779      0.00000
     66       9.0323      0.00000
     67       9.1888      0.00000
     68       9.4057      0.00000
     69       9.4732      0.00000
     70       9.4994      0.00000
     71       9.7879      0.00000
     72       9.9866      0.00000
     73      10.1275      0.00000
     74      10.3163      0.00000
     75      10.4098      0.00000
     76      10.6838      0.00000
     77      10.9383      0.00000
     78      11.2715      0.00000


--------------------------------------------------------------------------------------------------------


 soft charge-density along one line, spin component           1
         0         1         2         3         4         5         6         7         8         9
 total charge-density along one line
 
 pseudopotential strength for first ion, spin component:           1
  5.993   9.085   0.000   0.000   0.000   0.000   0.000   0.000
  9.085  13.763   0.000   0.000   0.000   0.000   0.000   0.000
  0.000   0.000  -2.000  -0.000   0.000  -3.343  -0.000   0.000
  0.000   0.000  -0.000  -2.000  -0.000  -0.000  -3.343  -0.000
  0.000   0.000   0.000  -0.000  -2.000   0.000  -0.000  -3.343
  0.000   0.000  -3.343  -0.000   0.000  -5.377  -0.000   0.000
  0.000   0.000  -0.000  -3.343  -0.000  -0.000  -5.377  -0.000
  0.000   0.000   0.000  -0.000  -3.343   0.000  -0.000  -5.377
 total augmentation occupancy for first ion, spin component:           1
  3.068  -0.683   0.000   0.000   0.000  -0.000  -0.000  -0.000
 -0.683   0.161  -0.000  -0.000  -0.000   0.000   0.000   0.000
  0.000  -0.000   2.034  -0.009   0.006  -0.497   0.003  -0.002
  0.000  -0.000  -0.009   2.036  -0.006   0.003  -0.498   0.002
  0.000  -0.000   0.006  -0.006   2.030  -0.002   0.002  -0.496
 -0.000   0.000  -0.497   0.003  -0.002   0.124  -0.001   0.001
 -0.000   0.000   0.003  -0.498   0.002  -0.001   0.124  -0.001
 -0.000   0.000  -0.002   0.002  -0.496   0.001  -0.001   0.123


------------------------ aborting loop because EDIFF is reached ----------------------------------------




--------------------------------------------------------------------------------------------------------



  FREE ENERGIE OF THE ION-ELECTRON SYSTEM (eV)
  ---------------------------------------------------
  free  energy   TOTEN  =      -231.85707092 eV

  energy  without entropy=     -231.85438071  energy(sigma->0) =     -231.85572581
 


--------------------------------------------------------------------------------------------------------


    POTLOK:  cpu time    1.6830: real time    1.6938


--------------------------------------------------------------------------------------------------------


 writing wavefunctions
     LOOP+:  cpu time 2214.8483: real time 2243.0960
    4ORBIT:  cpu time    0.0000: real time    0.0000

 total amount of memory used by VASP MPI-rank0   446420. kBytes
=======================================================================

   base      :      30000. kBytes
   nonl-proj :     155690. kBytes
   fftplans  :      17773. kBytes
   grid      :      13358. kBytes
   one-center:         93. kBytes
   wavefun   :     229506. kBytes
 
  
  
 General timing and accounting informations for this job:
 ========================================================
  
                  Total CPU time used (sec):     2225.604
                            User time (sec):     2153.323
                          System time (sec):       72.280
                         Elapsed time (sec):     2262.336
  
                   Maximum memory used (kb):      659212.
                   Average memory used (kb):          N/A
  
                          Minor page faults:      7574552
                          Major page faults:           12
                 Voluntary context switches:        17290
