<?xml version="1.0" encoding="ISO-8859-1"?>
<modeling>
 <generator>
  <i name="program" type="string">vasp </i>
  <i name="version" type="string">6.2.0  </i>
  <i name="subversion" type="string">18Jan21 (build Jan 05 2022 15:41:44) complex                          parallel </i>
  <i name="platform" type="string">LinuxIFC </i>
  <i name="date" type="string">2025 05 07 </i>
  <i name="time" type="string">21:23:11 </i>
 </generator>
 <incar>
  <i type="string" name="SYSTEM">routine with relax: pwdword</i>
  <i type="string" name="PREC">Acc</i>
  <i type="int" name="IALGO">    38</i>
  <i type="string" name="ALGO">A</i>
  <i type="logical" name="ADDGRID"> T  </i>
  <i type="int" name="ICHARG">     2</i>
  <i type="int" name="NELM">   100</i>
  <i type="int" name="NELMIN">     6</i>
  <i name="EDIFF">      0.00000000</i>
  <i type="int" name="NSW">     0</i>
  <i type="int" name="ISIF">    -1</i>
  <i name="ENCUT">    600.00000000</i>
  <i type="logical" name="LREAL"> F  </i>
  <i type="int" name="ISMEAR">     0</i>
  <i name="SIGMA">      0.02000000</i>
  <i type="logical" name="LASPH"> T  </i>
  <i type="string" name="METAGGA">R2SCAN</i>
  <i type="logical" name="LMIXTAU"> F  </i>
 </incar>
 <primitive_cell>
  <structure name="primitive_cell" >
   <crystal>
    <varray name="basis" >
     <v>       4.41698913       0.00356734      -1.22750193 </v>
     <v>      -2.55042574       3.60626414      -1.22750192 </v>
     <v>      -0.00184477      -0.00356735       4.58438201 </v>
    </varray>
    <i name="volume">     73.02688124 </i>
    <varray name="rec_basis" >
     <v>       0.22632917       0.16013816       0.00021569 </v>
     <v>      -0.00016398       0.27725271       0.00021568 </v>
     <v>       0.06055739       0.11711462       0.21824741 </v>
    </varray>
   </crystal>
   <varray name="positions" >
    <v>       0.75000000       0.75000000       0.00000000 </v>
    <v>       0.25000000       0.25000000       0.00000000 </v>
    <v>       0.83002750       0.66997250       0.50000000 </v>
    <v>       0.33002750       0.83002750       0.16005400 </v>
    <v>       0.16997250       0.33002750       0.50000000 </v>
    <v>       0.66997250       0.16997250       0.83994600 </v>
   </varray>
  </structure>
  <varray name="primitive_index" >
   <v type="int" >        1 </v>
   <v type="int" >        2 </v>
   <v type="int" >        3 </v>
   <v type="int" >        4 </v>
   <v type="int" >        5 </v>
   <v type="int" >        6 </v>
  </varray>
 </primitive_cell>
 <kpoints>
  <generation param="Gamma">
   <v type="int" name="divisions">      10       10        9 </v>
   <v name="usershift">      0.00000000       0.00000000       0.00000000 </v>
   <v name="genvec1">      0.10000000      -0.00000000       0.00000000 </v>
   <v name="genvec2">     -0.00000000       0.10000000       0.00000000 </v>
   <v name="genvec3">      0.00000000       0.00000000       0.11111111 </v>
   <v name="shift">      0.00000000       0.00000000       0.00000000 </v>
  </generation>
  <varray name="kpointlist" >
   <v>       0.00000000       0.00000000       0.00000000 </v>
   <v>       0.10000000       0.00000000      -0.00000000 </v>
   <v>       0.20000000       0.00000000      -0.00000000 </v>
   <v>       0.30000000      -0.00000000      -0.00000000 </v>
   <v>       0.40000000       0.00000000      -0.00000000 </v>
   <v>       0.50000000      -0.00000000      -0.00000000 </v>
   <v>       0.10000000       0.10000000      -0.00000000 </v>
   <v>       0.20000000       0.10000000      -0.00000000 </v>
   <v>       0.30000000       0.10000000       0.00000000 </v>
   <v>       0.40000000       0.10000000      -0.00000000 </v>
   <v>       0.50000000       0.10000000      -0.00000000 </v>
   <v>      -0.40000000       0.10000000       0.00000000 </v>
   <v>      -0.30000000       0.10000000      -0.00000000 </v>
   <v>      -0.20000000       0.10000000       0.00000000 </v>
   <v>      -0.10000000       0.10000000       0.00000000 </v>
   <v>       0.20000000       0.20000000      -0.00000000 </v>
   <v>       0.30000000       0.20000000      -0.00000000 </v>
   <v>       0.40000000       0.20000000       0.00000000 </v>
   <v>       0.50000000       0.20000000      -0.00000000 </v>
   <v>      -0.40000000       0.20000000       0.00000000 </v>
   <v>      -0.30000000       0.20000000      -0.00000000 </v>
   <v>      -0.20000000       0.20000000       0.00000000 </v>
   <v>       0.30000000       0.30000000       0.00000000 </v>
   <v>       0.40000000       0.30000000       0.00000000 </v>
   <v>       0.50000000       0.30000000      -0.00000000 </v>
   <v>      -0.40000000       0.30000000       0.00000000 </v>
   <v>      -0.30000000       0.30000000       0.00000000 </v>
   <v>       0.40000000       0.40000000      -0.00000000 </v>
   <v>       0.50000000       0.40000000       0.00000000 </v>
   <v>      -0.40000000       0.40000000       0.00000000 </v>
   <v>       0.50000000       0.50000000       0.00000000 </v>
   <v>       0.00000000       0.00000000       0.11111111 </v>
   <v>       0.10000000       0.00000000       0.11111111 </v>
   <v>       0.20000000       0.00000000       0.11111111 </v>
   <v>       0.30000000       0.00000000       0.11111111 </v>
   <v>       0.40000000       0.00000000       0.11111111 </v>
   <v>       0.50000000       0.00000000       0.11111111 </v>
   <v>      -0.40000000      -0.00000000       0.11111111 </v>
   <v>      -0.30000000       0.00000000       0.11111111 </v>
   <v>      -0.20000000      -0.00000000       0.11111111 </v>
   <v>      -0.10000000      -0.00000000       0.11111111 </v>
   <v>       0.10000000       0.10000000       0.11111111 </v>
   <v>       0.20000000       0.10000000       0.11111111 </v>
   <v>       0.30000000       0.10000000       0.11111111 </v>
   <v>       0.40000000       0.10000000       0.11111111 </v>
   <v>       0.50000000       0.10000000       0.11111111 </v>
   <v>      -0.40000000       0.10000000       0.11111111 </v>
   <v>      -0.30000000       0.10000000       0.11111111 </v>
   <v>      -0.20000000       0.10000000       0.11111111 </v>
   <v>      -0.10000000       0.10000000       0.11111111 </v>
   <v>       0.20000000       0.20000000       0.11111111 </v>
   <v>       0.30000000       0.20000000       0.11111111 </v>
   <v>       0.40000000       0.20000000       0.11111111 </v>
   <v>       0.50000000       0.20000000       0.11111111 </v>
   <v>      -0.40000000       0.20000000       0.11111111 </v>
   <v>      -0.30000000       0.20000000       0.11111111 </v>
   <v>      -0.20000000       0.20000000       0.11111111 </v>
   <v>      -0.10000000       0.20000000       0.11111111 </v>
   <v>       0.30000000       0.30000000       0.11111111 </v>
   <v>       0.40000000       0.30000000       0.11111111 </v>
   <v>       0.50000000       0.30000000       0.11111111 </v>
   <v>      -0.40000000       0.30000000       0.11111111 </v>
   <v>      -0.30000000       0.30000000       0.11111111 </v>
   <v>      -0.20000000       0.30000000       0.11111111 </v>
   <v>      -0.10000000       0.30000000       0.11111111 </v>
   <v>       0.40000000       0.40000000       0.11111111 </v>
   <v>       0.50000000       0.40000000       0.11111111 </v>
   <v>      -0.40000000       0.40000000       0.11111111 </v>
   <v>      -0.30000000       0.40000000       0.11111111 </v>
   <v>      -0.20000000       0.40000000       0.11111111 </v>
   <v>      -0.10000000       0.40000000       0.11111111 </v>
   <v>       0.50000000       0.50000000       0.11111111 </v>
   <v>      -0.40000000       0.50000000       0.11111111 </v>
   <v>      -0.30000000       0.50000000       0.11111111 </v>
   <v>      -0.20000000       0.50000000       0.11111111 </v>
   <v>      -0.10000000       0.50000000       0.11111111 </v>
   <v>      -0.40000000      -0.40000000       0.11111111 </v>
   <v>      -0.30000000      -0.40000000       0.11111111 </v>
   <v>      -0.20000000      -0.40000000       0.11111111 </v>
   <v>      -0.10000000      -0.40000000       0.11111111 </v>
   <v>      -0.30000000      -0.30000000       0.11111111 </v>
   <v>      -0.20000000      -0.30000000       0.11111111 </v>
   <v>      -0.10000000      -0.30000000       0.11111111 </v>
   <v>      -0.20000000      -0.20000000       0.11111111 </v>
   <v>      -0.10000000      -0.20000000       0.11111111 </v>
   <v>      -0.10000000      -0.10000000       0.11111111 </v>
   <v>       0.00000000       0.00000000       0.22222222 </v>
   <v>       0.10000000       0.00000000       0.22222222 </v>
   <v>       0.20000000       0.00000000       0.22222222 </v>
   <v>       0.30000000       0.00000000       0.22222222 </v>
   <v>       0.40000000       0.00000000       0.22222222 </v>
   <v>       0.50000000       0.00000000       0.22222222 </v>
   <v>      -0.40000000      -0.00000000       0.22222222 </v>
   <v>      -0.30000000       0.00000000       0.22222222 </v>
   <v>      -0.20000000       0.00000000       0.22222222 </v>
   <v>      -0.10000000       0.00000000       0.22222222 </v>
   <v>       0.10000000       0.10000000       0.22222222 </v>
   <v>       0.20000000       0.10000000       0.22222222 </v>
   <v>       0.30000000       0.10000000       0.22222222 </v>
   <v>       0.40000000       0.10000000       0.22222222 </v>
   <v>       0.50000000       0.10000000       0.22222222 </v>
   <v>      -0.40000000       0.10000000       0.22222222 </v>
   <v>      -0.30000000       0.10000000       0.22222222 </v>
   <v>      -0.20000000       0.10000000       0.22222222 </v>
   <v>      -0.10000000       0.10000000       0.22222222 </v>
   <v>       0.20000000       0.20000000       0.22222222 </v>
   <v>       0.30000000       0.20000000       0.22222222 </v>
   <v>       0.40000000       0.20000000       0.22222222 </v>
   <v>       0.50000000       0.20000000       0.22222222 </v>
   <v>      -0.40000000       0.20000000       0.22222222 </v>
   <v>      -0.30000000       0.20000000       0.22222222 </v>
   <v>      -0.20000000       0.20000000       0.22222222 </v>
   <v>      -0.10000000       0.20000000       0.22222222 </v>
   <v>       0.30000000       0.30000000       0.22222222 </v>
   <v>       0.40000000       0.30000000       0.22222222 </v>
   <v>       0.50000000       0.30000000       0.22222222 </v>
   <v>      -0.40000000       0.30000000       0.22222222 </v>
   <v>      -0.30000000       0.30000000       0.22222222 </v>
   <v>      -0.20000000       0.30000000       0.22222222 </v>
   <v>      -0.10000000       0.30000000       0.22222222 </v>
   <v>       0.40000000       0.40000000       0.22222222 </v>
   <v>       0.50000000       0.40000000       0.22222222 </v>
   <v>      -0.40000000       0.40000000       0.22222222 </v>
   <v>      -0.30000000       0.40000000       0.22222222 </v>
   <v>      -0.20000000       0.40000000       0.22222222 </v>
   <v>      -0.10000000       0.40000000       0.22222222 </v>
   <v>       0.50000000       0.50000000       0.22222222 </v>
   <v>      -0.40000000       0.50000000       0.22222222 </v>
   <v>      -0.30000000       0.50000000       0.22222222 </v>
   <v>      -0.20000000       0.50000000       0.22222222 </v>
   <v>      -0.10000000       0.50000000       0.22222222 </v>
   <v>      -0.40000000      -0.40000000       0.22222222 </v>
   <v>      -0.30000000      -0.40000000       0.22222222 </v>
   <v>      -0.20000000      -0.40000000       0.22222222 </v>
   <v>      -0.10000000      -0.40000000       0.22222222 </v>
   <v>      -0.30000000      -0.30000000       0.22222222 </v>
   <v>      -0.20000000      -0.30000000       0.22222222 </v>
   <v>      -0.10000000      -0.30000000       0.22222222 </v>
   <v>      -0.20000000      -0.20000000       0.22222222 </v>
   <v>      -0.10000000      -0.20000000       0.22222222 </v>
   <v>      -0.10000000      -0.10000000       0.22222222 </v>
   <v>       0.00000000       0.00000000       0.33333333 </v>
   <v>       0.10000000       0.00000000       0.33333333 </v>
   <v>       0.20000000      -0.00000000       0.33333333 </v>
   <v>       0.30000000       0.00000000       0.33333333 </v>
   <v>       0.40000000       0.00000000       0.33333333 </v>
   <v>       0.50000000       0.00000000       0.33333333 </v>
   <v>      -0.40000000      -0.00000000       0.33333333 </v>
   <v>      -0.30000000       0.00000000       0.33333333 </v>
   <v>      -0.20000000      -0.00000000       0.33333333 </v>
   <v>      -0.10000000       0.00000000       0.33333333 </v>
   <v>       0.10000000       0.10000000       0.33333333 </v>
   <v>       0.20000000       0.10000000       0.33333333 </v>
   <v>       0.30000000       0.10000000       0.33333333 </v>
   <v>       0.40000000       0.10000000       0.33333333 </v>
   <v>       0.50000000       0.10000000       0.33333333 </v>
   <v>      -0.40000000       0.10000000       0.33333333 </v>
   <v>      -0.30000000       0.10000000       0.33333333 </v>
   <v>      -0.20000000       0.10000000       0.33333333 </v>
   <v>      -0.10000000       0.10000000       0.33333333 </v>
   <v>       0.20000000       0.20000000       0.33333333 </v>
   <v>       0.30000000       0.20000000       0.33333333 </v>
   <v>       0.40000000       0.20000000       0.33333333 </v>
   <v>       0.50000000       0.20000000       0.33333333 </v>
   <v>      -0.40000000       0.20000000       0.33333333 </v>
   <v>      -0.30000000       0.20000000       0.33333333 </v>
   <v>      -0.20000000       0.20000000       0.33333333 </v>
   <v>      -0.10000000       0.20000000       0.33333333 </v>
   <v>       0.30000000       0.30000000       0.33333333 </v>
   <v>       0.40000000       0.30000000       0.33333333 </v>
   <v>       0.50000000       0.30000000       0.33333333 </v>
   <v>      -0.40000000       0.30000000       0.33333333 </v>
   <v>      -0.30000000       0.30000000       0.33333333 </v>
   <v>      -0.20000000       0.30000000       0.33333333 </v>
   <v>      -0.10000000       0.30000000       0.33333333 </v>
   <v>       0.40000000       0.40000000       0.33333333 </v>
   <v>       0.50000000       0.40000000       0.33333333 </v>
   <v>      -0.40000000       0.40000000       0.33333333 </v>
   <v>      -0.30000000       0.40000000       0.33333333 </v>
   <v>      -0.20000000       0.40000000       0.33333333 </v>
   <v>      -0.10000000       0.40000000       0.33333333 </v>
   <v>       0.50000000       0.50000000       0.33333333 </v>
   <v>      -0.40000000       0.50000000       0.33333333 </v>
   <v>      -0.30000000       0.50000000       0.33333333 </v>
   <v>      -0.20000000       0.50000000       0.33333333 </v>
   <v>      -0.10000000       0.50000000       0.33333333 </v>
   <v>      -0.40000000      -0.40000000       0.33333333 </v>
   <v>      -0.30000000      -0.40000000       0.33333333 </v>
   <v>      -0.20000000      -0.40000000       0.33333333 </v>
   <v>      -0.10000000      -0.40000000       0.33333333 </v>
   <v>      -0.30000000      -0.30000000       0.33333333 </v>
   <v>      -0.20000000      -0.30000000       0.33333333 </v>
   <v>      -0.10000000      -0.30000000       0.33333333 </v>
   <v>      -0.20000000      -0.20000000       0.33333333 </v>
   <v>      -0.10000000      -0.20000000       0.33333333 </v>
   <v>      -0.10000000      -0.10000000       0.33333333 </v>
   <v>       0.00000000       0.00000000       0.44444444 </v>
   <v>       0.10000000       0.00000000       0.44444444 </v>
   <v>       0.20000000       0.00000000       0.44444444 </v>
   <v>       0.30000000       0.00000000       0.44444444 </v>
   <v>       0.40000000       0.00000000       0.44444444 </v>
   <v>       0.50000000       0.00000000       0.44444444 </v>
   <v>      -0.40000000      -0.00000000       0.44444444 </v>
   <v>      -0.30000000       0.00000000       0.44444444 </v>
   <v>      -0.20000000       0.00000000       0.44444444 </v>
   <v>      -0.10000000       0.00000000       0.44444444 </v>
   <v>       0.10000000       0.10000000       0.44444444 </v>
   <v>       0.20000000       0.10000000       0.44444444 </v>
   <v>       0.30000000       0.10000000       0.44444444 </v>
   <v>       0.40000000       0.10000000       0.44444444 </v>
   <v>       0.50000000       0.10000000       0.44444444 </v>
   <v>      -0.40000000       0.10000000       0.44444444 </v>
   <v>      -0.30000000       0.10000000       0.44444444 </v>
   <v>      -0.20000000       0.10000000       0.44444444 </v>
   <v>      -0.10000000       0.10000000       0.44444444 </v>
   <v>       0.20000000       0.20000000       0.44444444 </v>
   <v>       0.30000000       0.20000000       0.44444444 </v>
   <v>       0.40000000       0.20000000       0.44444444 </v>
   <v>       0.50000000       0.20000000       0.44444444 </v>
   <v>      -0.40000000       0.20000000       0.44444444 </v>
   <v>      -0.30000000       0.20000000       0.44444444 </v>
   <v>      -0.20000000       0.20000000       0.44444444 </v>
   <v>      -0.10000000       0.20000000       0.44444444 </v>
   <v>       0.30000000       0.30000000       0.44444444 </v>
   <v>       0.40000000       0.30000000       0.44444444 </v>
   <v>       0.50000000       0.30000000       0.44444444 </v>
   <v>      -0.40000000       0.30000000       0.44444444 </v>
   <v>      -0.30000000       0.30000000       0.44444444 </v>
   <v>      -0.20000000       0.30000000       0.44444444 </v>
   <v>      -0.10000000       0.30000000       0.44444444 </v>
   <v>       0.40000000       0.40000000       0.44444444 </v>
   <v>       0.50000000       0.40000000       0.44444444 </v>
   <v>      -0.40000000       0.40000000       0.44444444 </v>
   <v>      -0.30000000       0.40000000       0.44444444 </v>
   <v>      -0.20000000       0.40000000       0.44444444 </v>
   <v>      -0.10000000       0.40000000       0.44444444 </v>
   <v>       0.50000000       0.50000000       0.44444444 </v>
   <v>      -0.40000000       0.50000000       0.44444444 </v>
   <v>      -0.30000000       0.50000000       0.44444444 </v>
   <v>      -0.20000000       0.50000000       0.44444444 </v>
   <v>      -0.10000000       0.50000000       0.44444444 </v>
   <v>      -0.40000000      -0.40000000       0.44444444 </v>
   <v>      -0.30000000      -0.40000000       0.44444444 </v>
   <v>      -0.20000000      -0.40000000       0.44444444 </v>
   <v>      -0.10000000      -0.40000000       0.44444444 </v>
   <v>      -0.30000000      -0.30000000       0.44444444 </v>
   <v>      -0.20000000      -0.30000000       0.44444444 </v>
   <v>      -0.10000000      -0.30000000       0.44444444 </v>
   <v>      -0.20000000      -0.20000000       0.44444444 </v>
   <v>      -0.10000000      -0.20000000       0.44444444 </v>
   <v>      -0.10000000      -0.10000000       0.44444444 </v>
  </varray>
  <varray name="weights" >
   <v>       0.00111111 </v>
   <v>       0.00444444 </v>
   <v>       0.00444444 </v>
   <v>       0.00444444 </v>
   <v>       0.00444444 </v>
   <v>       0.00222222 </v>
   <v>       0.00222222 </v>
   <v>       0.00444444 </v>
   <v>       0.00444444 </v>
   <v>       0.00444444 </v>
   <v>       0.00444444 </v>
   <v>       0.00444444 </v>
   <v>       0.00444444 </v>
   <v>       0.00444444 </v>
   <v>       0.00222222 </v>
   <v>       0.00222222 </v>
   <v>       0.00444444 </v>
   <v>       0.00444444 </v>
   <v>       0.00444444 </v>
   <v>       0.00444444 </v>
   <v>       0.00444444 </v>
   <v>       0.00222222 </v>
   <v>       0.00222222 </v>
   <v>       0.00444444 </v>
   <v>       0.00444444 </v>
   <v>       0.00444444 </v>
   <v>       0.00222222 </v>
   <v>       0.00222222 </v>
   <v>       0.00444444 </v>
   <v>       0.00222222 </v>
   <v>       0.00111111 </v>
   <v>       0.00222222 </v>
   <v>       0.00444444 </v>
   <v>       0.00444444 </v>
   <v>       0.00444444 </v>
   <v>       0.00444444 </v>
   <v>       0.00444444 </v>
   <v>       0.00444444 </v>
   <v>       0.00444444 </v>
   <v>       0.00444444 </v>
   <v>       0.00444444 </v>
   <v>       0.00222222 </v>
   <v>       0.00444444 </v>
   <v>       0.00444444 </v>
   <v>       0.00444444 </v>
   <v>       0.00444444 </v>
   <v>       0.00444444 </v>
   <v>       0.00444444 </v>
   <v>       0.00444444 </v>
   <v>       0.00444444 </v>
   <v>       0.00222222 </v>
   <v>       0.00444444 </v>
   <v>       0.00444444 </v>
   <v>       0.00444444 </v>
   <v>       0.00444444 </v>
   <v>       0.00444444 </v>
   <v>       0.00444444 </v>
   <v>       0.00444444 </v>
   <v>       0.00222222 </v>
   <v>       0.00444444 </v>
   <v>       0.00444444 </v>
   <v>       0.00444444 </v>
   <v>       0.00444444 </v>
   <v>       0.00444444 </v>
   <v>       0.00444444 </v>
   <v>       0.00222222 </v>
   <v>       0.00444444 </v>
   <v>       0.00444444 </v>
   <v>       0.00444444 </v>
   <v>       0.00444444 </v>
   <v>       0.00444444 </v>
   <v>       0.00222222 </v>
   <v>       0.00444444 </v>
   <v>       0.00444444 </v>
   <v>       0.00444444 </v>
   <v>       0.00444444 </v>
   <v>       0.00222222 </v>
   <v>       0.00444444 </v>
   <v>       0.00444444 </v>
   <v>       0.00444444 </v>
   <v>       0.00222222 </v>
   <v>       0.00444444 </v>
   <v>       0.00444444 </v>
   <v>       0.00222222 </v>
   <v>       0.00444444 </v>
   <v>       0.00222222 </v>
   <v>       0.00222222 </v>
   <v>       0.00444444 </v>
   <v>       0.00444444 </v>
   <v>       0.00444444 </v>
   <v>       0.00444444 </v>
   <v>       0.00444444 </v>
   <v>       0.00444444 </v>
   <v>       0.00444444 </v>
   <v>       0.00444444 </v>
   <v>       0.00444444 </v>
   <v>       0.00222222 </v>
   <v>       0.00444444 </v>
   <v>       0.00444444 </v>
   <v>       0.00444444 </v>
   <v>       0.00444444 </v>
   <v>       0.00444444 </v>
   <v>       0.00444444 </v>
   <v>       0.00444444 </v>
   <v>       0.00444444 </v>
   <v>       0.00222222 </v>
   <v>       0.00444444 </v>
   <v>       0.00444444 </v>
   <v>       0.00444444 </v>
   <v>       0.00444444 </v>
   <v>       0.00444444 </v>
   <v>       0.00444444 </v>
   <v>       0.00444444 </v>
   <v>       0.00222222 </v>
   <v>       0.00444444 </v>
   <v>       0.00444444 </v>
   <v>       0.00444444 </v>
   <v>       0.00444444 </v>
   <v>       0.00444444 </v>
   <v>       0.00444444 </v>
   <v>       0.00222222 </v>
   <v>       0.00444444 </v>
   <v>       0.00444444 </v>
   <v>       0.00444444 </v>
   <v>       0.00444444 </v>
   <v>       0.00444444 </v>
   <v>       0.00222222 </v>
   <v>       0.00444444 </v>
   <v>       0.00444444 </v>
   <v>       0.00444444 </v>
   <v>       0.00444444 </v>
   <v>       0.00222222 </v>
   <v>       0.00444444 </v>
   <v>       0.00444444 </v>
   <v>       0.00444444 </v>
   <v>       0.00222222 </v>
   <v>       0.00444444 </v>
   <v>       0.00444444 </v>
   <v>       0.00222222 </v>
   <v>       0.00444444 </v>
   <v>       0.00222222 </v>
   <v>       0.00222222 </v>
   <v>       0.00444444 </v>
   <v>       0.00444444 </v>
   <v>       0.00444444 </v>
   <v>       0.00444444 </v>
   <v>       0.00444444 </v>
   <v>       0.00444444 </v>
   <v>       0.00444444 </v>
   <v>       0.00444444 </v>
   <v>       0.00444444 </v>
   <v>       0.00222222 </v>
   <v>       0.00444444 </v>
   <v>       0.00444444 </v>
   <v>       0.00444444 </v>
   <v>       0.00444444 </v>
   <v>       0.00444444 </v>
   <v>       0.00444444 </v>
   <v>       0.00444444 </v>
   <v>       0.00444444 </v>
   <v>       0.00222222 </v>
   <v>       0.00444444 </v>
   <v>       0.00444444 </v>
   <v>       0.00444444 </v>
   <v>       0.00444444 </v>
   <v>       0.00444444 </v>
   <v>       0.00444444 </v>
   <v>       0.00444444 </v>
   <v>       0.00222222 </v>
   <v>       0.00444444 </v>
   <v>       0.00444444 </v>
   <v>       0.00444444 </v>
   <v>       0.00444444 </v>
   <v>       0.00444444 </v>
   <v>       0.00444444 </v>
   <v>       0.00222222 </v>
   <v>       0.00444444 </v>
   <v>       0.00444444 </v>
   <v>       0.00444444 </v>
   <v>       0.00444444 </v>
   <v>       0.00444444 </v>
   <v>       0.00222222 </v>
   <v>       0.00444444 </v>
   <v>       0.00444444 </v>
   <v>       0.00444444 </v>
   <v>       0.00444444 </v>
   <v>       0.00222222 </v>
   <v>       0.00444444 </v>
   <v>       0.00444444 </v>
   <v>       0.00444444 </v>
   <v>       0.00222222 </v>
   <v>       0.00444444 </v>
   <v>       0.00444444 </v>
   <v>       0.00222222 </v>
   <v>       0.00444444 </v>
   <v>       0.00222222 </v>
   <v>       0.00222222 </v>
   <v>       0.00444444 </v>
   <v>       0.00444444 </v>
   <v>       0.00444444 </v>
   <v>       0.00444444 </v>
   <v>       0.00444444 </v>
   <v>       0.00444444 </v>
   <v>       0.00444444 </v>
   <v>       0.00444444 </v>
   <v>       0.00444444 </v>
   <v>       0.00222222 </v>
   <v>       0.00444444 </v>
   <v>       0.00444444 </v>
   <v>       0.00444444 </v>
   <v>       0.00444444 </v>
   <v>       0.00444444 </v>
   <v>       0.00444444 </v>
   <v>       0.00444444 </v>
   <v>       0.00444444 </v>
   <v>       0.00222222 </v>
   <v>       0.00444444 </v>
   <v>       0.00444444 </v>
   <v>       0.00444444 </v>
   <v>       0.00444444 </v>
   <v>       0.00444444 </v>
   <v>       0.00444444 </v>
   <v>       0.00444444 </v>
   <v>       0.00222222 </v>
   <v>       0.00444444 </v>
   <v>       0.00444444 </v>
   <v>       0.00444444 </v>
   <v>       0.00444444 </v>
   <v>       0.00444444 </v>
   <v>       0.00444444 </v>
   <v>       0.00222222 </v>
   <v>       0.00444444 </v>
   <v>       0.00444444 </v>
   <v>       0.00444444 </v>
   <v>       0.00444444 </v>
   <v>       0.00444444 </v>
   <v>       0.00222222 </v>
   <v>       0.00444444 </v>
   <v>       0.00444444 </v>
   <v>       0.00444444 </v>
   <v>       0.00444444 </v>
   <v>       0.00222222 </v>
   <v>       0.00444444 </v>
   <v>       0.00444444 </v>
   <v>       0.00444444 </v>
   <v>       0.00222222 </v>
   <v>       0.00444444 </v>
   <v>       0.00444444 </v>
   <v>       0.00222222 </v>
   <v>       0.00444444 </v>
   <v>       0.00222222 </v>
  </varray>
 </kpoints>
 <parameters>
  <separator name="general" >
   <i type="string" name="SYSTEM">routine with relax: pwdword</i>
   <i type="logical" name="LCOMPAT"> F  </i>
  </separator>
  <separator name="electronic" >
   <i type="string" name="PREC">acc</i>
   <i name="ENMAX">    600.00000000</i>
   <i name="ENAUG">    535.51400000</i>
   <i name="EDIFF">      0.00000000</i>
   <i type="int" name="IALGO">    58</i>
   <i type="int" name="IWAVPR">    10</i>
   <i type="int" name="NBANDS">    42</i>
   <i type="int" name="NBANDSLOW">    -1</i>
   <i type="int" name="NBANDSHIGH">    -1</i>
   <i name="NELECT">     62.00000000</i>
   <i type="int" name="TURBO">     0</i>
   <i type="int" name="IRESTART">     0</i>
   <i type="int" name="NREBOOT">     0</i>
   <i type="int" name="NMIN">     0</i>
   <i name="EREF">      0.00000000</i>
   <separator name="electronic smearing" >
    <i type="int" name="ISMEAR">     0</i>
    <i name="SIGMA">      0.02000000</i>
    <i name="KSPACING">      0.50000000</i>
    <i type="logical" name="KGAMMA"> T  </i>
    <i type="logical" name="KBLOWUP"> F  </i>
   </separator>
   <separator name="electronic projectors" >
    <i type="logical" name="LREAL"> F  </i>
    <v name="ROPT">      0.00000000      0.00000000</v>
    <i type="int" name="LMAXPAW">  -100</i>
    <i type="int" name="LMAXMIX">     2</i>
    <i type="logical" name="NLSPLINE"> F  </i>
   </separator>
   <separator name="electronic startup" >
    <i type="int" name="ISTART">     0</i>
    <i type="int" name="ICHARG">     2</i>
    <i type="int" name="INIWAV">     1</i>
   </separator>
   <separator name="electronic spin" >
    <i type="int" name="ISPIN">     1</i>
    <i type="logical" name="LNONCOLLINEAR"> F  </i>
    <v name="MAGMOM">      1.00000000      1.00000000      1.00000000      1.00000000      1.00000000      1.00000000</v>
    <i name="NUPDOWN">     -1.00000000</i>
    <i type="logical" name="LSORBIT"> F  </i>
    <v name="SAXIS">      0.00000000      0.00000000      1.00000000</v>
    <i type="logical" name="LSPIRAL"> F  </i>
    <v name="QSPIRAL">      0.00000000      0.00000000      0.00000000</v>
    <i type="logical" name="LZEROZ"> F  </i>
   </separator>
   <separator name="electronic exchange-correlation" >
    <i type="logical" name="LASPH"> T  </i>
    <i type="logical" name="LMETAGGA"> F  </i>
   </separator>
   <separator name="electronic convergence" >
    <i type="int" name="NELM">   100</i>
    <i type="int" name="NELMDL">    -5</i>
    <i type="int" name="NELMIN">     6</i>
    <i name="ENINI">    600.00000000</i>
    <separator name="electronic convergence detail" >
     <i type="logical" name="LDIAG"> T  </i>
     <i type="logical" name="LSUBROT"> F  </i>
     <i name="WEIMIN">      0.00000000</i>
     <i name="EBREAK">      0.00000000</i>
     <i name="DEPER">      0.30000000</i>
     <i type="int" name="NRMM">     4</i>
     <i name="TIME">      0.40000000</i>
    </separator>
   </separator>
   <separator name="electronic mixer" >
    <i name="AMIX">      0.40000000</i>
    <i name="BMIX">      1.00000000</i>
    <i name="AMIN">      0.10000000</i>
    <i name="AMIX_MAG">      1.60000000</i>
    <i name="BMIX_MAG">      1.00000000</i>
    <separator name="electronic mixer details" >
     <i type="int" name="IMIX">     4</i>
     <i type="logical" name="MIXFIRST"> F  </i>
     <i type="int" name="MAXMIX">   -45</i>
     <i name="WC">    100.00000000</i>
     <i type="int" name="INIMIX">     1</i>
     <i type="int" name="MIXPRE">     1</i>
     <i type="int" name="MREMOVE">     5</i>
    </separator>
   </separator>
   <separator name="electronic dipolcorrection" >
    <i type="logical" name="LDIPOL"> F  </i>
    <i type="logical" name="LMONO"> F  </i>
    <i type="int" name="IDIPOL">     0</i>
    <i name="EPSILON">      1.00000000</i>
    <v name="DIPOL">   -100.00000000   -100.00000000   -100.00000000</v>
    <i name="EFIELD">      0.00000000</i>
   </separator>
  </separator>
  <separator name="grids" >
   <i type="int" name="NGX">    40</i>
   <i type="int" name="NGY">    40</i>
   <i type="int" name="NGZ">    40</i>
   <i type="int" name="NGXF">    80</i>
   <i type="int" name="NGYF">    80</i>
   <i type="int" name="NGZF">    80</i>
   <i type="logical" name="ADDGRID"> T  </i>
  </separator>
  <separator name="ionic" >
   <i type="int" name="NSW">     0</i>
   <i type="int" name="IBRION">    -1</i>
   <i type="int" name="MDALGO">     0</i>
   <i type="int" name="ISIF">    -1</i>
   <i name="PSTRESS">      0.00000000</i>
   <i name="EDIFFG">      0.00000001</i>
   <i type="int" name="NFREE">     0</i>
   <i name="POTIM">      0.50000000</i>
   <i name="SMASS">     -3.00000000</i>
   <i name="SCALEE">      1.00000000</i>
  </separator>
  <separator name="ionic md" >
   <i name="TEBEG">      0.00010000</i>
   <i name="TEEND">      0.00010000</i>
   <i type="int" name="NBLOCK">     1</i>
   <i type="int" name="KBLOCK">     1</i>
   <i type="int" name="NPACO">   256</i>
   <i name="APACO">     16.00000000</i>
  </separator>
  <separator name="symmetry" >
   <i type="int" name="ISYM">     2</i>
   <i name="SYMPREC">      0.00001000</i>
  </separator>
  <separator name="dos" >
   <i type="int" name="LORBIT">     0</i>
   <v name="RWIGS">     -1.00000000     -1.00000000</v>
   <i type="int" name="NEDOS">   301</i>
   <i name="EMIN">     10.00000000</i>
   <i name="EMAX">    -10.00000000</i>
   <i name="EFERMI">      0.00000000</i>
  </separator>
  <separator name="writing" >
   <i type="int" name="NWRITE">     2</i>
   <i type="logical" name="LWAVE"> T  </i>
   <i type="logical" name="LDOWNSAMPLE"> F  </i>
   <i type="logical" name="LCHARG"> T  </i>
   <i type="logical" name="LPARD"> F  </i>
   <i type="logical" name="LVTOT"> F  </i>
   <i type="logical" name="LVHAR"> F  </i>
   <i type="logical" name="LELF"> F  </i>
   <i type="logical" name="LOPTICS"> F  </i>
   <v name="STM">      0.00000000      0.00000000      0.00000000      0.00000000      0.00000000      0.00000000      0.00000000</v>
  </separator>
  <separator name="performance" >
   <i type="int" name="NPAR">     6</i>
   <i type="int" name="NSIM">     4</i>
   <i type="int" name="NBLK">    -1</i>
   <i type="logical" name="LPLANE"> T  </i>
   <i type="logical" name="LSCALAPACK"> T  </i>
   <i type="logical" name="LSCAAWARE"> F  </i>
   <i type="logical" name="LSCALU"> F  </i>
   <i type="logical" name="LASYNC"> F  </i>
   <i type="logical" name="LORBITALREAL"> F  </i>
  </separator>
  <separator name="miscellaneous" >
   <i type="int" name="IDIOT">     3</i>
   <i type="int" name="PHON_NSTRUCT">    -1</i>
   <i type="logical" name="LMUSIC"> F  </i>
   <v name="POMASS">     10.81100000     95.94000000</v>
   <v name="DARWINR">      0.00000000      0.00000000</v>
   <v name="DARWINV">      1.00000000      1.00000000</v>
   <i type="logical" name="LCORR"> T  </i>
  </separator>
  <i type="logical" name="GGA_COMPAT"> T  </i>
  <i type="logical" name="LBERRY"> F  </i>
  <i type="int" name="ICORELEVEL">     0</i>
  <i type="logical" name="LDAU"> F  </i>
  <i type="int" name="I_CONSTRAINED_M">     0</i>
  <separator name="electronic exchange-correlation" >
   <i type="string" name="GGA">--</i>
   <i type="int" name="VOSKOWN">     0</i>
   <i type="logical" name="LHFCALC"> F  </i>
   <i type="string" name="PRECFOCK"></i>
   <i type="logical" name="LSYMGRAD"> F  </i>
   <i type="logical" name="LHFONE"> F  </i>
   <i type="logical" name="LRHFCALC"> F  </i>
   <i type="logical" name="LTHOMAS"> F  </i>
   <i type="logical" name="LMODELHF"> F  </i>
   <i type="logical" name="LFOCKACE"> F  </i>
   <i name="ENCUT4O">     -1.00000000</i>
   <i type="int" name="EXXOEP">     0</i>
   <i type="int" name="FOURORBIT">     0</i>
   <i name="AEXX">      0.00000000</i>
   <i name="HFALPHA">      0.00000000</i>
   <i name="MCALPHA">      0.00000000</i>
   <i name="ALDAX">      1.00000000</i>
   <i name="AGGAX">      1.00000000</i>
   <i name="ALDAC">      1.00000000</i>
   <i name="AGGAC">      1.00000000</i>
   <i type="int" name="NKREDX">     1</i>
   <i type="int" name="NKREDY">     1</i>
   <i type="int" name="NKREDZ">     1</i>
   <i type="logical" name="SHIFTRED"> F  </i>
   <i type="logical" name="ODDONLY"> F  </i>
   <i type="logical" name="EVENONLY"> F  </i>
   <i type="int" name="LMAXFOCK">     0</i>
   <i type="int" name="NMAXFOCKAE">     0</i>
   <i type="logical" name="LFOCKAEDFT"> F  </i>
   <i name="HFSCREEN">      0.00000000</i>
   <i name="HFSCREENC">      0.00000000</i>
   <i type="int" name="NBANDSGWLOW">     0</i>
  </separator>
  <separator name="vdW DFT" >
   <i type="logical" name="LUSE_VDW"> F  </i>
   <i name="Zab_VDW">     -0.84910000</i>
   <i name="PARAM1">      0.12340000</i>
   <i name="PARAM2">      1.00000000</i>
   <i name="PARAM3">      0.00000000</i>
  </separator>
  <separator name="model GW" >
   <i type="int" name="MODEL_GW">     0</i>
   <i name="MODEL_EPS0">      7.30268812</i>
   <i name="MODEL_ALPHA">      1.00000000</i>
  </separator>
  <separator name="linear response parameters" >
   <i type="logical" name="LEPSILON"> F  </i>
   <i type="logical" name="LRPA"> F  </i>
   <i type="logical" name="LNABLA"> F  </i>
   <i type="logical" name="LVEL"> F  </i>
   <i type="int" name="KINTER">     0</i>
   <i name="CSHIFT">      0.10000000</i>
   <i name="OMEGAMAX">     -1.00000000</i>
   <i name="DEG_THRESHOLD">      0.00200000</i>
   <i name="RTIME">     -0.10000000</i>
   <i name="WPLASMAI">      0.00000000</i>
   <v name="DFIELD">      0.00000000      0.00000000      0.00000000</v>
   <v name="WPLASMA">      0.00000000      0.00000000      0.00000000      0.00000000      0.00000000      0.00000000      0.00000000      0.00000000      0.00000000</v>
  </separator>
  <separator name="orbital magnetization" >
   <i type="logical" name="NUCIND"> F  </i>
   <v name="MAGPOS">      0.00000000      0.00000000      0.00000000</v>
   <i type="logical" name="LNICSALL"> T  </i>
   <i type="logical" name="ORBITALMAG"> F  </i>
   <i type="logical" name="LMAGBLOCH"> F  </i>
   <i type="logical" name="LCHIMAG"> F  </i>
   <i type="logical" name="LGAUGE"> T  </i>
   <i type="int" name="MAGATOM">     0</i>
   <v name="MAGDIPOL">      0.00000000      0.00000000      0.00000000</v>
   <v name="AVECCONST">      0.00000000      0.00000000      0.00000000</v>
  </separator>
  <separator name="response functions" >
   <i type="logical" name="LFINITE_TEMPERATURE"> F  </i>
   <i type="logical" name="LADDER"> F  </i>
   <i type="logical" name="LRPAFORCE"> F  </i>
   <i type="logical" name="LFXC"> F  </i>
   <i type="logical" name="LHARTREE"> T  </i>
   <i type="int" name="IBSE">     0</i>
   <v type="int" name="KPOINT">    -1     0     0     0</v>
   <i type="logical" name="LTCTC"> F  </i>
   <i type="logical" name="LTCTE"> F  </i>
   <i type="logical" name="LTETE"> F  </i>
   <i type="logical" name="LTRIPLET"> F  </i>
   <i type="logical" name="LFXCEPS"> F  </i>
   <i type="logical" name="LFXHEG"> F  </i>
   <i type="int" name="NATURALO">     2</i>
   <i type="logical" name="LHOLEGF"> F  </i>
   <i type="logical" name="L2ORDER"> F  </i>
   <i type="logical" name="LDMP1"> F  </i>
   <i type="logical" name="LMP2LT"> F  </i>
   <i type="logical" name="LSMP2LT"> F  </i>
   <i type="logical" name="LGWLF"> F  </i>
   <i name="ENCUTGW">     -2.00000000</i>
   <i name="ENCUTGWSOFT">     -2.00000000</i>
   <i name="ENCUTLF">     -1.00000000</i>
   <i type="logical" name="LESF_SPLINES"> F  </i>
   <i type="int" name="LMAXMP2">    -1</i>
   <i name="SCISSOR">      0.00000000</i>
   <i type="int" name="NOMEGA">     0</i>
   <i type="int" name="NOMEGAR">     0</i>
   <i type="int" name="NBANDSGW">    -1</i>
   <i type="int" name="NBANDSO">    -1</i>
   <i type="int" name="NBANDSV">    -1</i>
   <i type="int" name="NELM">   100</i>
   <i type="int" name="NELMHF">     1</i>
   <i type="int" name="DIM">     3</i>
   <i type="int" name="IESPILON">     4</i>
   <i type="int" name="ANTIRES">     0</i>
   <i name="OMEGAMAX">    -30.00000000</i>
   <i name="OMEGAMIN">    -30.00000000</i>
   <i name="OMEGATL">   -200.00000000</i>
   <i type="int" name="OMEGAGRID">     0</i>
   <i name="CSHIFT">     -0.10000000</i>
   <i type="logical" name="LSELFENERGY"> F  </i>
   <i type="logical" name="LSPECTRAL"> F  </i>
   <i type="logical" name="LSPECTRALGW"> F  </i>
   <i type="logical" name="LSINGLES"> F  </i>
   <i type="logical" name="LFERMIGW"> F  </i>
   <i type="logical" name="ODDONLYGW"> F  </i>
   <i type="logical" name="EVENONLYGW"> F  </i>
   <i type="int" name="NKREDLFX">     1</i>
   <i type="int" name="NKREDLFY">     1</i>
   <i type="int" name="NKREDLFZ">     1</i>
   <i type="int" name="MAXMEM">  2800</i>
   <i type="int" name="TELESCOPE">     0</i>
   <i type="int" name="NTAUPAR">    -1</i>
   <i type="int" name="NOMEGAPAR">    -1</i>
   <i name="DAMP_NEWTON">      0.80000001</i>
   <i name="LAMBDA">      1.00000000</i>
  </separator>
  <separator name="External order field" >
   <i name="OFIELD_KAPPA">      0.00000000</i>
   <v name="OFIELD_K">      0.00000000      0.00000000      0.00000000</v>
   <i name="OFIELD_Q6_NEAR">      0.00000000</i>
   <i name="OFIELD_Q6_FAR">      0.00000000</i>
   <i name="OFIELD_A">      0.00000000</i>
  </separator>
 </parameters>
 <atominfo>
  <atoms>       6 </atoms>
  <types>       2 </types>
  <array name="atoms" >
   <dimension dim="1">ion</dimension>
   <field type="string">element</field>
   <field type="int">atomtype</field>
   <set>
    <rc><c>B </c><c>   1</c></rc>
    <rc><c>B </c><c>   1</c></rc>
    <rc><c>Mo</c><c>   2</c></rc>
    <rc><c>Mo</c><c>   2</c></rc>
    <rc><c>Mo</c><c>   2</c></rc>
    <rc><c>Mo</c><c>   2</c></rc>
   </set>
  </array>
  <array name="atomtypes" >
   <dimension dim="1">type</dimension>
   <field type="int">atomspertype</field>
   <field type="string">element</field>
   <field>mass</field>
   <field>valence</field>
   <field type="string">pseudopotential</field>
   <set>
    <rc><c>   2</c><c>B </c><c>     10.81100000</c><c>      3.00000000</c><c>  PAW_PBE B 06Sep2000                   </c></rc>
    <rc><c>   4</c><c>Mo</c><c>     95.94000000</c><c>     14.00000000</c><c>  PAW_PBE Mo_sv 02Feb2006               </c></rc>
   </set>
  </array>
 </atominfo>
 <structure name="initialpos" >
  <crystal>
   <varray name="basis" >
    <v>       4.41698913       0.00356734      -1.22750193 </v>
    <v>      -2.55042574       3.60626414      -1.22750192 </v>
    <v>      -0.00184477      -0.00356735       4.58438201 </v>
   </varray>
   <i name="volume">     73.02688124 </i>
   <varray name="rec_basis" >
    <v>       0.22632917       0.16013816       0.00021569 </v>
    <v>      -0.00016398       0.27725271       0.00021568 </v>
    <v>       0.06055739       0.11711462       0.21824741 </v>
   </varray>
  </crystal>
  <varray name="positions" >
   <v>       0.75000000       0.75000000       0.00000000 </v>
   <v>       0.25000000       0.25000000       0.00000000 </v>
   <v>       0.83002750       0.66997250       0.50000000 </v>
   <v>       0.33002750       0.83002750       0.16005400 </v>
   <v>       0.16997250       0.33002750       0.50000000 </v>
   <v>       0.66997250       0.16997250       0.83994600 </v>
  </varray>
 </structure>
 <calculation>
  <scstep>
   <time name="total">   11.68   11.77</time>
   <energy>
    <i name="alphaZ">    485.96586779 </i>
    <i name="ewald">  -6648.16156363 </i>
    <i name="hartreedc">  -1253.00754740 </i>
    <i name="XCdc">    324.14050440 </i>
    <i name="pawpsdc">   6028.13341759 </i>
    <i name="pawaedc">  -6015.75082294 </i>
    <i name="eentropy">     -0.00041512 </i>
    <i name="bandstr">    150.83813481 </i>
    <i name="atom">   7591.46928457 </i>
    <i name="e_fr_energy">    663.62686008 </i>
    <i name="e_wo_entrp">    663.62727520 </i>
    <i name="e_0_energy">    663.62706764 </i>
   </energy>
  </scstep>
  <scstep>
   <time name="total">   11.47   11.56</time>
   <energy>
    <i name="e_fr_energy">   -123.64307912 </i>
    <i name="e_wo_entrp">   -123.64235539 </i>
    <i name="e_0_energy">   -123.64271726 </i>
   </energy>
  </scstep>
  <scstep>
   <time name="total">   12.50   12.60</time>
   <energy>
    <i name="e_fr_energy">   -149.06012314 </i>
    <i name="e_wo_entrp">   -149.05932491 </i>
    <i name="e_0_energy">   -149.05972402 </i>
   </energy>
  </scstep>
  <scstep>
   <time name="total">   11.69   11.78</time>
   <energy>
    <i name="e_fr_energy">   -149.37753112 </i>
    <i name="e_wo_entrp">   -149.37677290 </i>
    <i name="e_0_energy">   -149.37715201 </i>
   </energy>
  </scstep>
  <scstep>
   <time name="total">   13.40   13.51</time>
   <energy>
    <i name="e_fr_energy">   -149.38062033 </i>
    <i name="e_wo_entrp">   -149.37986643 </i>
    <i name="e_0_energy">   -149.38024338 </i>
   </energy>
  </scstep>
  <scstep>
   <time name="total">   14.75   14.86</time>
   <energy>
    <i name="e_fr_energy">   -109.52728988 </i>
    <i name="e_wo_entrp">   -109.52642439 </i>
    <i name="e_0_energy">   -109.52685713 </i>
   </energy>
  </scstep>
  <scstep>
   <time name="total">   15.31   15.44</time>
   <energy>
    <i name="e_fr_energy">   -118.79485430 </i>
    <i name="e_wo_entrp">   -118.79430170 </i>
    <i name="e_0_energy">   -118.79457800 </i>
   </energy>
  </scstep>
  <scstep>
   <time name="total">   14.81   14.93</time>
   <energy>
    <i name="e_fr_energy">   -120.32212971 </i>
    <i name="e_wo_entrp">   -120.32142221 </i>
    <i name="e_0_energy">   -120.32177596 </i>
   </energy>
  </scstep>
  <scstep>
   <time name="total">   15.14   15.26</time>
   <energy>
    <i name="e_fr_energy">   -120.75568782 </i>
    <i name="e_wo_entrp">   -120.75502285 </i>
    <i name="e_0_energy">   -120.75535534 </i>
   </energy>
  </scstep>
  <scstep>
   <time name="total">   14.88   15.02</time>
   <energy>
    <i name="e_fr_energy">   -120.86833963 </i>
    <i name="e_wo_entrp">   -120.86764684 </i>
    <i name="e_0_energy">   -120.86799324 </i>
   </energy>
  </scstep>
  <scstep>
   <time name="total">   15.03   15.16</time>
   <energy>
    <i name="e_fr_energy">   -120.90387174 </i>
    <i name="e_wo_entrp">   -120.90318399 </i>
    <i name="e_0_energy">   -120.90352786 </i>
   </energy>
  </scstep>
  <scstep>
   <time name="total">   14.90   15.03</time>
   <energy>
    <i name="e_fr_energy">   -120.91557538 </i>
    <i name="e_wo_entrp">   -120.91491833 </i>
    <i name="e_0_energy">   -120.91524686 </i>
   </energy>
  </scstep>
  <scstep>
   <time name="total">   14.97   15.09</time>
   <energy>
    <i name="e_fr_energy">   -120.91854913 </i>
    <i name="e_wo_entrp">   -120.91792629 </i>
    <i name="e_0_energy">   -120.91823771 </i>
   </energy>
  </scstep>
  <scstep>
   <time name="total">   14.84   14.97</time>
   <energy>
    <i name="e_fr_energy">   -120.91950100 </i>
    <i name="e_wo_entrp">   -120.91889572 </i>
    <i name="e_0_energy">   -120.91919836 </i>
   </energy>
  </scstep>
  <scstep>
   <time name="total">   15.12   15.24</time>
   <energy>
    <i name="e_fr_energy">   -120.91979563 </i>
    <i name="e_wo_entrp">   -120.91919652 </i>
    <i name="e_0_energy">   -120.91949608 </i>
   </energy>
  </scstep>
  <scstep>
   <time name="total">   14.89   15.02</time>
   <energy>
    <i name="e_fr_energy">   -120.91987667 </i>
    <i name="e_wo_entrp">   -120.91927978 </i>
    <i name="e_0_energy">   -120.91957822 </i>
   </energy>
  </scstep>
  <scstep>
   <time name="total">   15.04   15.16</time>
   <energy>
    <i name="e_fr_energy">   -120.91989835 </i>
    <i name="e_wo_entrp">   -120.91930208 </i>
    <i name="e_0_energy">   -120.91960022 </i>
   </energy>
  </scstep>
  <scstep>
   <time name="total">   14.90   15.01</time>
   <energy>
    <i name="e_fr_energy">   -120.91990391 </i>
    <i name="e_wo_entrp">   -120.91930750 </i>
    <i name="e_0_energy">   -120.91960571 </i>
   </energy>
  </scstep>
  <scstep>
   <time name="total">   14.97   15.09</time>
   <energy>
    <i name="e_fr_energy">   -120.91990517 </i>
    <i name="e_wo_entrp">   -120.91930854 </i>
    <i name="e_0_energy">   -120.91960686 </i>
   </energy>
  </scstep>
  <scstep>
   <time name="total">   15.25   15.38</time>
   <energy>
    <i name="e_fr_energy">   -120.91990553 </i>
    <i name="e_wo_entrp">   -120.91930868 </i>
    <i name="e_0_energy">   -120.91960710 </i>
   </energy>
  </scstep>
  <scstep>
   <time name="total">   15.02   15.14</time>
   <energy>
    <i name="e_fr_energy">   -120.91990568 </i>
    <i name="e_wo_entrp">   -120.91930838 </i>
    <i name="e_0_energy">   -120.91960703 </i>
   </energy>
  </scstep>
  <scstep>
   <time name="total">   15.07   15.19</time>
   <energy>
    <i name="e_fr_energy">   -120.91990571 </i>
    <i name="e_wo_entrp">   -120.91930841 </i>
    <i name="e_0_energy">   -120.91960706 </i>
   </energy>
  </scstep>
  <scstep>
   <time name="total">   14.89   15.01</time>
   <energy>
    <i name="e_fr_energy">   -120.91990574 </i>
    <i name="e_wo_entrp">   -120.91930843 </i>
    <i name="e_0_energy">   -120.91960709 </i>
   </energy>
  </scstep>
  <scstep>
   <time name="total">   14.50   14.61</time>
   <energy>
    <i name="e_fr_energy">   -120.91990575 </i>
    <i name="e_wo_entrp">   -120.91930845 </i>
    <i name="e_0_energy">   -120.91960710 </i>
   </energy>
  </scstep>
  <scstep>
   <time name="total">   14.47   14.58</time>
   <energy>
    <i name="e_fr_energy">   -120.91990577 </i>
    <i name="e_wo_entrp">   -120.91930846 </i>
    <i name="e_0_energy">   -120.91960712 </i>
   </energy>
  </scstep>
  <scstep>
   <time name="total">   14.98   15.10</time>
   <energy>
    <i name="e_fr_energy">   -120.91990578 </i>
    <i name="e_wo_entrp">   -120.91930847 </i>
    <i name="e_0_energy">   -120.91960712 </i>
   </energy>
  </scstep>
  <scstep>
   <time name="total">   14.84   14.96</time>
   <energy>
    <i name="e_fr_energy">   -120.91990578 </i>
    <i name="e_wo_entrp">   -120.91930847 </i>
    <i name="e_0_energy">   -120.91960712 </i>
   </energy>
  </scstep>
  <scstep>
   <time name="total">   17.50   17.64</time>
   <energy>
    <i name="alphaZ">    485.96586779 </i>
    <i name="ewald">  -6648.16156363 </i>
    <i name="hartreedc">  -1138.79519828 </i>
    <i name="XCdc">    328.46316741 </i>
    <i name="pawpsdc">   7211.45247015 </i>
    <i name="pawaedc">  -7215.48983281 </i>
    <i name="eentropy">     -0.00059731 </i>
    <i name="bandstr">   -735.82350367 </i>
    <i name="atom">   7591.46928457 </i>
    <i name="e_fr_energy">   -120.91990578 </i>
    <i name="e_wo_entrp">   -120.91930847 </i>
    <i name="e_0_energy">   -120.91960712 </i>
   </energy>
  </scstep>
  <structure>
   <crystal>
    <varray name="basis" >
     <v>       4.41698913       0.00356734      -1.22750193 </v>
     <v>      -2.55042574       3.60626414      -1.22750192 </v>
     <v>      -0.00184477      -0.00356735       4.58438201 </v>
    </varray>
    <i name="volume">     73.02688124 </i>
    <varray name="rec_basis" >
     <v>       0.22632917       0.16013816       0.00021569 </v>
     <v>      -0.00016398       0.27725271       0.00021568 </v>
     <v>       0.06055739       0.11711462       0.21824741 </v>
    </varray>
   </crystal>
   <varray name="positions" >
    <v>       0.75000000       0.75000000       0.00000000 </v>
    <v>       0.25000000       0.25000000       0.00000000 </v>
    <v>       0.83002750       0.66997250       0.50000000 </v>
    <v>       0.33002750       0.83002750       0.16005400 </v>
    <v>       0.16997250       0.33002750       0.50000000 </v>
    <v>       0.66997250       0.16997250       0.83994600 </v>
   </varray>
  </structure>
  <varray name="forces" >
   <v>       0.00000000       0.00000000       0.00000000 </v>
   <v>       0.00000000       0.00000000       0.00000000 </v>
   <v>       0.00000000       0.00000000       0.00000000 </v>
   <v>       0.00000000       0.00000000       0.00000000 </v>
   <v>       0.00000000       0.00000000       0.00000000 </v>
   <v>       0.00000000       0.00000000       0.00000000 </v>
  </varray>
  <varray name="stress" >
   <v>       0.00000000       0.00000000       0.00000000 </v>
   <v>       0.00000000       0.00000000       0.00000000 </v>
   <v>       0.00000000       0.00000000       0.00000000 </v>
  </varray>
  <energy>
   <i name="e_fr_energy">   -120.91990578 </i>
   <i name="e_wo_entrp">   -120.91930847 </i>
   <i name="e_0_energy">   -120.91960712 </i>
  </energy>
  <time name="totalsc">  409.11  412.46</time>
  <eigenvalues>
   <array>
    <dimension dim="1">band</dimension>
    <dimension dim="2">kpoint</dimension>
    <dimension dim="3">spin</dimension>
    <field>eigene</field>
    <field>occ</field>
    <set>
     <set comment="spin 1">
      <set comment="kpoint 1">
       <r>  -50.8943    1.0000 </r>
       <r>  -50.6992    1.0000 </r>
       <r>  -50.5652    1.0000 </r>
       <r>  -50.5652    1.0000 </r>
       <r>  -24.5694    1.0000 </r>
       <r>  -24.5123    1.0000 </r>
       <r>  -24.5123    1.0000 </r>
       <r>  -24.4022    1.0000 </r>
       <r>  -24.4022    1.0000 </r>
       <r>  -24.2541    1.0000 </r>
       <r>  -24.2313    1.0000 </r>
       <r>  -23.8706    1.0000 </r>
       <r>  -23.8573    1.0000 </r>
       <r>  -23.5162    1.0000 </r>
       <r>  -23.5052    1.0000 </r>
       <r>  -23.5052    1.0000 </r>
       <r>    0.7187    1.0000 </r>
       <r>    4.0251    1.0000 </r>
       <r>    7.0629    1.0000 </r>
       <r>    7.9383    1.0000 </r>
       <r>    7.9383    1.0000 </r>
       <r>    7.9760    1.0000 </r>
       <r>    8.1988    1.0000 </r>
       <r>    9.1195    1.0000 </r>
       <r>    9.1195    1.0000 </r>
       <r>    9.3002    1.0000 </r>
       <r>    9.3003    1.0000 </r>
       <r>    9.8973    1.0000 </r>
       <r>   10.6636    1.0000 </r>
       <r>   11.1585    1.0000 </r>
       <r>   12.0760    1.0000 </r>
       <r>   12.8578    0.0000 </r>
       <r>   12.8578    0.0000 </r>
       <r>   13.3737    0.0000 </r>
       <r>   14.3884    0.0000 </r>
       <r>   14.3884    0.0000 </r>
       <r>   15.0851    0.0000 </r>
       <r>   17.3657    0.0000 </r>
       <r>   17.6540    0.0000 </r>
       <r>   17.7650    0.0000 </r>
       <r>   17.7663    0.0000 </r>
       <r>   18.4547    0.0000 </r>
      </set>
      <set comment="kpoint 2">
       <r>  -50.8856    1.0000 </r>
       <r>  -50.6981    1.0000 </r>
       <r>  -50.5712    1.0000 </r>
       <r>  -50.5693    1.0000 </r>
       <r>  -24.5921    1.0000 </r>
       <r>  -24.5382    1.0000 </r>
       <r>  -24.5378    1.0000 </r>
       <r>  -24.3748    1.0000 </r>
       <r>  -24.3482    1.0000 </r>
       <r>  -24.2500    1.0000 </r>
       <r>  -24.2071    1.0000 </r>
       <r>  -23.8788    1.0000 </r>
       <r>  -23.8350    1.0000 </r>
       <r>  -23.5578    1.0000 </r>
       <r>  -23.5102    1.0000 </r>
       <r>  -23.5097    1.0000 </r>
       <r>    0.8412    1.0000 </r>
       <r>    4.0366    1.0000 </r>
       <r>    6.9782    1.0000 </r>
       <r>    7.6144    1.0000 </r>
       <r>    8.0156    1.0000 </r>
       <r>    8.0639    1.0000 </r>
       <r>    8.2449    1.0000 </r>
       <r>    8.8296    1.0000 </r>
       <r>    8.8297    1.0000 </r>
       <r>    9.5849    1.0000 </r>
       <r>    9.5945    1.0000 </r>
       <r>   10.1259    1.0000 </r>
       <r>   10.5845    1.0000 </r>
       <r>   11.0732    1.0000 </r>
       <r>   12.0360    1.0000 </r>
       <r>   12.7384    0.0000 </r>
       <r>   12.9305    0.0000 </r>
       <r>   13.6394    0.0000 </r>
       <r>   14.2730    0.0000 </r>
       <r>   14.3492    0.0000 </r>
       <r>   14.9782    0.0000 </r>
       <r>   16.8380    0.0000 </r>
       <r>   17.0651    0.0000 </r>
       <r>   17.2493    0.0000 </r>
       <r>   18.0746    0.0000 </r>
       <r>   18.6265    0.0000 </r>
      </set>
      <set comment="kpoint 3">
       <r>  -50.8609    1.0000 </r>
       <r>  -50.6950    1.0000 </r>
       <r>  -50.5886    1.0000 </r>
       <r>  -50.5809    1.0000 </r>
       <r>  -24.6379    1.0000 </r>
       <r>  -24.5917    1.0000 </r>
       <r>  -24.5539    1.0000 </r>
       <r>  -24.2984    1.0000 </r>
       <r>  -24.2791    1.0000 </r>
       <r>  -24.2121    1.0000 </r>
       <r>  -24.1637    1.0000 </r>
       <r>  -23.8958    1.0000 </r>
       <r>  -23.7886    1.0000 </r>
       <r>  -23.6774    1.0000 </r>
       <r>  -23.5234    1.0000 </r>
       <r>  -23.5201    1.0000 </r>
       <r>    1.1893    1.0000 </r>
       <r>    4.0129    1.0000 </r>
       <r>    6.8221    1.0000 </r>
       <r>    7.2609    1.0000 </r>
       <r>    7.7111    1.0000 </r>
       <r>    8.1333    1.0000 </r>
       <r>    8.4871    1.0000 </r>
       <r>    8.6800    1.0000 </r>
       <r>    8.8144    1.0000 </r>
       <r>    9.7216    1.0000 </r>
       <r>    9.7343    1.0000 </r>
       <r>   10.3801    1.0000 </r>
       <r>   10.5484    1.0000 </r>
       <r>   10.8208    1.0000 </r>
       <r>   11.9089    1.0000 </r>
       <r>   12.7937    0.0000 </r>
       <r>   13.1709    0.0000 </r>
       <r>   13.8621    0.0000 </r>
       <r>   14.2095    0.0000 </r>
       <r>   14.3669    0.0000 </r>
       <r>   14.6762    0.0000 </r>
       <r>   15.9929    0.0000 </r>
       <r>   16.4775    0.0000 </r>
       <r>   17.0217    0.0000 </r>
       <r>   18.0584    0.0000 </r>
       <r>   18.9022    0.0000 </r>
      </set>
      <set comment="kpoint 4">
       <r>  -50.8233    1.0000 </r>
       <r>  -50.6919    1.0000 </r>
       <r>  -50.6139    1.0000 </r>
       <r>  -50.5976    1.0000 </r>
       <r>  -24.6779    1.0000 </r>
       <r>  -24.6450    1.0000 </r>
       <r>  -24.5255    1.0000 </r>
       <r>  -24.2562    1.0000 </r>
       <r>  -24.2138    1.0000 </r>
       <r>  -24.1280    1.0000 </r>
       <r>  -24.1153    1.0000 </r>
       <r>  -23.9073    1.0000 </r>
       <r>  -23.8380    1.0000 </r>
       <r>  -23.7580    1.0000 </r>
       <r>  -23.5437    1.0000 </r>
       <r>  -23.5365    1.0000 </r>
       <r>    1.7075    1.0000 </r>
       <r>    3.8281    1.0000 </r>
       <r>    6.6869    1.0000 </r>
       <r>    7.1094    1.0000 </r>
       <r>    7.4859    1.0000 </r>
       <r>    8.0717    1.0000 </r>
       <r>    8.6036    1.0000 </r>
       <r>    8.7598    1.0000 </r>
       <r>    9.0387    1.0000 </r>
       <r>    9.5512    1.0000 </r>
       <r>    9.5680    1.0000 </r>
       <r>   10.1346    1.0000 </r>
       <r>   10.5549    1.0000 </r>
       <r>   11.0064    1.0000 </r>
       <r>   11.7743    1.0000 </r>
       <r>   13.1565    0.0000 </r>
       <r>   13.5727    0.0000 </r>
       <r>   13.8458    0.0000 </r>
       <r>   14.1049    0.0000 </r>
       <r>   14.4139    0.0000 </r>
       <r>   14.5411    0.0000 </r>
       <r>   15.2768    0.0000 </r>
       <r>   16.1345    0.0000 </r>
       <r>   16.7246    0.0000 </r>
       <r>   17.5329    0.0000 </r>
       <r>   18.3433    0.0000 </r>
      </set>
      <set comment="kpoint 5">
       <r>  -50.7781    1.0000 </r>
       <r>  -50.6996    1.0000 </r>
       <r>  -50.6340    1.0000 </r>
       <r>  -50.6161    1.0000 </r>
       <r>  -24.7010    1.0000 </r>
       <r>  -24.6839    1.0000 </r>
       <r>  -24.4421    1.0000 </r>
       <r>  -24.2322    1.0000 </r>
       <r>  -24.2156    1.0000 </r>
       <r>  -24.1205    1.0000 </r>
       <r>  -24.0201    1.0000 </r>
       <r>  -23.9260    1.0000 </r>
       <r>  -23.9155    1.0000 </r>
       <r>  -23.7763    1.0000 </r>
       <r>  -23.5602    1.0000 </r>
       <r>  -23.5539    1.0000 </r>
       <r>    2.3129    1.0000 </r>
       <r>    3.4412    1.0000 </r>
       <r>    6.6571    1.0000 </r>
       <r>    7.0380    1.0000 </r>
       <r>    7.4930    1.0000 </r>
       <r>    8.0417    1.0000 </r>
       <r>    8.7296    1.0000 </r>
       <r>    8.8483    1.0000 </r>
       <r>    8.9293    1.0000 </r>
       <r>    9.2924    1.0000 </r>
       <r>    9.4085    1.0000 </r>
       <r>    9.8176    1.0000 </r>
       <r>   10.6429    1.0000 </r>
       <r>   11.2448    1.0000 </r>
       <r>   11.8841    1.0000 </r>
       <r>   13.1888    0.0000 </r>
       <r>   13.9144    0.0000 </r>
       <r>   13.9354    0.0000 </r>
       <r>   14.0990    0.0000 </r>
       <r>   14.3939    0.0000 </r>
       <r>   14.6887    0.0000 </r>
       <r>   14.9197    0.0000 </r>
       <r>   15.9595    0.0000 </r>
       <r>   16.3651    0.0000 </r>
       <r>   16.7445    0.0000 </r>
       <r>   17.5835    0.0000 </r>
      </set>
      <set comment="kpoint 6">
       <r>  -50.7326    1.0000 </r>
       <r>  -50.7326    1.0000 </r>
       <r>  -50.6316    1.0000 </r>
       <r>  -50.6315    1.0000 </r>
       <r>  -24.7031    1.0000 </r>
       <r>  -24.7031    1.0000 </r>
       <r>  -24.3153    1.0000 </r>
       <r>  -24.3153    1.0000 </r>
       <r>  -24.1928    1.0000 </r>
       <r>  -24.1928    1.0000 </r>
       <r>  -23.9508    1.0000 </r>
       <r>  -23.9508    1.0000 </r>
       <r>  -23.8485    1.0000 </r>
       <r>  -23.8485    1.0000 </r>
       <r>  -23.5635    1.0000 </r>
       <r>  -23.5635    1.0000 </r>
       <r>    2.9150    1.0000 </r>
       <r>    2.9150    1.0000 </r>
       <r>    6.7990    1.0000 </r>
       <r>    6.7990    1.0000 </r>
       <r>    7.8249    1.0000 </r>
       <r>    7.8250    1.0000 </r>
       <r>    8.8146    1.0000 </r>
       <r>    8.8146    1.0000 </r>
       <r>    8.9944    1.0000 </r>
       <r>    8.9944    1.0000 </r>
       <r>    9.5137    1.0000 </r>
       <r>    9.5138    1.0000 </r>
       <r>   11.0036    1.0000 </r>
       <r>   11.0037    1.0000 </r>
       <r>   12.4763    0.0000 </r>
       <r>   12.4763    0.0000 </r>
       <r>   14.0275    0.0000 </r>
       <r>   14.0275    0.0000 </r>
       <r>   14.5623    0.0000 </r>
       <r>   14.5624    0.0000 </r>
       <r>   14.6927    0.0000 </r>
       <r>   14.6927    0.0000 </r>
       <r>   15.8751    0.0000 </r>
       <r>   15.8752    0.0000 </r>
       <r>   16.9209    0.0000 </r>
       <r>   16.9231    0.0000 </r>
      </set>
      <set comment="kpoint 7">
       <r>  -50.8671    1.0000 </r>
       <r>  -50.6935    1.0000 </r>
       <r>  -50.5847    1.0000 </r>
       <r>  -50.5799    1.0000 </r>
       <r>  -24.6442    1.0000 </r>
       <r>  -24.5685    1.0000 </r>
       <r>  -24.5561    1.0000 </r>
       <r>  -24.2921    1.0000 </r>
       <r>  -24.2869    1.0000 </r>
       <r>  -24.2481    1.0000 </r>
       <r>  -24.1710    1.0000 </r>
       <r>  -23.8848    1.0000 </r>
       <r>  -23.8005    1.0000 </r>
       <r>  -23.6608    1.0000 </r>
       <r>  -23.5196    1.0000 </r>
       <r>  -23.5078    1.0000 </r>
       <r>    1.0940    1.0000 </r>
       <r>    3.9779    1.0000 </r>
       <r>    6.9253    1.0000 </r>
       <r>    7.4350    1.0000 </r>
       <r>    7.6318    1.0000 </r>
       <r>    8.0522    1.0000 </r>
       <r>    8.4092    1.0000 </r>
       <r>    8.6960    1.0000 </r>
       <r>    8.7447    1.0000 </r>
       <r>    9.8140    1.0000 </r>
       <r>    9.9094    1.0000 </r>
       <r>   10.3022    1.0000 </r>
       <r>   10.5871    1.0000 </r>
       <r>   10.8769    1.0000 </r>
       <r>   11.9254    1.0000 </r>
       <r>   12.9643    0.0000 </r>
       <r>   13.1480    0.0000 </r>
       <r>   13.9207    0.0000 </r>
       <r>   13.9351    0.0000 </r>
       <r>   14.1949    0.0000 </r>
       <r>   14.6127    0.0000 </r>
       <r>   16.2171    0.0000 </r>
       <r>   16.4703    0.0000 </r>
       <r>   17.1483    0.0000 </r>
       <r>   18.5088    0.0000 </r>
       <r>   18.9441    0.0000 </r>
      </set>
      <set comment="kpoint 8">
       <r>  -50.8345    1.0000 </r>
       <r>  -50.6881    1.0000 </r>
       <r>  -50.6068    1.0000 </r>
       <r>  -50.5970    1.0000 </r>
       <r>  -24.6946    1.0000 </r>
       <r>  -24.5970    1.0000 </r>
       <r>  -24.5449    1.0000 </r>
       <r>  -24.2847    1.0000 </r>
       <r>  -24.2032    1.0000 </r>
       <r>  -24.1667    1.0000 </r>
       <r>  -24.1158    1.0000 </r>
       <r>  -23.8990    1.0000 </r>
       <r>  -23.8150    1.0000 </r>
       <r>  -23.7703    1.0000 </r>
       <r>  -23.5359    1.0000 </r>
       <r>  -23.5160    1.0000 </r>
       <r>    1.5439    1.0000 </r>
       <r>    3.8414    1.0000 </r>
       <r>    6.6701    1.0000 </r>
       <r>    7.1634    1.0000 </r>
       <r>    7.4721    1.0000 </r>
       <r>    8.1826    1.0000 </r>
       <r>    8.5558    1.0000 </r>
       <r>    8.8437    1.0000 </r>
       <r>    8.8961    1.0000 </r>
       <r>    9.6771    1.0000 </r>
       <r>    9.8297    1.0000 </r>
       <r>   10.0356    1.0000 </r>
       <r>   10.6708    1.0000 </r>
       <r>   10.9368    1.0000 </r>
       <r>   11.8034    1.0000 </r>
       <r>   13.2115    0.0000 </r>
       <r>   13.5049    0.0000 </r>
       <r>   13.7853    0.0000 </r>
       <r>   14.0754    0.0000 </r>
       <r>   14.1546    0.0000 </r>
       <r>   14.3633    0.0000 </r>
       <r>   15.5220    0.0000 </r>
       <r>   16.0776    0.0000 </r>
       <r>   16.9715    0.0000 </r>
       <r>   17.9931    0.0000 </r>
       <r>   18.6917    0.0000 </r>
      </set>
      <set comment="kpoint 9">
       <r>  -50.7925    1.0000 </r>
       <r>  -50.6895    1.0000 </r>
       <r>  -50.6286    1.0000 </r>
       <r>  -50.6171    1.0000 </r>
       <r>  -24.7257    1.0000 </r>
       <r>  -24.6264    1.0000 </r>
       <r>  -24.4836    1.0000 </r>
       <r>  -24.2755    1.0000 </r>
       <r>  -24.1624    1.0000 </r>
       <r>  -24.1197    1.0000 </r>
       <r>  -24.0460    1.0000 </r>
       <r>  -23.9321    1.0000 </r>
       <r>  -23.9103    1.0000 </r>
       <r>  -23.7784    1.0000 </r>
       <r>  -23.5537    1.0000 </r>
       <r>  -23.5318    1.0000 </r>
       <r>    2.1216    1.0000 </r>
       <r>    3.5442    1.0000 </r>
       <r>    6.5153    1.0000 </r>
       <r>    7.0845    1.0000 </r>
       <r>    7.3918    1.0000 </r>
       <r>    8.3077    1.0000 </r>
       <r>    8.6796    1.0000 </r>
       <r>    8.9480    1.0000 </r>
       <r>    9.0599    1.0000 </r>
       <r>    9.3856    1.0000 </r>
       <r>    9.5177    1.0000 </r>
       <r>    9.8568    1.0000 </r>
       <r>   10.3758    1.0000 </r>
       <r>   11.2997    1.0000 </r>
       <r>   11.7432    1.0000 </r>
       <r>   13.3918    0.0000 </r>
       <r>   13.6928    0.0000 </r>
       <r>   13.8040    0.0000 </r>
       <r>   14.1545    0.0000 </r>
       <r>   14.2850    0.0000 </r>
       <r>   14.4387    0.0000 </r>
       <r>   15.0844    0.0000 </r>
       <r>   15.8661    0.0000 </r>
       <r>   16.7123    0.0000 </r>
       <r>   16.8997    0.0000 </r>
       <r>   18.0420    0.0000 </r>
      </set>
      <set comment="kpoint 10">
       <r>  -50.7476    1.0000 </r>
       <r>  -50.7148    1.0000 </r>
       <r>  -50.6353    1.0000 </r>
       <r>  -50.6306    1.0000 </r>
       <r>  -24.7330    1.0000 </r>
       <r>  -24.6456    1.0000 </r>
       <r>  -24.3847    1.0000 </r>
       <r>  -24.2820    1.0000 </r>
       <r>  -24.2357    1.0000 </r>
       <r>  -24.1344    1.0000 </r>
       <r>  -23.9756    1.0000 </r>
       <r>  -23.9295    1.0000 </r>
       <r>  -23.8758    1.0000 </r>
       <r>  -23.8388    1.0000 </r>
       <r>  -23.5648    1.0000 </r>
       <r>  -23.5479    1.0000 </r>
       <r>    2.7401    1.0000 </r>
       <r>    3.1013    1.0000 </r>
       <r>    6.5803    1.0000 </r>
       <r>    6.9960    1.0000 </r>
       <r>    7.4684    1.0000 </r>
       <r>    8.2684    1.0000 </r>
       <r>    8.7331    1.0000 </r>
       <r>    8.8678    1.0000 </r>
       <r>    9.0196    1.0000 </r>
       <r>    9.1000    1.0000 </r>
       <r>    9.4892    1.0000 </r>
       <r>    9.6417    1.0000 </r>
       <r>   10.4389    1.0000 </r>
       <r>   11.4095    1.0000 </r>
       <r>   11.9912    1.0000 </r>
       <r>   12.9239    0.0000 </r>
       <r>   13.7779    0.0000 </r>
       <r>   14.1212    0.0000 </r>
       <r>   14.2212    0.0000 </r>
       <r>   14.5897    0.0000 </r>
       <r>   14.6496    0.0000 </r>
       <r>   14.8924    0.0000 </r>
       <r>   15.7851    0.0000 </r>
       <r>   16.0136    0.0000 </r>
       <r>   16.7957    0.0000 </r>
       <r>   17.3433    0.0000 </r>
      </set>
      <set comment="kpoint 11">
       <r>  -50.7577    1.0000 </r>
       <r>  -50.7103    1.0000 </r>
       <r>  -50.6432    1.0000 </r>
       <r>  -50.6169    1.0000 </r>
       <r>  -24.7171    1.0000 </r>
       <r>  -24.6493    1.0000 </r>
       <r>  -24.4269    1.0000 </r>
       <r>  -24.2922    1.0000 </r>
       <r>  -24.1777    1.0000 </r>
       <r>  -24.1390    1.0000 </r>
       <r>  -23.9807    1.0000 </r>
       <r>  -23.9398    1.0000 </r>
       <r>  -23.9177    1.0000 </r>
       <r>  -23.7864    1.0000 </r>
       <r>  -23.5685    1.0000 </r>
       <r>  -23.5537    1.0000 </r>
       <r>    2.5664    1.0000 </r>
       <r>    3.3209    1.0000 </r>
       <r>    6.7040    1.0000 </r>
       <r>    6.9400    1.0000 </r>
       <r>    7.6826    1.0000 </r>
       <r>    7.8588    1.0000 </r>
       <r>    8.6694    1.0000 </r>
       <r>    8.8377    1.0000 </r>
       <r>    8.9696    1.0000 </r>
       <r>    9.2081    1.0000 </r>
       <r>    9.2980    1.0000 </r>
       <r>    9.8387    1.0000 </r>
       <r>   10.7237    1.0000 </r>
       <r>   10.9889    1.0000 </r>
       <r>   12.3723    0.0000 </r>
       <r>   12.8004    0.0000 </r>
       <r>   13.5737    0.0000 </r>
       <r>   14.0262    0.0000 </r>
       <r>   14.4317    0.0000 </r>
       <r>   14.5940    0.0000 </r>
       <r>   14.6575    0.0000 </r>
       <r>   14.8290    0.0000 </r>
       <r>   15.9294    0.0000 </r>
       <r>   16.0179    0.0000 </r>
       <r>   16.9715    0.0000 </r>
       <r>   17.2688    0.0000 </r>
      </set>
      <set comment="kpoint 12">
       <r>  -50.8033    1.0000 </r>
       <r>  -50.6973    1.0000 </r>
       <r>  -50.6280    1.0000 </r>
       <r>  -50.5987    1.0000 </r>
       <r>  -24.6811    1.0000 </r>
       <r>  -24.6361    1.0000 </r>
       <r>  -24.5237    1.0000 </r>
       <r>  -24.2527    1.0000 </r>
       <r>  -24.2049    1.0000 </r>
       <r>  -24.1336    1.0000 </r>
       <r>  -24.0533    1.0000 </r>
       <r>  -23.9364    1.0000 </r>
       <r>  -23.8766    1.0000 </r>
       <r>  -23.7421    1.0000 </r>
       <r>  -23.5643    1.0000 </r>
       <r>  -23.5437    1.0000 </r>
       <r>    1.9919    1.0000 </r>
       <r>    3.8040    1.0000 </r>
       <r>    6.5957    1.0000 </r>
       <r>    7.2840    1.0000 </r>
       <r>    7.3441    1.0000 </r>
       <r>    7.9666    1.0000 </r>
       <r>    8.6188    1.0000 </r>
       <r>    8.7163    1.0000 </r>
       <r>    9.0363    1.0000 </r>
       <r>    9.2476    1.0000 </r>
       <r>    9.4879    1.0000 </r>
       <r>   10.2896    1.0000 </r>
       <r>   10.5117    1.0000 </r>
       <r>   10.8720    1.0000 </r>
       <r>   11.9555    1.0000 </r>
       <r>   13.1087    0.0000 </r>
       <r>   13.3707    0.0000 </r>
       <r>   13.7852    0.0000 </r>
       <r>   14.3168    0.0000 </r>
       <r>   14.6259    0.0000 </r>
       <r>   14.8884    0.0000 </r>
       <r>   14.8967    0.0000 </r>
       <r>   16.1410    0.0000 </r>
       <r>   16.4636    0.0000 </r>
       <r>   17.1494    0.0000 </r>
       <r>   17.8583    0.0000 </r>
      </set>
      <set comment="kpoint 13">
       <r>  -50.8436    1.0000 </r>
       <r>  -50.6989    1.0000 </r>
       <r>  -50.6017    1.0000 </r>
       <r>  -50.5817    1.0000 </r>
       <r>  -24.6350    1.0000 </r>
       <r>  -24.6023    1.0000 </r>
       <r>  -24.5608    1.0000 </r>
       <r>  -24.3069    1.0000 </r>
       <r>  -24.2537    1.0000 </r>
       <r>  -24.1801    1.0000 </r>
       <r>  -24.1190    1.0000 </r>
       <r>  -23.9237    1.0000 </r>
       <r>  -23.7586    1.0000 </r>
       <r>  -23.7327    1.0000 </r>
       <r>  -23.5464    1.0000 </r>
       <r>  -23.5274    1.0000 </r>
       <r>    1.4538    1.0000 </r>
       <r>    4.1047    1.0000 </r>
       <r>    6.5867    1.0000 </r>
       <r>    7.1504    1.0000 </r>
       <r>    7.6156    1.0000 </r>
       <r>    8.2183    1.0000 </r>
       <r>    8.5672    1.0000 </r>
       <r>    8.6196    1.0000 </r>
       <r>    9.0698    1.0000 </r>
       <r>    9.4365    1.0000 </r>
       <r>    9.5025    1.0000 </r>
       <r>   10.2896    1.0000 </r>
       <r>   10.5615    1.0000 </r>
       <r>   10.9080    1.0000 </r>
       <r>   11.8725    1.0000 </r>
       <r>   12.5864    0.0000 </r>
       <r>   13.0146    0.0000 </r>
       <r>   14.0642    0.0000 </r>
       <r>   14.3530    0.0000 </r>
       <r>   14.7915    0.0000 </r>
       <r>   14.8675    0.0000 </r>
       <r>   15.4450    0.0000 </r>
       <r>   16.4025    0.0000 </r>
       <r>   16.8126    0.0000 </r>
       <r>   17.5500    0.0000 </r>
       <r>   18.1199    0.0000 </r>
      </set>
      <set comment="kpoint 14">
       <r>  -50.8731    1.0000 </r>
       <r>  -50.7009    1.0000 </r>
       <r>  -50.5810    1.0000 </r>
       <r>  -50.5697    1.0000 </r>
       <r>  -24.5923    1.0000 </r>
       <r>  -24.5560    1.0000 </r>
       <r>  -24.5410    1.0000 </r>
       <r>  -24.3955    1.0000 </r>
       <r>  -24.3347    1.0000 </r>
       <r>  -24.2098    1.0000 </r>
       <r>  -24.1550    1.0000 </r>
       <r>  -23.9102    1.0000 </r>
       <r>  -23.8038    1.0000 </r>
       <r>  -23.6035    1.0000 </r>
       <r>  -23.5280    1.0000 </r>
       <r>  -23.5135    1.0000 </r>
       <r>    1.0403    1.0000 </r>
       <r>    4.1684    1.0000 </r>
       <r>    6.6724    1.0000 </r>
       <r>    7.2667    1.0000 </r>
       <r>    7.9971    1.0000 </r>
       <r>    8.4521    1.0000 </r>
       <r>    8.4708    1.0000 </r>
       <r>    8.7214    1.0000 </r>
       <r>    8.8289    1.0000 </r>
       <r>    9.4267    1.0000 </r>
       <r>    9.4625    1.0000 </r>
       <r>    9.9802    1.0000 </r>
       <r>   10.7090    1.0000 </r>
       <r>   11.1341    1.0000 </r>
       <r>   11.9954    1.0000 </r>
       <r>   12.3755    0.0000 </r>
       <r>   12.7277    0.0000 </r>
       <r>   13.9279    0.0000 </r>
       <r>   14.3829    0.0000 </r>
       <r>   14.7569    0.0000 </r>
       <r>   15.0949    0.0000 </r>
       <r>   16.2733    0.0000 </r>
       <r>   16.7852    0.0000 </r>
       <r>   17.1615    0.0000 </r>
       <r>   17.6474    0.0000 </r>
       <r>   18.0077    0.0000 </r>
      </set>
      <set comment="kpoint 15">
       <r>  -50.8878    1.0000 </r>
       <r>  -50.7007    1.0000 </r>
       <r>  -50.5704    1.0000 </r>
       <r>  -50.5653    1.0000 </r>
       <r>  -24.5697    1.0000 </r>
       <r>  -24.5263    1.0000 </r>
       <r>  -24.5126    1.0000 </r>
       <r>  -24.4131    1.0000 </r>
       <r>  -24.4037    1.0000 </r>
       <r>  -24.2322    1.0000 </r>
       <r>  -24.1926    1.0000 </r>
       <r>  -23.8892    1.0000 </r>
       <r>  -23.8389    1.0000 </r>
       <r>  -23.5360    1.0000 </r>
       <r>  -23.5196    1.0000 </r>
       <r>  -23.5065    1.0000 </r>
       <r>    0.8232    1.0000 </r>
       <r>    4.1038    1.0000 </r>
       <r>    6.8219    1.0000 </r>
       <r>    7.5136    1.0000 </r>
       <r>    8.2427    1.0000 </r>
       <r>    8.2774    1.0000 </r>
       <r>    8.3286    1.0000 </r>
       <r>    8.8709    1.0000 </r>
       <r>    9.1300    1.0000 </r>
       <r>    9.1650    1.0000 </r>
       <r>    9.3405    1.0000 </r>
       <r>    9.8465    1.0000 </r>
       <r>   10.7370    1.0000 </r>
       <r>   11.1932    1.0000 </r>
       <r>   12.0670    1.0000 </r>
       <r>   12.5287    0.0000 </r>
       <r>   12.6964    0.0000 </r>
       <r>   13.6849    0.0000 </r>
       <r>   14.4224    0.0000 </r>
       <r>   14.6062    0.0000 </r>
       <r>   15.1445    0.0000 </r>
       <r>   17.0252    0.0000 </r>
       <r>   17.1562    0.0000 </r>
       <r>   17.5814    0.0000 </r>
       <r>   17.5854    0.0000 </r>
       <r>   17.7379    0.0000 </r>
      </set>
      <set comment="kpoint 16">
       <r>  -50.7976    1.0000 </r>
       <r>  -50.6853    1.0000 </r>
       <r>  -50.6263    1.0000 </r>
       <r>  -50.6184    1.0000 </r>
       <r>  -24.7322    1.0000 </r>
       <r>  -24.5694    1.0000 </r>
       <r>  -24.5344    1.0000 </r>
       <r>  -24.2912    1.0000 </r>
       <r>  -24.1654    1.0000 </r>
       <r>  -24.0903    1.0000 </r>
       <r>  -24.0633    1.0000 </r>
       <r>  -23.9387    1.0000 </r>
       <r>  -23.9093    1.0000 </r>
       <r>  -23.7804    1.0000 </r>
       <r>  -23.5527    1.0000 </r>
       <r>  -23.5179    1.0000 </r>
       <r>    2.0509    1.0000 </r>
       <r>    3.5858    1.0000 </r>
       <r>    6.4403    1.0000 </r>
       <r>    7.1317    1.0000 </r>
       <r>    7.3247    1.0000 </r>
       <r>    8.4404    1.0000 </r>
       <r>    8.7054    1.0000 </r>
       <r>    9.0155    1.0000 </r>
       <r>    9.0552    1.0000 </r>
       <r>    9.4159    1.0000 </r>
       <r>    9.6471    1.0000 </r>
       <r>    9.6982    1.0000 </r>
       <r>   10.5634    1.0000 </r>
       <r>   10.9710    1.0000 </r>
       <r>   11.8440    1.0000 </r>
       <r>   13.5276    0.0000 </r>
       <r>   13.5551    0.0000 </r>
       <r>   13.5767    0.0000 </r>
       <r>   14.1566    0.0000 </r>
       <r>   14.3718    0.0000 </r>
       <r>   14.3832    0.0000 </r>
       <r>   15.0353    0.0000 </r>
       <r>   15.8930    0.0000 </r>
       <r>   16.8966    0.0000 </r>
       <r>   16.9524    0.0000 </r>
       <r>   18.2516    0.0000 </r>
      </set>
      <set comment="kpoint 17">
       <r>  -50.7560    1.0000 </r>
       <r>  -50.7008    1.0000 </r>
       <r>  -50.6410    1.0000 </r>
       <r>  -50.6305    1.0000 </r>
       <r>  -24.7426    1.0000 </r>
       <r>  -24.5653    1.0000 </r>
       <r>  -24.4694    1.0000 </r>
       <r>  -24.2762    1.0000 </r>
       <r>  -24.2694    1.0000 </r>
       <r>  -24.0643    1.0000 </r>
       <r>  -24.0082    1.0000 </r>
       <r>  -23.9173    1.0000 </r>
       <r>  -23.9063    1.0000 </r>
       <r>  -23.8366    1.0000 </r>
       <r>  -23.5650    1.0000 </r>
       <r>  -23.5271    1.0000 </r>
       <r>    2.6354    1.0000 </r>
       <r>    3.2259    1.0000 </r>
       <r>    6.4258    1.0000 </r>
       <r>    7.1186    1.0000 </r>
       <r>    7.2627    1.0000 </r>
       <r>    8.5946    1.0000 </r>
       <r>    8.7596    1.0000 </r>
       <r>    8.9336    1.0000 </r>
       <r>    9.0963    1.0000 </r>
       <r>    9.2384    1.0000 </r>
       <r>    9.4424    1.0000 </r>
       <r>    9.7901    1.0000 </r>
       <r>    9.9859    1.0000 </r>
       <r>   11.4981    1.0000 </r>
       <r>   11.6845    1.0000 </r>
       <r>   13.0972    0.0000 </r>
       <r>   13.7633    0.0000 </r>
       <r>   13.9410    0.0000 </r>
       <r>   14.0318    0.0000 </r>
       <r>   14.4926    0.0000 </r>
       <r>   14.6865    0.0000 </r>
       <r>   14.9861    0.0000 </r>
       <r>   15.7685    0.0000 </r>
       <r>   16.1272    0.0000 </r>
       <r>   16.9228    0.0000 </r>
       <r>   17.5481    0.0000 </r>
      </set>
      <set comment="kpoint 18">
       <r>  -50.7393    1.0000 </r>
       <r>  -50.7145    1.0000 </r>
       <r>  -50.6567    1.0000 </r>
       <r>  -50.6179    1.0000 </r>
       <r>  -24.7279    1.0000 </r>
       <r>  -24.5714    1.0000 </r>
       <r>  -24.4320    1.0000 </r>
       <r>  -24.3631    1.0000 </r>
       <r>  -24.2167    1.0000 </r>
       <r>  -24.0862    1.0000 </r>
       <r>  -23.9836    1.0000 </r>
       <r>  -23.9486    1.0000 </r>
       <r>  -23.9071    1.0000 </r>
       <r>  -23.8053    1.0000 </r>
       <r>  -23.5688    1.0000 </r>
       <r>  -23.5396    1.0000 </r>
       <r>    2.7919    1.0000 </r>
       <r>    3.2254    1.0000 </r>
       <r>    6.5271    1.0000 </r>
       <r>    7.0045    1.0000 </r>
       <r>    7.4546    1.0000 </r>
       <r>    8.2456    1.0000 </r>
       <r>    8.6933    1.0000 </r>
       <r>    8.8052    1.0000 </r>
       <r>    8.9919    1.0000 </r>
       <r>    9.2496    1.0000 </r>
       <r>    9.4188    1.0000 </r>
       <r>    9.7960    1.0000 </r>
       <r>   10.1117    1.0000 </r>
       <r>   11.2176    1.0000 </r>
       <r>   12.3961    0.0000 </r>
       <r>   12.7430    0.0000 </r>
       <r>   13.4511    0.0000 </r>
       <r>   13.9289    0.0000 </r>
       <r>   14.2656    0.0000 </r>
       <r>   14.3985    0.0000 </r>
       <r>   14.7883    0.0000 </r>
       <r>   15.2061    0.0000 </r>
       <r>   15.7039    0.0000 </r>
       <r>   16.0551    0.0000 </r>
       <r>   17.0899    0.0000 </r>
       <r>   17.1874    0.0000 </r>
      </set>
      <set comment="kpoint 19">
       <r>  -50.7796    1.0000 </r>
       <r>  -50.6999    1.0000 </r>
       <r>  -50.6486    1.0000 </r>
       <r>  -50.5998    1.0000 </r>
       <r>  -24.6949    1.0000 </r>
       <r>  -24.5757    1.0000 </r>
       <r>  -24.5190    1.0000 </r>
       <r>  -24.3062    1.0000 </r>
       <r>  -24.1737    1.0000 </r>
       <r>  -24.1197    1.0000 </r>
       <r>  -24.0340    1.0000 </r>
       <r>  -24.0033    1.0000 </r>
       <r>  -23.8778    1.0000 </r>
       <r>  -23.7336    1.0000 </r>
       <r>  -23.5668    1.0000 </r>
       <r>  -23.5470    1.0000 </r>
       <r>    2.3105    1.0000 </r>
       <r>    3.7736    1.0000 </r>
       <r>    6.4204    1.0000 </r>
       <r>    7.1761    1.0000 </r>
       <r>    7.6110    1.0000 </r>
       <r>    7.8500    1.0000 </r>
       <r>    8.5970    1.0000 </r>
       <r>    8.7501    1.0000 </r>
       <r>    8.9672    1.0000 </r>
       <r>    8.9985    1.0000 </r>
       <r>    9.5849    1.0000 </r>
       <r>   10.1370    1.0000 </r>
[...]
       <r>    9.6840    1.0000 </r>
       <r>   10.4429    1.0000 </r>
       <r>   11.1967    1.0000 </r>
       <r>   11.6081    1.0000 </r>
       <r>   13.4512    0.0000 </r>
       <r>   13.5819    0.0000 </r>
       <r>   13.8364    0.0000 </r>
       <r>   14.2882    0.0000 </r>
       <r>   14.4776    0.0000 </r>
       <r>   14.6006    0.0000 </r>
       <r>   14.8623    0.0000 </r>
       <r>   15.9209    0.0000 </r>
       <r>   16.5334    0.0000 </r>
       <r>   17.0134    0.0000 </r>
       <r>   18.3141    0.0000 </r>
      </set>
      <set comment="kpoint 250">
       <r>  -50.8034    1.0000 </r>
       <r>  -50.6951    1.0000 </r>
       <r>  -50.6314    1.0000 </r>
       <r>  -50.5975    1.0000 </r>
       <r>  -24.6531    1.0000 </r>
       <r>  -24.6003    1.0000 </r>
       <r>  -24.5333    1.0000 </r>
       <r>  -24.2372    1.0000 </r>
       <r>  -24.2136    1.0000 </r>
       <r>  -24.1662    1.0000 </r>
       <r>  -24.0583    1.0000 </r>
       <r>  -23.9715    1.0000 </r>
       <r>  -23.8903    1.0000 </r>
       <r>  -23.7391    1.0000 </r>
       <r>  -23.5581    1.0000 </r>
       <r>  -23.5304    1.0000 </r>
       <r>    1.9819    1.0000 </r>
       <r>    3.8190    1.0000 </r>
       <r>    6.3487    1.0000 </r>
       <r>    7.4129    1.0000 </r>
       <r>    7.5141    1.0000 </r>
       <r>    8.2731    1.0000 </r>
       <r>    8.5507    1.0000 </r>
       <r>    8.6377    1.0000 </r>
       <r>    8.9306    1.0000 </r>
       <r>    9.2706    1.0000 </r>
       <r>    9.4668    1.0000 </r>
       <r>   10.0785    1.0000 </r>
       <r>   10.5204    1.0000 </r>
       <r>   11.0829    1.0000 </r>
       <r>   11.6143    1.0000 </r>
       <r>   12.8932    0.0000 </r>
       <r>   13.3609    0.0000 </r>
       <r>   14.0129    0.0000 </r>
       <r>   14.3553    0.0000 </r>
       <r>   14.6589    0.0000 </r>
       <r>   15.0982    0.0000 </r>
       <r>   15.1236    0.0000 </r>
       <r>   16.0459    0.0000 </r>
       <r>   16.5435    0.0000 </r>
       <r>   17.1219    0.0000 </r>
       <r>   18.1131    0.0000 </r>
      </set>
      <set comment="kpoint 251">
       <r>  -50.8134    1.0000 </r>
       <r>  -50.7033    1.0000 </r>
       <r>  -50.6299    1.0000 </r>
       <r>  -50.5804    1.0000 </r>
       <r>  -24.6486    1.0000 </r>
       <r>  -24.5325    1.0000 </r>
       <r>  -24.5107    1.0000 </r>
       <r>  -24.3250    1.0000 </r>
       <r>  -24.2656    1.0000 </r>
       <r>  -24.1483    1.0000 </r>
       <r>  -24.1040    1.0000 </r>
       <r>  -24.0098    1.0000 </r>
       <r>  -23.8206    1.0000 </r>
       <r>  -23.7016    1.0000 </r>
       <r>  -23.5575    1.0000 </r>
       <r>  -23.5305    1.0000 </r>
       <r>    1.9016    1.0000 </r>
       <r>    4.2514    1.0000 </r>
       <r>    6.1246    1.0000 </r>
       <r>    7.1504    1.0000 </r>
       <r>    7.6618    1.0000 </r>
       <r>    8.0763    1.0000 </r>
       <r>    8.5524    1.0000 </r>
       <r>    8.6556    1.0000 </r>
       <r>    8.8789    1.0000 </r>
       <r>    9.1779    1.0000 </r>
       <r>    9.6343    1.0000 </r>
       <r>    9.8492    1.0000 </r>
       <r>   10.6770    1.0000 </r>
       <r>   11.4569    1.0000 </r>
       <r>   11.6341    1.0000 </r>
       <r>   12.4468    0.0000 </r>
       <r>   12.7341    0.0000 </r>
       <r>   13.9972    0.0000 </r>
       <r>   14.4183    0.0000 </r>
       <r>   14.9987    0.0000 </r>
       <r>   15.3864    0.0000 </r>
       <r>   15.5007    0.0000 </r>
       <r>   16.1971    0.0000 </r>
       <r>   16.6406    0.0000 </r>
       <r>   17.1039    0.0000 </r>
       <r>   17.6006    0.0000 </r>
      </set>
     </set>
    </set>
   </array>
  </eigenvalues>
  <separator name="orbital magnetization" >
   <v name="MAGDIPOLOUT">      0.00000000      0.00000000      0.00000000</v>
  </separator>
  <dos>
   <i name="efermi">     12.24447522 </i>
   <total>
    <array>
     <dimension dim="1">gridpoints</dimension>
     <dimension dim="2">spin</dimension>
     <field>energy</field>
     <field>total</field>
     <field>integrated</field>
     <set>
      <set comment="spin 1">
       <r>   -54.4161     0.0000     0.0000 </r>
       <r>   -54.1578     0.0000     0.0000 </r>
       <r>   -53.8995     0.0000     0.0000 </r>
       <r>   -53.6413     0.0000     0.0000 </r>
       <r>   -53.3830     0.0000     0.0000 </r>
       <r>   -53.1247     0.0000     0.0000 </r>
       <r>   -52.8665     0.0000     0.0000 </r>
       <r>   -52.6082     0.0000     0.0000 </r>
       <r>   -52.3499     0.0000     0.0000 </r>
       <r>   -52.0917     0.0000     0.0000 </r>
       <r>   -51.8334     0.0000     0.0000 </r>
       <r>   -51.5752     0.0000     0.0000 </r>
       <r>   -51.3169     0.0000     0.0000 </r>
       <r>   -51.0586     0.0000     0.0000 </r>
       <r>   -50.8004     2.7651     0.7141 </r>
       <r>   -50.5421    18.4508     7.9896 </r>
       <r>   -50.2838     0.0000     8.0000 </r>
       <r>   -50.0256     0.0000     8.0000 </r>
       <r>   -49.7673     0.0000     8.0000 </r>
       <r>   -49.5090     0.0000     8.0000 </r>
       <r>   -49.2508     0.0000     8.0000 </r>
       <r>   -48.9925     0.0000     8.0000 </r>
       <r>   -48.7342     0.0000     8.0000 </r>
       <r>   -48.4760     0.0000     8.0000 </r>
       <r>   -48.2177     0.0000     8.0000 </r>
       <r>   -47.9594     0.0000     8.0000 </r>
       <r>   -47.7012     0.0000     8.0000 </r>
       <r>   -47.4429     0.0000     8.0000 </r>
       <r>   -47.1846     0.0000     8.0000 </r>
       <r>   -46.9264     0.0000     8.0000 </r>
       <r>   -46.6681     0.0000     8.0000 </r>
       <r>   -46.4098     0.0000     8.0000 </r>
       <r>   -46.1516     0.0000     8.0000 </r>
       <r>   -45.8933     0.0000     8.0000 </r>
       <r>   -45.6350     0.0000     8.0000 </r>
       <r>   -45.3768     0.0000     8.0000 </r>
       <r>   -45.1185     0.0000     8.0000 </r>
       <r>   -44.8602     0.0000     8.0000 </r>
       <r>   -44.6020     0.0000     8.0000 </r>
       <r>   -44.3437     0.0000     8.0000 </r>
       <r>   -44.0854     0.0000     8.0000 </r>
       <r>   -43.8272     0.0000     8.0000 </r>
       <r>   -43.5689     0.0000     8.0000 </r>
       <r>   -43.3106     0.0000     8.0000 </r>
       <r>   -43.0524     0.0000     8.0000 </r>
       <r>   -42.7941     0.0000     8.0000 </r>
       <r>   -42.5359     0.0000     8.0000 </r>
       <r>   -42.2776     0.0000     8.0000 </r>
       <r>   -42.0193     0.0000     8.0000 </r>
       <r>   -41.7611     0.0000     8.0000 </r>
       <r>   -41.5028     0.0000     8.0000 </r>
       <r>   -41.2445     0.0000     8.0000 </r>
       <r>   -40.9863     0.0000     8.0000 </r>
       <r>   -40.7280     0.0000     8.0000 </r>
       <r>   -40.4697     0.0000     8.0000 </r>
       <r>   -40.2115     0.0000     8.0000 </r>
       <r>   -39.9532     0.0000     8.0000 </r>
       <r>   -39.6949     0.0000     8.0000 </r>
       <r>   -39.4367     0.0000     8.0000 </r>
       <r>   -39.1784     0.0000     8.0000 </r>
       <r>   -38.9201     0.0000     8.0000 </r>
       <r>   -38.6619     0.0000     8.0000 </r>
       <r>   -38.4036     0.0000     8.0000 </r>
       <r>   -38.1453     0.0000     8.0000 </r>
       <r>   -37.8871     0.0000     8.0000 </r>
       <r>   -37.6288     0.0000     8.0000 </r>
       <r>   -37.3705     0.0000     8.0000 </r>
       <r>   -37.1123     0.0000     8.0000 </r>
       <r>   -36.8540     0.0000     8.0000 </r>
       <r>   -36.5957     0.0000     8.0000 </r>
       <r>   -36.3375     0.0000     8.0000 </r>
       <r>   -36.0792     0.0000     8.0000 </r>
       <r>   -35.8209     0.0000     8.0000 </r>
       <r>   -35.5627     0.0000     8.0000 </r>
       <r>   -35.3044     0.0000     8.0000 </r>
       <r>   -35.0461     0.0000     8.0000 </r>
       <r>   -34.7879     0.0000     8.0000 </r>
       <r>   -34.5296     0.0000     8.0000 </r>
       <r>   -34.2713     0.0000     8.0000 </r>
       <r>   -34.0131     0.0000     8.0000 </r>
       <r>   -33.7548     0.0000     8.0000 </r>
       <r>   -33.4966     0.0000     8.0000 </r>
       <r>   -33.2383     0.0000     8.0000 </r>
       <r>   -32.9800     0.0000     8.0000 </r>
       <r>   -32.7218     0.0000     8.0000 </r>
       <r>   -32.4635     0.0000     8.0000 </r>
       <r>   -32.2052     0.0000     8.0000 </r>
       <r>   -31.9470     0.0000     8.0000 </r>
       <r>   -31.6887     0.0000     8.0000 </r>
       <r>   -31.4304     0.0000     8.0000 </r>
       <r>   -31.1722     0.0000     8.0000 </r>
       <r>   -30.9139     0.0000     8.0000 </r>
       <r>   -30.6556     0.0000     8.0000 </r>
       <r>   -30.3974     0.0000     8.0000 </r>
       <r>   -30.1391     0.0000     8.0000 </r>
       <r>   -29.8808     0.0000     8.0000 </r>
       <r>   -29.6226     0.0000     8.0000 </r>
       <r>   -29.3643     0.0000     8.0000 </r>
       <r>   -29.1060     0.0000     8.0000 </r>
       <r>   -28.8478     0.0000     8.0000 </r>
       <r>   -28.5895     0.0000     8.0000 </r>
       <r>   -28.3312     0.0000     8.0000 </r>
       <r>   -28.0730     0.0000     8.0000 </r>
       <r>   -27.8147     0.0000     8.0000 </r>
       <r>   -27.5564     0.0000     8.0000 </r>
       <r>   -27.2982     0.0000     8.0000 </r>
       <r>   -27.0399     0.0000     8.0000 </r>
       <r>   -26.7816     0.0000     8.0000 </r>
       <r>   -26.5234     0.0000     8.0000 </r>
       <r>   -26.2651     0.0000     8.0000 </r>
       <r>   -26.0068     0.0000     8.0000 </r>
       <r>   -25.7486     0.0000     8.0000 </r>
       <r>   -25.4903     0.0000     8.0000 </r>
       <r>   -25.2320     0.0000     8.0000 </r>
       <r>   -24.9738     0.0000     8.0000 </r>
       <r>   -24.7155     3.0778     8.7949 </r>
       <r>   -24.4573    12.1807    13.5259 </r>
       <r>   -24.1990    10.8127    17.7214 </r>
       <r>   -23.9407    12.0368    22.9265 </r>
       <r>   -23.6825     9.9607    27.5614 </r>
       <r>   -23.4242    13.7670    32.0000 </r>
       <r>   -23.1659     0.0000    32.0000 </r>
       <r>   -22.9077     0.0000    32.0000 </r>
       <r>   -22.6494     0.0000    32.0000 </r>
       <r>   -22.3911     0.0000    32.0000 </r>
       <r>   -22.1329     0.0000    32.0000 </r>
       <r>   -21.8746     0.0000    32.0000 </r>
       <r>   -21.6163     0.0000    32.0000 </r>
       <r>   -21.3581     0.0000    32.0000 </r>
       <r>   -21.0998     0.0000    32.0000 </r>
       <r>   -20.8415     0.0000    32.0000 </r>
       <r>   -20.5833     0.0000    32.0000 </r>
       <r>   -20.3250     0.0000    32.0000 </r>
       <r>   -20.0667     0.0000    32.0000 </r>
       <r>   -19.8085     0.0000    32.0000 </r>
       <r>   -19.5502     0.0000    32.0000 </r>
       <r>   -19.2919     0.0000    32.0000 </r>
       <r>   -19.0337     0.0000    32.0000 </r>
       <r>   -18.7754     0.0000    32.0000 </r>
       <r>   -18.5171     0.0000    32.0000 </r>
       <r>   -18.2589     0.0000    32.0000 </r>
       <r>   -18.0006     0.0000    32.0000 </r>
       <r>   -17.7423     0.0000    32.0000 </r>
       <r>   -17.4841     0.0000    32.0000 </r>
       <r>   -17.2258     0.0000    32.0000 </r>
       <r>   -16.9675     0.0000    32.0000 </r>
       <r>   -16.7093     0.0000    32.0000 </r>
       <r>   -16.4510     0.0000    32.0000 </r>
       <r>   -16.1928     0.0000    32.0000 </r>
       <r>   -15.9345     0.0000    32.0000 </r>
       <r>   -15.6762     0.0000    32.0000 </r>
       <r>   -15.4180     0.0000    32.0000 </r>
       <r>   -15.1597     0.0000    32.0000 </r>
       <r>   -14.9014     0.0000    32.0000 </r>
       <r>   -14.6432     0.0000    32.0000 </r>
       <r>   -14.3849     0.0000    32.0000 </r>
       <r>   -14.1266     0.0000    32.0000 </r>
       <r>   -13.8684     0.0000    32.0000 </r>
       <r>   -13.6101     0.0000    32.0000 </r>
       <r>   -13.3518     0.0000    32.0000 </r>
       <r>   -13.0936     0.0000    32.0000 </r>
       <r>   -12.8353     0.0000    32.0000 </r>
       <r>   -12.5770     0.0000    32.0000 </r>
       <r>   -12.3188     0.0000    32.0000 </r>
       <r>   -12.0605     0.0000    32.0000 </r>
       <r>   -11.8022     0.0000    32.0000 </r>
       <r>   -11.5440     0.0000    32.0000 </r>
       <r>   -11.2857     0.0000    32.0000 </r>
       <r>   -11.0274     0.0000    32.0000 </r>
       <r>   -10.7692     0.0000    32.0000 </r>
       <r>   -10.5109     0.0000    32.0000 </r>
       <r>   -10.2526     0.0000    32.0000 </r>
       <r>    -9.9944     0.0000    32.0000 </r>
       <r>    -9.7361     0.0000    32.0000 </r>
       <r>    -9.4778     0.0000    32.0000 </r>
       <r>    -9.2196     0.0000    32.0000 </r>
       <r>    -8.9613     0.0000    32.0000 </r>
       <r>    -8.7030     0.0000    32.0000 </r>
       <r>    -8.4448     0.0000    32.0000 </r>
       <r>    -8.1865     0.0000    32.0000 </r>
       <r>    -7.9282     0.0000    32.0000 </r>
       <r>    -7.6700     0.0000    32.0000 </r>
       <r>    -7.4117     0.0000    32.0000 </r>
       <r>    -7.1535     0.0000    32.0000 </r>
       <r>    -6.8952     0.0000    32.0000 </r>
       <r>    -6.6369     0.0000    32.0000 </r>
       <r>    -6.3787     0.0000    32.0000 </r>
       <r>    -6.1204     0.0000    32.0000 </r>
       <r>    -5.8621     0.0000    32.0000 </r>
       <r>    -5.6039     0.0000    32.0000 </r>
       <r>    -5.3456     0.0000    32.0000 </r>
       <r>    -5.0873     0.0000    32.0000 </r>
       <r>    -4.8291     0.0000    32.0000 </r>
       <r>    -4.5708     0.0000    32.0000 </r>
       <r>    -4.3125     0.0000    32.0000 </r>
       <r>    -4.0543     0.0000    32.0000 </r>
       <r>    -3.7960     0.0000    32.0000 </r>
       <r>    -3.5377     0.0000    32.0000 </r>
       <r>    -3.2795     0.0000    32.0000 </r>
       <r>    -3.0212     0.0000    32.0000 </r>
       <r>    -2.7629     0.0000    32.0000 </r>
       <r>    -2.5047     0.0000    32.0000 </r>
       <r>    -2.2464     0.0000    32.0000 </r>
       <r>    -1.9881     0.0000    32.0000 </r>
       <r>    -1.7299     0.0000    32.0000 </r>
       <r>    -1.4716     0.0000    32.0000 </r>
       <r>    -1.2133     0.0000    32.0000 </r>
       <r>    -0.9551     0.0000    32.0000 </r>
       <r>    -0.6968     0.0000    32.0000 </r>
       <r>    -0.4385     0.0000    32.0000 </r>
       <r>    -0.1803     0.0000    32.0000 </r>
       <r>     0.0780     0.0000    32.0000 </r>
       <r>     0.3363     0.0000    32.0000 </r>
       <r>     0.5945     0.0000    32.0000 </r>
       <r>     0.8528     0.0802    32.0207 </r>
       <r>     1.1111     0.1921    32.0874 </r>
       <r>     1.3693     0.2166    32.1693 </r>
       <r>     1.6276     0.3972    32.3181 </r>
       <r>     1.8858     0.4993    32.5001 </r>
       <r>     2.1441     0.7490    32.7690 </r>
       <r>     2.4024     0.7651    33.0909 </r>
       <r>     2.6606     0.8265    33.4446 </r>
       <r>     2.9189     0.7680    33.7583 </r>
       <r>     3.1772     0.7939    34.0984 </r>
       <r>     3.4354     0.8395    34.4435 </r>
       <r>     3.6937     0.6008    34.6663 </r>
       <r>     3.9520     0.7037    35.0040 </r>
       <r>     4.2102     0.4970    35.1884 </r>
       <r>     4.4685     0.3552    35.5340 </r>
       <r>     4.7268     0.1937    35.6211 </r>
       <r>     4.9850     0.6884    35.8822 </r>
       <r>     5.2433     0.1274    35.9329 </r>
       <r>     5.5016     0.1906    35.9959 </r>
       <r>     5.7598     0.2150    36.0644 </r>
       <r>     6.0181     0.4995    36.2379 </r>
       <r>     6.2764     1.7438    36.8881 </r>
       <r>     6.5346     2.4027    37.8605 </r>
       <r>     6.7929     1.9631    38.7026 </r>
       <r>     7.0512     1.6557    39.3743 </r>
       <r>     7.3094     2.4187    40.3202 </r>
       <r>     7.5677     2.5227    41.3004 </r>
       <r>     7.8260     2.0865    42.2989 </r>
       <r>     8.0842     1.9552    43.0383 </r>
       <r>     8.3425     2.1506    43.8732 </r>
       <r>     8.6008     4.1687    45.3344 </r>
       <r>     8.8590     5.5201    47.6568 </r>
       <r>     9.1173     5.6148    49.8812 </r>
       <r>     9.3756     3.9596    51.5404 </r>
       <r>     9.6338     3.9151    53.3156 </r>
       <r>     9.8921     3.3486    54.6493 </r>
       <r>    10.1504     2.5533    55.7461 </r>
       <r>    10.4086     1.8011    56.5141 </r>
       <r>    10.6669     2.1300    57.3057 </r>
       <r>    10.9251     1.8383    58.0414 </r>
       <r>    11.1834     2.1501    59.0509 </r>
       <r>    11.4417     1.2854    59.6275 </r>
       <r>    11.6999     1.2011    60.1791 </r>
       <r>    11.9582     1.6937    60.8974 </r>
       <r>    12.2165     2.4260    61.9043 </r>
       <r>    12.4747     2.6052    62.9439 </r>
       <r>    12.7330     1.6013    63.8047 </r>
       <r>    12.9913     1.9010    64.6354 </r>
       <r>    13.2495     2.1269    65.5160 </r>
       <r>    13.5078     1.9359    66.3200 </r>
       <r>    13.7661     2.2360    67.3508 </r>
       <r>    14.0243     3.0006    68.4949 </r>
       <r>    14.2826     3.2713    69.7426 </r>
       <r>    14.5409     3.6143    71.2668 </r>
       <r>    14.7991     2.9457    72.3674 </r>
       <r>    15.0574     3.1978    73.6459 </r>
       <r>    15.3157     2.8896    74.9196 </r>
       <r>    15.5739     2.1685    75.9112 </r>
       <r>    15.8322     1.6720    76.7163 </r>
       <r>    16.0905     2.9495    77.8218 </r>
       <r>    16.3487     1.8950    78.7850 </r>
       <r>    16.6070     1.1016    79.3756 </r>
       <r>    16.8653     1.8939    79.9847 </r>
       <r>    17.1235     2.3215    80.8307 </r>
       <r>    17.3818     2.0488    81.8025 </r>
       <r>    17.6401     1.9248    82.5460 </r>
       <r>    17.8983     0.9972    82.9975 </r>
       <r>    18.1566     0.8958    83.3980 </r>
       <r>    18.4149     0.5158    83.6865 </r>
       <r>    18.6731     0.2829    83.8197 </r>
       <r>    18.9314     0.2536    83.9277 </r>
       <r>    19.1896     0.1033    83.9689 </r>
       <r>    19.4479     0.0090    83.9934 </r>
       <r>    19.7062     0.0000    84.0000 </r>
       <r>    19.9644     0.0000    84.0000 </r>
       <r>    20.2227     0.0000    84.0000 </r>
       <r>    20.4810     0.0000    84.0000 </r>
       <r>    20.7392     0.0000    84.0000 </r>
       <r>    20.9975     0.0000    84.0000 </r>
       <r>    21.2558     0.0000    84.0000 </r>
       <r>    21.5140     0.0000    84.0000 </r>
       <r>    21.7723     0.0000    84.0000 </r>
       <r>    22.0306     0.0000    84.0000 </r>
       <r>    22.2888     0.0000    84.0000 </r>
       <r>    22.5471     0.0000    84.0000 </r>
       <r>    22.8054     0.0000    84.0000 </r>
       <r>    23.0636     0.0000    84.0000 </r>
      </set>
     </set>
    </array>
   </total>
  </dos>
 </calculation>
 <structure name="finalpos" >
  <crystal>
   <varray name="basis" >
    <v>       4.41698913       0.00356734      -1.22750193 </v>
    <v>      -2.55042574       3.60626414      -1.22750192 </v>
    <v>      -0.00184477      -0.00356735       4.58438201 </v>
   </varray>
   <i name="volume">     73.02688124 </i>
   <varray name="rec_basis" >
    <v>       0.22632917       0.16013816       0.00021569 </v>
    <v>      -0.00016398       0.27725271       0.00021568 </v>
    <v>       0.06055739       0.11711462       0.21824741 </v>
   </varray>
  </crystal>
  <varray name="positions" >
   <v>       0.75000000       0.75000000       0.00000000 </v>
   <v>       0.25000000       0.25000000       0.00000000 </v>
   <v>       0.83002750       0.66997250       0.50000000 </v>
   <v>       0.33002750       0.83002750       0.16005400 </v>
   <v>       0.16997250       0.33002750       0.50000000 </v>
   <v>       0.66997250       0.16997250       0.83994600 </v>
  </varray>
 </structure>
</modeling>
