 vasp.6.2.0 18Jan21 (build Jan 05 2022 15:41:44) complex                        
  
 executed on             LinuxIFC date 2025.05.07  16:11:16
 running on   24 total cores
 distrk:  each k-point on   12 cores,    2 groups
 distr:  one band on NCORE=   2 cores,    6 groups


--------------------------------------------------------------------------------------------------------


 INCAR:
   SYSTEM = routine with relax: pwdword
   ICHARG = 2
   NPAR = 6
   KPAR = 2
   NCORE = 2
   ADDGRID = T
   PREC = Acc
   ENCUT = 600
   METAGGA = R2SCAN
   LASPH = .TRUE.
   LMIXTAU = .FALSE.
   ALGO = A
   EDIFF = 1E-9
   NELM = 100
   NELMIN = 6
   IALGO = 38
   LREAL = F
   NSW = 0
   ISIF = -1
   ISMEAR = 0
   SIGMA = 0.02
   SYMPREC = 1E-4

 POTCAR:    PAW_PBE B 06Sep2000                   
 POTCAR:    PAW_PBE Mo_sv 02Feb2006               
 POTCAR:    PAW_PBE Si 05Jan2001                  
 -----------------------------------------------------------------------------
|                                                                             |
|           W    W    AA    RRRRR   N    N  II  N    N   GGGG   !!!           |
|           W    W   A  A   R    R  NN   N  II  NN   N  G    G  !!!           |
|           W    W  A    A  R    R  N N  N  II  N N  N  G       !!!           |
|           W WW W  AAAAAA  RRRRR   N  N N  II  N  N N  G  GGG   !            |
|           WW  WW  A    A  R   R   N   NN  II  N   NN  G    G                |
|           W    W  A    A  R    R  N    N  II  N    N   GGGG   !!!           |
|                                                                             |
|     For optimal performance we recommend to set                             |
|       NCORE = 2 up to number-of-cores-per-socket                            |
|     NCORE specifies how many cores store one orbital (NPAR=cpu/NCORE).      |
|     This setting can greatly improve the performance of VASP for DFT.       |
|     The default, NCORE=1 might be grossly inefficient on modern             |
|     multi-core architectures or massively parallel machines. Do your        |
|     own testing! More info at https://www.vasp.at/wiki/index.php/NCORE      |
|     Unfortunately you need to use the default for GW and RPA                |
|     calculations (for HF NCORE is supported but not extensively tested      |
|     yet).                                                                   |
|                                                                             |
 -----------------------------------------------------------------------------

 POTCAR:    PAW_PBE B 06Sep2000                   
   VRHFIN =B: s2p1                                                                                  
   LEXCH  = PE                                                                                      
   EATOM  =    71.1703 eV,    5.2309 Ry                                                             
                                                                                                    
   TITEL  = PAW_PBE B 06Sep2000                                                                     
   LULTRA =        F    use ultrasoft PP ?                                                          
   IUNSCR =        1    unscreen: 0-lin 1-nonlin 2-no                                               
   RPACOR =    1.200    partial core radius                                                         
   POMASS =   10.811; ZVAL   =    3.000    mass and valenz                                          
   RCORE  =    1.700    outmost cutoff radius                                                       
   RWIGS  =    1.710; RWIGS  =    0.905    wigner-seitz radius (au A)                               
   ENMAX  =  318.614; ENMIN  =  238.960 eV                                                          
   ICORE  =        2    local potential                                                             
   LCOR   =        T    correct aug charges                                                         
   LPAW   =        T    paw PP                                                                      
   EAUG   =  535.514                                                                                
   DEXC   =    0.000                                                                                
   RMAX   =    1.732    core radius for proj-oper                                                   
   RAUG   =    1.300    factor for augmentation sphere                                              
   RDEP   =    1.757    radius for radial grids                                                     
   RDEPT  =    1.436    core radius for aug-charge                                                  
                                                                                                    
   Atomic configuration                                                                             
    4 entries                                                                                       
     n  l   j            E        occ.                                                              
     1  0  0.50      -180.5896   2.0000                                                             
     2  0  0.50        -9.4431   2.0000                                                             
     2  1  0.50        -3.6068   1.0000                                                             
     3  2  1.50        -4.0817   0.0000                                                             
   Description                                                                                      
     l       E           TYP  RCUT    TYP  RCUT                                                     
     0     -9.4430752     23  1.500                                                                 
     0      0.8675899     23  1.500                                                                 
     1     -3.6067955     23  1.700                                                                 
     1      6.1086146     23  1.700                                                                 
     2     -4.0817478      7  1.700                                                                 
  local pseudopotential read in
  partial core-charges read in
  partial kinetic energy density read in
  atomic valenz-charges read in
  non local Contribution for L=           0  read in
    real space projection operators read in
  non local Contribution for L=           0  read in
    real space projection operators read in
  non local Contribution for L=           1  read in
    real space projection operators read in
  non local Contribution for L=           1  read in
    real space projection operators read in
    PAW grid and wavefunctions read in
 
   number of l-projection  operators is LMAX  =           4
   number of lm-projection operators is LMMAX =           8
 
 POTCAR:    PAW_PBE Mo_sv 02Feb2006               
   VRHFIN =Mo: 4p5s4d                                                                               
   LEXCH  = PE                                                                                      
   EATOM  =  1862.2866 eV,  136.8742 Ry                                                             
                                                                                                    
   TITEL  = PAW_PBE Mo_sv 02Feb2006                                                                 
   LULTRA =        F    use ultrasoft PP ?                                                          
   IUNSCR =        1    unscreen: 0-lin 1-nonlin 2-no                                               
   RPACOR =    2.200    partial core radius                                                         
   POMASS =   95.940; ZVAL   =   14.000    mass and valenz                                          
   RCORE  =    2.500    outmost cutoff radius                                                       
   RWIGS  =    2.750; RWIGS  =    1.455    wigner-seitz radius (au A)                               
   ENMAX  =  242.676; ENMIN  =  182.007 eV                                                          
   ICORE  =        3    local potential                                                             
   LCOR   =        T    correct aug charges                                                         
   LPAW   =        T    paw PP                                                                      
   EAUG   =  446.014                                                                                
   DEXC   =    0.000                                                                                
   RMAX   =    2.563    core radius for proj-oper                                                   
   RAUG   =    1.300    factor for augmentation sphere                                              
   RDEP   =    2.641    radius for radial grids                                                     
   RDEPT  =    2.031    core radius for aug-charge                                                  
                                                                                                    
   Atomic configuration                                                                             
   11 entries                                                                                       
     n  l   j            E        occ.                                                              
     1  0  0.50    -19819.0341   2.0000                                                             
     2  0  0.50     -2799.0127   2.0000                                                             
     2  1  1.50     -2502.0276   6.0000                                                             
     3  0  0.50      -476.4449   2.0000                                                             
     3  1  1.50      -379.1496   6.0000                                                             
     3  2  2.50      -220.9367  10.0000                                                             
     4  0  0.50       -64.3378   2.0000                                                             
     5  0  0.50        -4.0862   1.0000                                                             
     4  1  1.50       -38.4773   6.0000                                                             
     4  2  2.50        -3.7535   5.0000                                                             
     4  3  2.50        -1.3606   0.0000                                                             
   Description                                                                                      
     l       E           TYP  RCUT    TYP  RCUT                                                     
     0    -64.3377829     23  2.100                                                                 
     0     -4.0861640     23  2.400                                                                 
     1    -38.4772993     23  2.100                                                                 
     1     13.6058260     23  2.100                                                                 
     2     -3.7534941     23  2.400                                                                 
     2     -5.1140767     23  2.400                                                                 
     3     -4.0817478     23  2.500                                                                 
  local pseudopotential read in
  partial core-charges read in
  partial kinetic energy density read in
  atomic valenz-charges read in
  non local Contribution for L=           0  read in
    real space projection operators read in
  non local Contribution for L=           0  read in
    real space projection operators read in
  non local Contribution for L=           1  read in
    real space projection operators read in
  non local Contribution for L=           1  read in
    real space projection operators read in
  non local Contribution for L=           2  read in
    real space projection operators read in
  non local Contribution for L=           2  read in
    real space projection operators read in
    PAW grid and wavefunctions read in
 
   number of l-projection  operators is LMAX  =           6
   number of lm-projection operators is LMMAX =          18
 
 POTCAR:    PAW_PBE Si 05Jan2001                  
   VRHFIN =Si: s2p2                                                                                 
   LEXCH  = PE                                                                                      
   EATOM  =   103.0669 eV,    7.5752 Ry                                                             
                                                                                                    
   TITEL  = PAW_PBE Si 05Jan2001                                                                    
   LULTRA =        F    use ultrasoft PP ?                                                          
   IUNSCR =        1    unscreen: 0-lin 1-nonlin 2-no                                               
   RPACOR =    1.500    partial core radius                                                         
   POMASS =   28.085; ZVAL   =    4.000    mass and valenz                                          
   RCORE  =    1.900    outmost cutoff radius                                                       
   RWIGS  =    2.480; RWIGS  =    1.312    wigner-seitz radius (au A)                               
   ENMAX  =  245.345; ENMIN  =  184.009 eV                                                          
   ICORE  =        2    local potential                                                             
   LCOR   =        T    correct aug charges                                                         
   LPAW   =        T    paw PP                                                                      
   EAUG   =  322.069                                                                                
   DEXC   =    0.000                                                                                
   RMAX   =    1.950    core radius for proj-oper                                                   
   RAUG   =    1.300    factor for augmentation sphere                                              
   RDEP   =    1.993    radius for radial grids                                                     
   RDEPT  =    1.837    core radius for aug-charge                                                  
                                                                                                    
   Atomic configuration                                                                             
    6 entries                                                                                       
     n  l   j            E        occ.                                                              
     1  0  0.50     -1785.8828   2.0000                                                             
     2  0  0.50      -139.4969   2.0000                                                             
     2  1  1.50       -95.5546   6.0000                                                             
     3  0  0.50       -10.8127   2.0000                                                             
     3  1  0.50        -4.0811   2.0000                                                             
     3  2  1.50        -4.0817   0.0000                                                             
   Description                                                                                      
     l       E           TYP  RCUT    TYP  RCUT                                                     
     0    -10.8127223     23  1.900                                                                 
     0     -7.6451159     23  1.900                                                                 
     1     -4.0811372     23  1.900                                                                 
     1      2.4879257     23  1.900                                                                 
     2     -4.0817478      7  1.900                                                                 
  local pseudopotential read in
  partial core-charges read in
  partial kinetic energy density read in
  atomic valenz-charges read in
  non local Contribution for L=           0  read in
    real space projection operators read in
  non local Contribution for L=           0  read in
    real space projection operators read in
  non local Contribution for L=           1  read in
    real space projection operators read in
  non local Contribution for L=           1  read in
    real space projection operators read in
    PAW grid and wavefunctions read in
 
   number of l-projection  operators is LMAX  =           4
   number of lm-projection operators is LMMAX =           8
 
  PAW_PBE B 06Sep2000                   :
 energy of atom  1       EATOM=  -71.1703
 kinetic energy error for atom=    0.0007 (will be added to EATOM!!)
  PAW_PBE Mo_sv 02Feb2006               :
 energy of atom  2       EATOM=-1862.2866
 kinetic energy error for atom=    0.0041 (will be added to EATOM!!)
  PAW_PBE Si 05Jan2001                  :
 energy of atom  3       EATOM= -103.0669
 kinetic energy error for atom=    0.0003 (will be added to EATOM!!)
 
 
 POSCAR: EA72
  positions in direct lattice
  No initial velocities read in

 METAGGA = R2SCA    LMAXTAU =  6    LMIXTAU =  F

 exchange correlation table for  LEXCH =        8
   RHO(1)=    0.500       N(1)  =     2000
   RHO(2)=  100.500       N(2)  =     4000
 


--------------------------------------------------------------------------------------------------------


 ion  position               nearest neighbor table
   1  0.000  0.500  0.500-   4 2.28   6 2.28
   2  0.500  0.000  0.500-   4 2.28   6 2.28
   3  0.250  0.250  0.000-   7 2.28   8 2.28   4 3.22   6 3.22   4 3.22   6 3.22
   4  0.250  0.750  0.500-   1 2.28   2 2.28   3 3.22   5 3.22   3 3.22   5 3.22
   5  0.750  0.750  0.000-   7 2.28   8 2.28   4 3.22   6 3.22   6 3.22   4 3.22
   6  0.750  0.250  0.500-   1 2.28   2 2.28   3 3.22   5 3.22   5 3.22   3 3.22
   7  0.000  0.000  0.000-   3 2.28   5 2.28
   8  0.500  0.500  0.000-   3 2.28   5 2.28
 
  LATTYP: Found a body centered tetragonal cell.
 ALAT       =     6.4495496140
 C/A-ratio  =     1.4150621342
  
  Lattice vectors:
  
 A1 = (   5.5860365530,   0.0000000000,  -3.2277000912)
 A2 = (  -1.8605815113,   5.2670713695,  -3.2277000912)
 A3 = (   0.0000000000,   0.0000000000,   6.4515000000)


Analysis of symmetry for initial positions (statically):
=====================================================================
 Subroutine PRICEL returns following result:
 
  LATTYP: Found a simple tetragonal cell.
 ALAT       =     4.5605416731
 C/A-ratio  =     1.0005953345
  
  Lattice vectors:
  
 A1 = (   3.7233090322,  -2.6335356847,   0.0000000000)
 A2 = (   1.8627275208,   2.6335356847,   3.2237999088)
 A3 = (  -1.8627275208,  -2.6335356847,   3.2277000912)
 
   2 primitive cells build up your supercell.
 

 Routine SETGRP: Setting up the symmetry group for a 
 body centered tetragonal supercell.


 Subroutine GETGRP returns: Found 16 space group operations
 (whereof 16 operations were pure point group operations)
 out of a pool of 16 trial point group operations.


The static configuration has the point symmetry D_4h.


Analysis of symmetry for dynamics (positions and initial velocities):
=====================================================================
 Subroutine PRICEL returns following result:
 
  LATTYP: Found a simple tetragonal cell.
 ALAT       =     4.5605416731
 C/A-ratio  =     1.0005953345
  
  Lattice vectors:
  
 A1 = (   3.7233090322,  -2.6335356847,   0.0000000000)
 A2 = (   1.8627275208,   2.6335356847,   3.2237999088)
 A3 = (  -1.8627275208,  -2.6335356847,   3.2277000912)
 
   2 primitive cells build up your supercell.
 

 Routine SETGRP: Setting up the symmetry group for a 
 body centered tetragonal supercell.


 Subroutine GETGRP returns: Found 16 space group operations
 (whereof 16 operations were pure point group operations)
 out of a pool of 16 trial point group operations.


The dynamic configuration has the point symmetry D_4h.


 Subroutine INISYM returns: Found 16 space group operations
 (whereof 16 operations are pure point group operations),
 and found     2 'primitive' translations


----------------------------------------------------------------------------------------

                                     Primitive cell                                     

  volume of cell :      94.9082

  direct lattice vectors                    reciprocal lattice vectors
     3.723309032 -2.633535685  0.000000000     0.179017805 -0.126621178  0.000000000
     1.862727521  2.633535685  3.223799909     0.089563014  0.126624743  0.155002713
    -1.862727521 -2.633535685  3.227700091    -0.089454791 -0.126471736  0.155002713

  length of vectors
     4.560541673  4.560498862  4.563256721     0.219272199  0.219274257  0.219141736

  position of ions in fractional coordinates (direct lattice)
     0.500000000  0.500000000  0.000000000
     1.000000000  1.000000000  0.500000000
     0.500000000  0.500000000  0.500000000
     0.000000000  0.000000000  0.000000000

  ion indices of the primitive-cell ions
   primitive index   ion index
                 1           1
                 2           3
                 3           4
                 4           7

----------------------------------------------------------------------------------------

 
 
 KPOINTS: EA                                      

Automatic generation of k-mesh.
 Grid dimensions read from file:
 generate k-points for:    7    7    8

 Generating k-lattice:

  Cartesian coordinates                     Fractional coordinates (reciprocal lattice)
     0.025573972  0.009033950  0.000000000     0.142857143  0.000000000  0.000000000
     0.000000000  0.027122690  0.000000000     0.000000000  0.142857143  0.000000000
     0.011195377  0.015828093  0.019375339     0.000000000 -0.000000000  0.125000000

  Length of vectors
     0.027122690  0.027122690  0.027409282

  Shift w.r.t. Gamma in fractional coordinates (k-lattice)
     0.000000000  0.000000000  0.000000000

 -----------------------------------------------------------------------------
|                                                                             |
|           W    W    AA    RRRRR   N    N  II  N    N   GGGG   !!!           |
|           W    W   A  A   R    R  NN   N  II  NN   N  G    G  !!!           |
|           W    W  A    A  R    R  N N  N  II  N N  N  G       !!!           |
|           W WW W  AAAAAA  RRRRR   N  N N  II  N  N N  G  GGG   !            |
|           WW  WW  A    A  R   R   N   NN  II  N   NN  G    G                |
|           W    W  A    A  R    R  N    N  II  N    N   GGGG   !!!           |
|                                                                             |
|     Your reciprocal lattice and k-lattice belong to different lattice       |
|     classes:                                                                |
|                                                                             |
|        The reciprocal lattice is body-centered tetragonal,                  |
|        whereas your k-lattice is base-centered monoclinic.                  |
|                                                                             |
|     Results are often still useful ...                                      |
|                                                                             |
 -----------------------------------------------------------------------------

 WARNING: IBZKPT: internal override: KBLOWUP is changed to .FALSE.
      ... skipping the blow-up phase ...

 
 Subroutine IBZKPT returns following result:
 ===========================================
 
 Found    116 irreducible k-points:
 
 Following reciprocal coordinates:
            Coordinates               Weight
  0.000000  0.000000  0.000000      1.000000
  0.142857  0.000000  0.000000      4.000000
  0.285714  0.000000  0.000000      4.000000
  0.428571  0.000000  0.000000      4.000000
  0.142857  0.142857  0.000000      2.000000
  0.285714  0.142857  0.000000      4.000000
  0.428571  0.142857  0.000000      4.000000
 -0.428571  0.142857  0.000000      4.000000
 -0.285714  0.142857  0.000000      4.000000
 -0.142857  0.142857  0.000000      2.000000
  0.285714  0.285714  0.000000      2.000000
  0.428571  0.285714  0.000000      4.000000
 -0.428571  0.285714  0.000000      4.000000
 -0.285714  0.285714  0.000000      2.000000
  0.428571  0.428571  0.000000      2.000000
 -0.428571  0.428571  0.000000      2.000000
  0.000000  0.000000  0.125000      2.000000
  0.142857  0.000000  0.125000      4.000000
  0.285714 -0.000000  0.125000      4.000000
  0.428571 -0.000000  0.125000      4.000000
 -0.428571  0.000000  0.125000      4.000000
 -0.285714 -0.000000  0.125000      4.000000
 -0.142857  0.000000  0.125000      4.000000
  0.142857  0.142857  0.125000      2.000000
  0.285714  0.142857  0.125000      4.000000
  0.428571  0.142857  0.125000      4.000000
 -0.428571  0.142857  0.125000      4.000000
 -0.285714  0.142857  0.125000      4.000000
 -0.142857  0.142857  0.125000      4.000000
  0.285714  0.285714  0.125000      2.000000
  0.428571  0.285714  0.125000      4.000000
 -0.428571  0.285714  0.125000      4.000000
 -0.285714  0.285714  0.125000      4.000000
 -0.142857  0.285714  0.125000      4.000000
  0.428571  0.428571  0.125000      2.000000
 -0.428571  0.428571  0.125000      4.000000
 -0.285714  0.428571  0.125000      4.000000
 -0.142857  0.428571  0.125000      4.000000
 -0.428571 -0.428571  0.125000      2.000000
 -0.285714 -0.428571  0.125000      4.000000
 -0.142857 -0.428571  0.125000      4.000000
 -0.285714 -0.285714  0.125000      2.000000
 -0.142857 -0.285714  0.125000      4.000000
 -0.142857 -0.142857  0.125000      2.000000
  0.000000  0.000000  0.250000      2.000000
  0.142857  0.000000  0.250000      4.000000
  0.285714  0.000000  0.250000      4.000000
  0.428571  0.000000  0.250000      4.000000
 -0.428571  0.000000  0.250000      4.000000
 -0.285714  0.000000  0.250000      4.000000
 -0.142857  0.000000  0.250000      4.000000
  0.142857  0.142857  0.250000      2.000000
  0.285714  0.142857  0.250000      4.000000
  0.428571  0.142857  0.250000      4.000000
 -0.428571  0.142857  0.250000      4.000000
 -0.285714  0.142857  0.250000      4.000000
 -0.142857  0.142857  0.250000      4.000000
  0.285714  0.285714  0.250000      2.000000
  0.428571  0.285714  0.250000      4.000000
 -0.428571  0.285714  0.250000      4.000000
 -0.285714  0.285714  0.250000      4.000000
 -0.142857  0.285714  0.250000      4.000000
  0.428571  0.428571  0.250000      2.000000
 -0.428571  0.428571  0.250000      4.000000
 -0.285714  0.428571  0.250000      4.000000
 -0.142857  0.428571  0.250000      4.000000
 -0.428571 -0.428571  0.250000      2.000000
 -0.285714 -0.428571  0.250000      4.000000
 -0.142857 -0.428571  0.250000      4.000000
 -0.285714 -0.285714  0.250000      2.000000
 -0.142857 -0.285714  0.250000      4.000000
 -0.142857 -0.142857  0.250000      2.000000
 -0.000000  0.000000  0.375000      2.000000
  0.142857  0.000000  0.375000      4.000000
  0.285714  0.000000  0.375000      4.000000
  0.428571  0.000000  0.375000      4.000000
 -0.428571  0.000000  0.375000      4.000000
 -0.285714  0.000000  0.375000      4.000000
 -0.142857  0.000000  0.375000      4.000000
  0.142857  0.142857  0.375000      2.000000
  0.285714  0.142857  0.375000      4.000000
  0.428571  0.142857  0.375000      4.000000
 -0.428571  0.142857  0.375000      4.000000
 -0.285714  0.142857  0.375000      4.000000
 -0.142857  0.142857  0.375000      4.000000
  0.285714  0.285714  0.375000      2.000000
  0.428571  0.285714  0.375000      4.000000
 -0.428571  0.285714  0.375000      4.000000
 -0.285714  0.285714  0.375000      4.000000
 -0.142857  0.285714  0.375000      4.000000
  0.428571  0.428571  0.375000      2.000000
 -0.428571  0.428571  0.375000      4.000000
 -0.285714  0.428571  0.375000      4.000000
 -0.142857  0.428571  0.375000      4.000000
 -0.428571 -0.428571  0.375000      2.000000
 -0.285714 -0.428571  0.375000      4.000000
 -0.142857 -0.428571  0.375000      4.000000
 -0.285714 -0.285714  0.375000      2.000000
 -0.142857 -0.285714  0.375000      4.000000
 -0.142857 -0.142857  0.375000      2.000000
  0.000000  0.000000  0.500000      1.000000
  0.142857  0.000000  0.500000      4.000000
  0.285714  0.000000  0.500000      4.000000
  0.428571  0.000000  0.500000      4.000000
  0.142857  0.142857  0.500000      2.000000
  0.285714  0.142857  0.500000      4.000000
  0.428571  0.142857  0.500000      4.000000
 -0.428571  0.142857  0.500000      4.000000
 -0.285714  0.142857  0.500000      4.000000
 -0.142857  0.142857  0.500000      2.000000
  0.285714  0.285714  0.500000      2.000000
  0.428571  0.285714  0.500000      4.000000
 -0.428571  0.285714  0.500000      4.000000
 -0.285714  0.285714  0.500000      2.000000
  0.428571  0.428571  0.500000      2.000000
 -0.428571  0.428571  0.500000      2.000000
 
 Following cartesian coordinates:
            Coordinates               Weight
  0.000000  0.000000  0.000000      1.000000
  0.025574  0.009034  0.000000      4.000000
  0.051148  0.018068  0.000000      4.000000
  0.076722  0.027102  0.000000      4.000000
  0.025574  0.036157  0.000000      2.000000
  0.051148  0.045191  0.000000      4.000000
  0.076722  0.054225  0.000000      4.000000
 -0.076722  0.000021  0.000000      4.000000
 -0.051148  0.009055  0.000000      4.000000
 -0.025574  0.018089  0.000000      2.000000
  0.051148  0.072313  0.000000      2.000000
  0.076722  0.081347  0.000000      4.000000
 -0.076722  0.027144  0.000000      4.000000
 -0.051148  0.036177  0.000000      2.000000
  0.076722  0.108470  0.000000      2.000000
 -0.076722  0.054266  0.000000      2.000000
  0.011195  0.015828  0.019375      2.000000
  0.036769  0.024862  0.019375      4.000000
  0.062343  0.033896  0.019375      4.000000
  0.087917  0.042930  0.019375      4.000000
 -0.065527 -0.011274  0.019375      4.000000
 -0.039953 -0.002240  0.019375      4.000000
 -0.014379  0.006794  0.019375      4.000000
  0.036769  0.051985  0.019375      2.000000
  0.062343  0.061019  0.019375      4.000000
  0.087917  0.070053  0.019375      4.000000
 -0.065527  0.015849  0.019375      4.000000
 -0.039953  0.024883  0.019375      4.000000
 -0.014379  0.033917  0.019375      4.000000
  0.062343  0.088141  0.019375      2.000000
  0.087917  0.097175  0.019375      4.000000
 -0.065527  0.042972  0.019375      4.000000
 -0.039953  0.052006  0.019375      4.000000
 -0.014379  0.061040  0.019375      4.000000
  0.087917  0.124298  0.019375      2.000000
 -0.065527  0.070094  0.019375      4.000000
 -0.039953  0.079128  0.019375      4.000000
 -0.014379  0.088162  0.019375      4.000000
 -0.065527 -0.092642  0.019375      2.000000
 -0.039953 -0.083608  0.019375      4.000000
 -0.014379 -0.074574  0.019375      4.000000
 -0.039953 -0.056485  0.019375      2.000000
 -0.014379 -0.047451  0.019375      4.000000
 -0.014379 -0.020329  0.019375      2.000000
  0.022391  0.031656  0.038751      2.000000
  0.047965  0.040690  0.038751      4.000000
  0.073539  0.049724  0.038751      4.000000
  0.099113  0.058758  0.038751      4.000000
 -0.054331  0.004554  0.038751      4.000000
 -0.028757  0.013588  0.038751      4.000000
 -0.003183  0.022622  0.038751      4.000000
  0.047965  0.067813  0.038751      2.000000
  0.073539  0.076847  0.038751      4.000000
  0.099113  0.085881  0.038751      4.000000
 -0.054331  0.031677  0.038751      4.000000
 -0.028757  0.040711  0.038751      4.000000
 -0.003183  0.049745  0.038751      4.000000
  0.073539  0.103969  0.038751      2.000000
  0.099113  0.113003  0.038751      4.000000
 -0.054331  0.058800  0.038751      4.000000
 -0.028757  0.067834  0.038751      4.000000
 -0.003183  0.076868  0.038751      4.000000
  0.099113  0.140126  0.038751      2.000000
 -0.054331  0.085922  0.038751      4.000000
 -0.028757  0.094956  0.038751      4.000000
 -0.003183  0.103990  0.038751      4.000000
 -0.054331 -0.076814  0.038751      2.000000
 -0.028757 -0.067780  0.038751      4.000000
 -0.003183 -0.058746  0.038751      4.000000
 -0.028757 -0.040657  0.038751      2.000000
 -0.003183 -0.031623  0.038751      4.000000
 -0.003183 -0.004500  0.038751      2.000000
  0.033586  0.047484  0.058126      2.000000
  0.059160  0.056518  0.058126      4.000000
  0.084734  0.065552  0.058126      4.000000
  0.110308  0.074586  0.058126      4.000000
 -0.043136  0.020382  0.058126      4.000000
 -0.017562  0.029416  0.058126      4.000000
  0.008012  0.038450  0.058126      4.000000
  0.059160  0.083641  0.058126      2.000000
  0.084734  0.092675  0.058126      4.000000
  0.110308  0.101709  0.058126      4.000000
 -0.043136  0.047505  0.058126      4.000000
 -0.017562  0.056539  0.058126      4.000000
  0.008012  0.065573  0.058126      4.000000
  0.084734  0.119798  0.058126      2.000000
  0.110308  0.128832  0.058126      4.000000
 -0.043136  0.074628  0.058126      4.000000
 -0.017562  0.083662  0.058126      4.000000
  0.008012  0.092696  0.058126      4.000000
  0.110308  0.155954  0.058126      2.000000
 -0.043136  0.101750  0.058126      4.000000
 -0.017562  0.110784  0.058126      4.000000
  0.008012  0.119818  0.058126      4.000000
 -0.043136 -0.060986  0.058126      2.000000
 -0.017562 -0.051952  0.058126      4.000000
  0.008012 -0.042918  0.058126      4.000000
 -0.017562 -0.024829  0.058126      2.000000
  0.008012 -0.015795  0.058126      4.000000
  0.008012  0.011328  0.058126      2.000000
  0.044782  0.063312  0.077501      1.000000
  0.070355  0.072346  0.077501      4.000000
  0.095929  0.081380  0.077501      4.000000
  0.121503  0.090414  0.077501      4.000000
  0.070355  0.099469  0.077501      2.000000
  0.095929  0.108503  0.077501      4.000000
  0.121503  0.117537  0.077501      4.000000
 -0.031940  0.063333  0.077501      4.000000
 -0.006366  0.072367  0.077501      4.000000
  0.019208  0.081401  0.077501      2.000000
  0.095929  0.135626  0.077501      2.000000
  0.121503  0.144660  0.077501      4.000000
 -0.031940  0.090456  0.077501      4.000000
 -0.006366  0.099490  0.077501      2.000000
  0.121503  0.171782  0.077501      2.000000
 -0.031940  0.117579  0.077501      2.000000
 


--------------------------------------------------------------------------------------------------------




 Dimension of arrays:
   k-points           NKPTS =    116   k-points in BZ     NKDIM =    116   number of bands    NBANDS=     42
   number of dos      NEDOS =    301   number of ions     NIONS =      8
   non local maximal  LDIM  =      6   non local SUM 2l+1 LMDIM =     18
   total plane-waves  NPLWV = 157464
   max r-space proj   IRMAX =      1   max aug-charges    IRDMAX= 290389
   dimension x,y,z NGX =    54 NGY =   54 NGZ =   54
   dimension x,y,z NGXF=   108 NGYF=  108 NGZF=  108
   support grid    NGXF=   216 NGYF=  216 NGZF=  216
   ions per type =               2   4   2
   NGX,Y,Z   is equivalent  to a cutoff of  13.92, 13.92, 13.92 a.u.
   NGXF,Y,Z  is equivalent  to a cutoff of  27.83, 27.83, 27.83 a.u.

 SYSTEM =  routine with relax: pwdword             
 POSCAR =  EA72                                    

 Startparameter for this run:
   NWRITE =      2    write-flag & timer
   PREC   = acc       normal or accurate (medium, high low for compatibility)
   ISTART =      0    job   : 0-new  1-cont  2-samecut
   ICHARG =      2    charge: 1-file 2-atom 10-const
   ISPIN  =      1    spin polarized calculation?
   LNONCOLLINEAR =      F non collinear calculations
   LSORBIT =      F    spin-orbit coupling
   INIWAV =      1    electr: 0-lowe 1-rand  2-diag
   LASPH  =      T    aspherical Exc in radial PAW
   METAGGA=      F    non-selfconsistent MetaGGA calc.

 Electronic Relaxation 1
   ENCUT  =  600.0 eV  44.10 Ry    6.64 a.u.  12.89 12.89 12.89*2*pi/ulx,y,z
   ENINI  =  600.0     initial cutoff
   ENAUG  =  535.5 eV  augmentation charge cutoff
   NELM   =    100;   NELMIN=  6; NELMDL= -5     # of ELM steps 
   EDIFF  = 0.1E-08   stopping-criterion for ELM
   LREAL  =      F    real-space projection
   NLSPLINE    = F    spline interpolate recip. space projectors
   LCOMPAT=      F    compatible to vasp.4.4
   GGA_COMPAT  = T    GGA compatible to vasp.4.4-vasp.4.6
   LMAXPAW     = -100 max onsite density
   LMAXMIX     =    2 max onsite mixed and CHGCAR
   VOSKOWN=      0    Vosko Wilk Nusair interpolation
   ROPT   =    0.00000   0.00000   0.00000
 Ionic relaxation
   EDIFFG = 0.1E-07   stopping-criterion for IOM
   NSW    =      0    number of steps for IOM
   NBLOCK =      1;   KBLOCK =      1    inner block; outer block 
   IBRION =     -1    ionic relax: 0-MD 1-quasi-New 2-CG
   NFREE  =      0    steps in history (QN), initial steepest desc. (CG)
   ISIF   =     -1    stress and relaxation
   IWAVPR =     10    prediction:  0-non 1-charg 2-wave 3-comb
   ISYM   =      2    0-nonsym 1-usesym 2-fastsym
   LCORR  =      T    Harris-Foulkes like correction to forces

   POTIM  = 0.5000    time-step for ionic-motion
   TEIN   =    0.0    initial temperature
   TEBEG  =    0.0;   TEEND  =   0.0 temperature during run
   SMASS  =  -3.00    Nose mass-parameter (am)
   estimated Nose-frequenzy (Omega)   =  0.10E-29 period in steps = 0.13E+47 mass=  -0.951E-27a.u.
   SCALEE = 1.0000    scale energy and forces
   NPACO  =    256;   APACO  = 16.0  distance and # of slots for P.C.
   PSTRESS=    0.0 pullay stress

  Mass of Ions in am
   POMASS =  10.81 95.94 28.09
  Ionic Valenz
   ZVAL   =   3.00 14.00  4.00
  Atomic Wigner-Seitz radii
   RWIGS  =  -1.00 -1.00 -1.00
  virtual crystal weights 
   VCA    =   1.00  1.00  1.00
   NELECT =      70.0000    total number of electrons
   NUPDOWN=      -1.0000    fix difference up-down

 DOS related values:
   EMIN   =  10.00;   EMAX   =-10.00  energy-range for DOS
   EFERMI =   0.00
   ISMEAR =     0;   SIGMA  =   0.02  broadening in eV -4-tet -1-fermi 0-gaus

 Electronic relaxation 2 (details)
   IALGO  =     58    algorithm
   LDIAG  =      T    sub-space diagonalisation (order eigenvalues)
   LSUBROT=      F    optimize rotation matrix (better conditioning)
   TURBO    =      0    0=normal 1=particle mesh
   IRESTART =      0    0=no restart 2=restart with 2 vectors
   NREBOOT  =      0    no. of reboots
   NMIN     =      0    reboot dimension
   EREF     =   0.00    reference energy to select bands
   IMIX   =      4    mixing-type and parameters
     AMIX     =   0.40;   BMIX     =  1.00
     AMIX_MAG =   1.60;   BMIX_MAG =  1.00
     AMIN     =   0.10
     WC   =   100.;   INIMIX=   1;  MIXPRE=   1;  MAXMIX= -45

 Intra band minimization:
   WEIMIN = 0.0000     energy-eigenvalue tresh-hold
   EBREAK =  0.60E-11  absolut break condition
   DEPER  =   0.30     relativ break condition  

   TIME   =   0.40     timestep for ELM

  volume/ion in A,a.u.               =      23.73       160.12
  Fermi-wavevector in a.u.,A,eV,Ry     =   1.173986  2.218512 18.752139  1.378243
  Thomas-Fermi vector in A             =   2.310390
 
 Write flags
   LWAVE        =      T    write WAVECAR
   LDOWNSAMPLE  =      F    k-point downsampling of WAVECAR
   LCHARG       =      T    write CHGCAR
   LVTOT        =      F    write LOCPOT, total local potential
   LVHAR        =      F    write LOCPOT, Hartree potential only
   LELF         =      F    write electronic localiz. function (ELF)
   LORBIT       =      0    0 simple, 1 ext, 2 COOP (PROOUT), +10 PAW based schemes


 Dipole corrections
   LMONO  =      F    monopole corrections only (constant potential shift)
   LDIPOL =      F    correct potential (dipole corrections)
   IDIPOL =      0    1-x, 2-y, 3-z, 4-all directions 
   EPSILON=  1.0000000 bulk dielectric constant

 Exchange correlation treatment:
   GGA     =    --    GGA type
   LEXCH   =     8    internal setting for exchange type
   VOSKOWN=      0    Vosko Wilk Nusair interpolation
   LHFCALC =     F    Hartree Fock is set to
   LHFONE  =     F    Hartree Fock one center treatment
   AEXX    =    0.0000 exact exchange contribution

 Linear response parameters
   LEPSILON=     F    determine dielectric tensor
   LRPA    =     F    only Hartree local field effects (RPA)
   LNABLA  =     F    use nabla operator in PAW spheres
   LVEL    =     F    velocity operator in full k-point grid
   LINTERFAST=   F  fast interpolation
   KINTER  =     0    interpolate to denser k-point grid
   CSHIFT  =0.1000    complex shift for real part using Kramers Kronig
   OMEGAMAX=  -1.0    maximum frequency
   DEG_THRESHOLD= 0.2000000E-02 threshold for treating states as degnerate
   RTIME   =   -0.100 relaxation time in fs
  (WPLASMAI=    0.000 imaginary part of plasma frequency in eV, 0.658/RTIME)
   DFIELD  = 0.0000000 0.0000000 0.0000000 field for delta impulse in time
 
 Orbital magnetization related:
   ORBITALMAG=     F  switch on orbital magnetization
   LCHIMAG   =     F  perturbation theory with respect to B field
   DQ        =  0.001000  dq finite difference perturbation B field
   LLRAUG    =     F  two centre corrections for induced B field



--------------------------------------------------------------------------------------------------------


 Static calculation
 charge density and potential will be updated during run
 non-spin polarized calculation
 Conjugate gradient for all bands (Freysoldt, et al. PRB 79, 241103 (2009))
 preconditioned conjugated gradient                                        
 perform sub-space diagonalisation
    before iterative eigenvector-optimisation
 modified Broyden-mixing scheme, WC =      100.0
 initial mixing is a Kerker type mixing with AMIX =  0.4000 and BMIX =      1.0000
 Hartree-type preconditioning will be used
 using additional bands            7
 reciprocal scheme for non local part
 use partial core corrections
 no Harris-corrections to forces 
 use gradient corrections 
 use of overlap-Matrix (Vanderbilt PP)
 Gauss-broadening in eV      SIGMA  =   0.02


--------------------------------------------------------------------------------------------------------


  energy-cutoff  :      600.00
  volume of cell :      189.82
      direct lattice vectors                 reciprocal lattice vectors
     5.586036553  0.000000000 -3.227700091     0.179017805  0.063237650  0.000000000
    -1.860581511  5.267071369 -3.227700091     0.000000000  0.189858829  0.000000000
     0.000000000  0.000000000  6.451500000     0.089563014  0.126624743  0.155002713

  length of vectors
     6.451500000  6.451500000  6.451500000     0.189858829  0.189858829  0.219274257


 
 k-points in units of 2pi/SCALE and weight: EA                                      
   0.00000000  0.00000000  0.00000000       0.003
   0.02557397  0.00903395  0.00000000       0.010
   0.05114794  0.01806790  0.00000000       0.010
   0.07672192  0.02710185  0.00000000       0.010
   0.02557397  0.03615664  0.00000000       0.005
   0.05114794  0.04519059  0.00000000       0.010
   0.07672192  0.05422454  0.00000000       0.010
  -0.07672192  0.00002084  0.00000000       0.010
  -0.05114794  0.00905479  0.00000000       0.010
  -0.02557397  0.01808874  0.00000000       0.005
   0.05114794  0.07231328  0.00000000       0.005
   0.07672192  0.08134723  0.00000000       0.010
  -0.07672192  0.02714353  0.00000000       0.010
  -0.05114794  0.03617748  0.00000000       0.005
   0.07672192  0.10846992  0.00000000       0.005
  -0.07672192  0.05426622  0.00000000       0.005
   0.01119538  0.01582809  0.01937534       0.005
   0.03676935  0.02486204  0.01937534       0.010
   0.06234332  0.03389599  0.01937534       0.010
   0.08791729  0.04292994  0.01937534       0.010
  -0.06552654 -0.01127376  0.01937534       0.010
  -0.03995257 -0.00223981  0.01937534       0.010
  -0.01437860  0.00679414  0.01937534       0.010
   0.03676935  0.05198473  0.01937534       0.005
   0.06234332  0.06101868  0.01937534       0.010
   0.08791729  0.07005263  0.01937534       0.010
  -0.06552654  0.01584893  0.01937534       0.010
  -0.03995257  0.02488288  0.01937534       0.010
  -0.01437860  0.03391683  0.01937534       0.010
   0.06234332  0.08814137  0.01937534       0.005
   0.08791729  0.09717532  0.01937534       0.010
  -0.06552654  0.04297162  0.01937534       0.010
  -0.03995257  0.05200557  0.01937534       0.010
  -0.01437860  0.06103952  0.01937534       0.010
   0.08791729  0.12429801  0.01937534       0.005
  -0.06552654  0.07009431  0.01937534       0.010
  -0.03995257  0.07912826  0.01937534       0.010
  -0.01437860  0.08816221  0.01937534       0.010
  -0.06552654 -0.09264183  0.01937534       0.005
  -0.03995257 -0.08360788  0.01937534       0.010
  -0.01437860 -0.07457393  0.01937534       0.010
  -0.03995257 -0.05648519  0.01937534       0.005
  -0.01437860 -0.04745124  0.01937534       0.010
  -0.01437860 -0.02032855  0.01937534       0.005
   0.02239075  0.03165619  0.03875068       0.005
   0.04796473  0.04069014  0.03875068       0.010
   0.07353870  0.04972409  0.03875068       0.010
   0.09911267  0.05875804  0.03875068       0.010
  -0.05433116  0.00455434  0.03875068       0.010
  -0.02875719  0.01358829  0.03875068       0.010
  -0.00318322  0.02262224  0.03875068       0.010
   0.04796473  0.06781283  0.03875068       0.005
   0.07353870  0.07684678  0.03875068       0.010
   0.09911267  0.08588073  0.03875068       0.010
  -0.05433116  0.03167703  0.03875068       0.010
  -0.02875719  0.04071098  0.03875068       0.010
  -0.00318322  0.04974493  0.03875068       0.010
   0.07353870  0.10396947  0.03875068       0.005
   0.09911267  0.11300342  0.03875068       0.010
  -0.05433116  0.05879972  0.03875068       0.010
  -0.02875719  0.06783367  0.03875068       0.010
  -0.00318322  0.07686762  0.03875068       0.010
   0.09911267  0.14012611  0.03875068       0.005
  -0.05433116  0.08592240  0.03875068       0.010
  -0.02875719  0.09495635  0.03875068       0.010
  -0.00318322  0.10399031  0.03875068       0.010
  -0.05433116 -0.07681373  0.03875068       0.005
  -0.02875719 -0.06777978  0.03875068       0.010
  -0.00318322 -0.05874583  0.03875068       0.010
  -0.02875719 -0.04065709  0.03875068       0.005
  -0.00318322 -0.03162314  0.03875068       0.010
  -0.00318322 -0.00450045  0.03875068       0.005
   0.03358613  0.04748428  0.05812602       0.005
   0.05916010  0.05651823  0.05812602       0.010
   0.08473407  0.06555218  0.05812602       0.010
   0.11030805  0.07458613  0.05812602       0.010
  -0.04313579  0.02038243  0.05812602       0.010
  -0.01756181  0.02941638  0.05812602       0.010
   0.00801216  0.03845033  0.05812602       0.010
   0.05916010  0.08364092  0.05812602       0.005
   0.08473407  0.09267487  0.05812602       0.010
   0.11030805  0.10170882  0.05812602       0.010
  -0.04313579  0.04750512  0.05812602       0.010
  -0.01756181  0.05653907  0.05812602       0.010
   0.00801216  0.06557302  0.05812602       0.010
   0.08473407  0.11979756  0.05812602       0.005
   0.11030805  0.12883151  0.05812602       0.010
  -0.04313579  0.07462781  0.05812602       0.010
  -0.01756181  0.08366176  0.05812602       0.010
   0.00801216  0.09269571  0.05812602       0.010
   0.11030805  0.15595420  0.05812602       0.005
  -0.04313579  0.10175050  0.05812602       0.010
  -0.01756181  0.11078445  0.05812602       0.010
   0.00801216  0.11981840  0.05812602       0.010
  -0.04313579 -0.06098564  0.05812602       0.005
  -0.01756181 -0.05195169  0.05812602       0.010
   0.00801216 -0.04291774  0.05812602       0.010
  -0.01756181 -0.02482900  0.05812602       0.005
   0.00801216 -0.01579505  0.05812602       0.010
   0.00801216  0.01132764  0.05812602       0.005
   0.04478151  0.06331237  0.07750136       0.003
   0.07035548  0.07234632  0.07750136       0.010
   0.09592945  0.08138027  0.07750136       0.010
   0.12150342  0.09041422  0.07750136       0.010
   0.07035548  0.09946901  0.07750136       0.005
   0.09592945  0.10850296  0.07750136       0.010
   0.12150342  0.11753691  0.07750136       0.010
  -0.03194041  0.06333321  0.07750136       0.010
  -0.00636644  0.07236716  0.07750136       0.010
   0.01920753  0.08140111  0.07750136       0.005
   0.09592945  0.13562565  0.07750136       0.005
   0.12150342  0.14465960  0.07750136       0.010
  -0.03194041  0.09045590  0.07750136       0.010
  -0.00636644  0.09948985  0.07750136       0.005
   0.12150342  0.17178229  0.07750136       0.005
  -0.03194041  0.11757859  0.07750136       0.005
 
 k-points in reciprocal lattice and weights: EA                                      
   0.00000000  0.00000000  0.00000000       0.003
   0.14285714  0.00000000  0.00000000       0.010
   0.28571429  0.00000000  0.00000000       0.010
   0.42857143  0.00000000  0.00000000       0.010
   0.14285714  0.14285714  0.00000000       0.005
   0.28571429  0.14285714  0.00000000       0.010
   0.42857143  0.14285714  0.00000000       0.010
  -0.42857143  0.14285714  0.00000000       0.010
  -0.28571429  0.14285714  0.00000000       0.010
  -0.14285714  0.14285714  0.00000000       0.005
   0.28571429  0.28571429  0.00000000       0.005
   0.42857143  0.28571429  0.00000000       0.010
  -0.42857143  0.28571429  0.00000000       0.010
  -0.28571429  0.28571429  0.00000000       0.005
   0.42857143  0.42857143  0.00000000       0.005
  -0.42857143  0.42857143  0.00000000       0.005
   0.00000000  0.00000000  0.12500000       0.005
   0.14285714  0.00000000  0.12500000       0.010
   0.28571429 -0.00000000  0.12500000       0.010
   0.42857143 -0.00000000  0.12500000       0.010
  -0.42857143  0.00000000  0.12500000       0.010
  -0.28571429 -0.00000000  0.12500000       0.010
  -0.14285714  0.00000000  0.12500000       0.010
   0.14285714  0.14285714  0.12500000       0.005
   0.28571429  0.14285714  0.12500000       0.010
   0.42857143  0.14285714  0.12500000       0.010
  -0.42857143  0.14285714  0.12500000       0.010
  -0.28571429  0.14285714  0.12500000       0.010
  -0.14285714  0.14285714  0.12500000       0.010
   0.28571429  0.28571429  0.12500000       0.005
   0.42857143  0.28571429  0.12500000       0.010
  -0.42857143  0.28571429  0.12500000       0.010
  -0.28571429  0.28571429  0.12500000       0.010
  -0.14285714  0.28571429  0.12500000       0.010
   0.42857143  0.42857143  0.12500000       0.005
  -0.42857143  0.42857143  0.12500000       0.010
  -0.28571429  0.42857143  0.12500000       0.010
  -0.14285714  0.42857143  0.12500000       0.010
  -0.42857143 -0.42857143  0.12500000       0.005
  -0.28571429 -0.42857143  0.12500000       0.010
  -0.14285714 -0.42857143  0.12500000       0.010
  -0.28571429 -0.28571429  0.12500000       0.005
  -0.14285714 -0.28571429  0.12500000       0.010
  -0.14285714 -0.14285714  0.12500000       0.005
   0.00000000  0.00000000  0.25000000       0.005
   0.14285714  0.00000000  0.25000000       0.010
   0.28571429  0.00000000  0.25000000       0.010
   0.42857143  0.00000000  0.25000000       0.010
  -0.42857143  0.00000000  0.25000000       0.010
  -0.28571429  0.00000000  0.25000000       0.010
  -0.14285714  0.00000000  0.25000000       0.010
   0.14285714  0.14285714  0.25000000       0.005
   0.28571429  0.14285714  0.25000000       0.010
   0.42857143  0.14285714  0.25000000       0.010
  -0.42857143  0.14285714  0.25000000       0.010
  -0.28571429  0.14285714  0.25000000       0.010
  -0.14285714  0.14285714  0.25000000       0.010
   0.28571429  0.28571429  0.25000000       0.005
   0.42857143  0.28571429  0.25000000       0.010
  -0.42857143  0.28571429  0.25000000       0.010
  -0.28571429  0.28571429  0.25000000       0.010
  -0.14285714  0.28571429  0.25000000       0.010
   0.42857143  0.42857143  0.25000000       0.005
  -0.42857143  0.42857143  0.25000000       0.010
  -0.28571429  0.42857143  0.25000000       0.010
  -0.14285714  0.42857143  0.25000000       0.010
  -0.42857143 -0.42857143  0.25000000       0.005
  -0.28571429 -0.42857143  0.25000000       0.010
  -0.14285714 -0.42857143  0.25000000       0.010
  -0.28571429 -0.28571429  0.25000000       0.005
  -0.14285714 -0.28571429  0.25000000       0.010
  -0.14285714 -0.14285714  0.25000000       0.005
  -0.00000000  0.00000000  0.37500000       0.005
   0.14285714  0.00000000  0.37500000       0.010
   0.28571429  0.00000000  0.37500000       0.010
   0.42857143  0.00000000  0.37500000       0.010
  -0.42857143  0.00000000  0.37500000       0.010
  -0.28571429  0.00000000  0.37500000       0.010
  -0.14285714  0.00000000  0.37500000       0.010
   0.14285714  0.14285714  0.37500000       0.005
   0.28571429  0.14285714  0.37500000       0.010
   0.42857143  0.14285714  0.37500000       0.010
  -0.42857143  0.14285714  0.37500000       0.010
  -0.28571429  0.14285714  0.37500000       0.010
  -0.14285714  0.14285714  0.37500000       0.010
   0.28571429  0.28571429  0.37500000       0.005
   0.42857143  0.28571429  0.37500000       0.010
  -0.42857143  0.28571429  0.37500000       0.010
  -0.28571429  0.28571429  0.37500000       0.010
  -0.14285714  0.28571429  0.37500000       0.010
   0.42857143  0.42857143  0.37500000       0.005
  -0.42857143  0.42857143  0.37500000       0.010
  -0.28571429  0.42857143  0.37500000       0.010
  -0.14285714  0.42857143  0.37500000       0.010
  -0.42857143 -0.42857143  0.37500000       0.005
  -0.28571429 -0.42857143  0.37500000       0.010
  -0.14285714 -0.42857143  0.37500000       0.010
  -0.28571429 -0.28571429  0.37500000       0.005
  -0.14285714 -0.28571429  0.37500000       0.010
  -0.14285714 -0.14285714  0.37500000       0.005
   0.00000000  0.00000000  0.50000000       0.003
   0.14285714  0.00000000  0.50000000       0.010
   0.28571429  0.00000000  0.50000000       0.010
   0.42857143  0.00000000  0.50000000       0.010
   0.14285714  0.14285714  0.50000000       0.005
   0.28571429  0.14285714  0.50000000       0.010
   0.42857143  0.14285714  0.50000000       0.010
  -0.42857143  0.14285714  0.50000000       0.010
  -0.28571429  0.14285714  0.50000000       0.010
  -0.14285714  0.14285714  0.50000000       0.005
   0.28571429  0.28571429  0.50000000       0.005
   0.42857143  0.28571429  0.50000000       0.010
  -0.42857143  0.28571429  0.50000000       0.010
  -0.28571429  0.28571429  0.50000000       0.005
   0.42857143  0.42857143  0.50000000       0.005
  -0.42857143  0.42857143  0.50000000       0.005
 
 position of ions in fractional coordinates (direct lattice) 
   0.00000000  0.50000000  0.50000000
   0.50000000  0.00000000  0.50000000
   0.25000000  0.25000000  0.00000000
   0.25000000  0.75000000  0.50000000
   0.75000000  0.75000000  0.00000000
   0.75000000  0.25000000  0.50000000
   0.00000000  0.00000000  0.00000000
   0.50000000  0.50000000  0.00000000
 
 position of ions in cartesian coordinates  (Angst):
  -0.93029076  2.63353568  1.61189995
   2.79301828  0.00000000  1.61189995
   0.93136376  1.31676784 -1.61385005
   0.00107300  3.95030353 -0.00195009
   2.79409128  3.95030353 -4.84155014
   3.72438204  1.31676784 -0.00195009
   0.00000000  0.00000000  0.00000000
   1.86272752  2.63353568 -3.22770009
 


--------------------------------------------------------------------------------------------------------


 k-point   1 :   0.0000 0.0000 0.0000  plane waves:    6327
 k-point   2 :   0.1429 0.0000 0.0000  plane waves:    6310
 k-point   3 :   0.2857 0.0000 0.0000  plane waves:    6339
 k-point   4 :   0.4286 0.0000 0.0000  plane waves:    6346
 k-point   5 :   0.1429 0.1429 0.0000  plane waves:    6316
 k-point   6 :   0.2857 0.1429 0.0000  plane waves:    6334
 k-point   7 :   0.4286 0.1429 0.0000  plane waves:    6340
 k-point   8 :  -0.4286 0.1429 0.0000  plane waves:    6322
 k-point   9 :  -0.2857 0.1429 0.0000  plane waves:    6330
 k-point  10 :  -0.1429 0.1429 0.0000  plane waves:    6322
 k-point  11 :   0.2857 0.2857 0.0000  plane waves:    6353
 k-point  12 :   0.4286 0.2857 0.0000  plane waves:    6356
 k-point  13 :  -0.4286 0.2857 0.0000  plane waves:    6334
 k-point  14 :  -0.2857 0.2857 0.0000  plane waves:    6338
 k-point  15 :   0.4286 0.4286 0.0000  plane waves:    6351
 k-point  16 :  -0.4286 0.4286 0.0000  plane waves:    6340
 k-point  17 :   0.0000 0.0000 0.1250  plane waves:    6314
 k-point  18 :   0.1429 0.0000 0.1250  plane waves:    6322
 k-point  19 :   0.2857-0.0000 0.1250  plane waves:    6325
 k-point  20 :   0.4286-0.0000 0.1250  plane waves:    6338
 k-point  21 :  -0.4286 0.0000 0.1250  plane waves:    6332
 k-point  22 :  -0.2857-0.0000 0.1250  plane waves:    6317
 k-point  23 :  -0.1429 0.0000 0.1250  plane waves:    6314
 k-point  24 :   0.1429 0.1429 0.1250  plane waves:    6335
 k-point  25 :   0.2857 0.1429 0.1250  plane waves:    6329
 k-point  26 :   0.4286 0.1429 0.1250  plane waves:    6336
 k-point  27 :  -0.4286 0.1429 0.1250  plane waves:    6332
 k-point  28 :  -0.2857 0.1429 0.1250  plane waves:    6331
 k-point  29 :  -0.1429 0.1429 0.1250  plane waves:    6308
 k-point  30 :   0.2857 0.2857 0.1250  plane waves:    6347
 k-point  31 :   0.4286 0.2857 0.1250  plane waves:    6339
 k-point  32 :  -0.4286 0.2857 0.1250  plane waves:    6327
 k-point  33 :  -0.2857 0.2857 0.1250  plane waves:    6328
 k-point  34 :  -0.1429 0.2857 0.1250  plane waves:    6330
 k-point  35 :   0.4286 0.4286 0.1250  plane waves:    6350
 k-point  36 :  -0.4286 0.4286 0.1250  plane waves:    6336
 k-point  37 :  -0.2857 0.4286 0.1250  plane waves:    6331
 k-point  38 :  -0.1429 0.4286 0.1250  plane waves:    6346
 k-point  39 :  -0.4286-0.4286 0.1250  plane waves:    6346
 k-point  40 :  -0.2857-0.4286 0.1250  plane waves:    6335
 k-point  41 :  -0.1429-0.4286 0.1250  plane waves:    6323
 k-point  42 :  -0.2857-0.2857 0.1250  plane waves:    6336
 k-point  43 :  -0.1429-0.2857 0.1250  plane waves:    6329
 k-point  44 :  -0.1429-0.1429 0.1250  plane waves:    6313
 k-point  45 :   0.0000 0.0000 0.2500  plane waves:    6302
 k-point  46 :   0.1429 0.0000 0.2500  plane waves:    6329
 k-point  47 :   0.2857 0.0000 0.2500  plane waves:    6339
 k-point  48 :   0.4286 0.0000 0.2500  plane waves:    6345
 k-point  49 :  -0.4286 0.0000 0.2500  plane waves:    6334
 k-point  50 :  -0.2857 0.0000 0.2500  plane waves:    6320
 k-point  51 :  -0.1429 0.0000 0.2500  plane waves:    6319
 k-point  52 :   0.1429 0.1429 0.2500  plane waves:    6340
 k-point  53 :   0.2857 0.1429 0.2500  plane waves:    6343
 k-point  54 :   0.4286 0.1429 0.2500  plane waves:    6340
 k-point  55 :  -0.4286 0.1429 0.2500  plane waves:    6324
 k-point  56 :  -0.2857 0.1429 0.2500  plane waves:    6327
 k-point  57 :  -0.1429 0.1429 0.2500  plane waves:    6332
 k-point  58 :   0.2857 0.2857 0.2500  plane waves:    6330
 k-point  59 :   0.4286 0.2857 0.2500  plane waves:    6349
 k-point  60 :  -0.4286 0.2857 0.2500  plane waves:    6337
 k-point  61 :  -0.2857 0.2857 0.2500  plane waves:    6345
 k-point  62 :  -0.1429 0.2857 0.2500  plane waves:    6339
 k-point  63 :   0.4286 0.4286 0.2500  plane waves:    6350
 k-point  64 :  -0.4286 0.4286 0.2500  plane waves:    6334
 k-point  65 :  -0.2857 0.4286 0.2500  plane waves:    6353
 k-point  66 :  -0.1429 0.4286 0.2500  plane waves:    6339
 k-point  67 :  -0.4286-0.4286 0.2500  plane waves:    6342
 k-point  68 :  -0.2857-0.4286 0.2500  plane waves:    6326
 k-point  69 :  -0.1429-0.4286 0.2500  plane waves:    6325
 k-point  70 :  -0.2857-0.2857 0.2500  plane waves:    6331
 k-point  71 :  -0.1429-0.2857 0.2500  plane waves:    6326
 k-point  72 :  -0.1429-0.1429 0.2500  plane waves:    6310
 k-point  73 :  -0.0000 0.0000 0.3750  plane waves:    6320
 k-point  74 :   0.1429 0.0000 0.3750  plane waves:    6342
 k-point  75 :   0.2857 0.0000 0.3750  plane waves:    6336
 k-point  76 :   0.4286 0.0000 0.3750  plane waves:    6342
 k-point  77 :  -0.4286 0.0000 0.3750  plane waves:    6322
 k-point  78 :  -0.2857 0.0000 0.3750  plane waves:    6323
 k-point  79 :  -0.1429 0.0000 0.3750  plane waves:    6323
 k-point  80 :   0.1429 0.1429 0.3750  plane waves:    6340
 k-point  81 :   0.2857 0.1429 0.3750  plane waves:    6339
 k-point  82 :   0.4286 0.1429 0.3750  plane waves:    6347
 k-point  83 :  -0.4286 0.1429 0.3750  plane waves:    6337
 k-point  84 :  -0.2857 0.1429 0.3750  plane waves:    6335
 k-point  85 :  -0.1429 0.1429 0.3750  plane waves:    6341
 k-point  86 :   0.2857 0.2857 0.3750  plane waves:    6348
 k-point  87 :   0.4286 0.2857 0.3750  plane waves:    6349
 k-point  88 :  -0.4286 0.2857 0.3750  plane waves:    6350
 k-point  89 :  -0.2857 0.2857 0.3750  plane waves:    6350
 k-point  90 :  -0.1429 0.2857 0.3750  plane waves:    6349
 k-point  91 :   0.4286 0.4286 0.3750  plane waves:    6340
 k-point  92 :  -0.4286 0.4286 0.3750  plane waves:    6344
 k-point  93 :  -0.2857 0.4286 0.3750  plane waves:    6347
 k-point  94 :  -0.1429 0.4286 0.3750  plane waves:    6339
 k-point  95 :  -0.4286-0.4286 0.3750  plane waves:    6339
 k-point  96 :  -0.2857-0.4286 0.3750  plane waves:    6325
 k-point  97 :  -0.1429-0.4286 0.3750  plane waves:    6330
 k-point  98 :  -0.2857-0.2857 0.3750  plane waves:    6330
 k-point  99 :  -0.1429-0.2857 0.3750  plane waves:    6333
 k-point 100 :  -0.1429-0.1429 0.3750  plane waves:    6330
 k-point 101 :   0.0000 0.0000 0.5000  plane waves:    6346
 k-point 102 :   0.1429 0.0000 0.5000  plane waves:    6337
 k-point 103 :   0.2857 0.0000 0.5000  plane waves:    6329
 k-point 104 :   0.4286 0.0000 0.5000  plane waves:    6334
 k-point 105 :   0.1429 0.1429 0.5000  plane waves:    6339
 k-point 106 :   0.2857 0.1429 0.5000  plane waves:    6335
 k-point 107 :   0.4286 0.1429 0.5000  plane waves:    6334
 k-point 108 :  -0.4286 0.1429 0.5000  plane waves:    6345
 k-point 109 :  -0.2857 0.1429 0.5000  plane waves:    6339
 k-point 110 :  -0.1429 0.1429 0.5000  plane waves:    6328
 k-point 111 :   0.2857 0.2857 0.5000  plane waves:    6343
 k-point 112 :   0.4286 0.2857 0.5000  plane waves:    6331
 k-point 113 :  -0.4286 0.2857 0.5000  plane waves:    6348
 k-point 114 :  -0.2857 0.2857 0.5000  plane waves:    6330
 k-point 115 :   0.4286 0.4286 0.5000  plane waves:    6336
 k-point 116 :  -0.4286 0.4286 0.5000  plane waves:    6352

 maximum and minimum number of plane-waves per node :      3192     3135

 maximum number of plane-waves:      6356
 maximum index in each direction: 
   IXMAX=   13   IYMAX=   13   IZMAX=   12
   IXMIN=  -13   IYMIN=  -13   IZMIN=  -13


 parallel 3D FFT for wavefunctions:
    minimum data exchange during FFTs selected (reduces bandwidth)
 parallel 3D FFT for charge:
    minimum data exchange during FFTs selected (reduces bandwidth)


 total amount of memory used by VASP MPI-rank0   347532. kBytes
=======================================================================

   base      :      30000. kBytes
   nonl-proj :     160064. kBytes
   fftplans  :      17766. kBytes
   grid      :      13358. kBytes
   one-center:         62. kBytes
   wavefun   :     126282. kBytes
 
     INWAV:  cpu time    0.0001: real time    0.0001
 Broyden mixing: mesh for mixing (old mesh)
   NGX = 25   NGY = 25   NGZ = 25
  (NGX  =108   NGY  =108   NGZ  =108)
  gives a total of  15625 points

 initial charge density was supplied:
 charge density of overlapping atoms calculated
 number of electron      70.0000000 magnetization 
 keeping initial charge density in first step


--------------------------------------------------------------------------------------------------------


 Maximum index for augmentation-charges        23492 (set IRDMAX)


--------------------------------------------------------------------------------------------------------


 First call to EWALD:  gamma=   0.308
 Maximum number of real-space cells 3x 3x 3
 Maximum number of reciprocal cells 3x 3x 3

    FEWALD:  cpu time    0.0089: real time    0.0090


--------------------------------------- Iteration      1(   1)  ---------------------------------------


    POTLOK:  cpu time    0.1886: real time    0.1904
    SETDIJ:  cpu time    0.6491: real time    0.6536
    TRIAL :  cpu time   20.5777: real time   20.7737
    CORREC:  cpu time    0.0015: real time    0.0015
    --------------------------------------------
      LOOP:  cpu time   21.4761: real time   21.7217

 eigenvalue-minimisations  : 11136
 total energy-change (2. order) : 0.5867057E+03  (-0.4463502E+04)
 number of electron      70.0000000 magnetization 
 augmentation part       70.0000000 magnetization 

 Free energy of the ion-electron system (eV)
  ---------------------------------------------------
  alpha Z        PSCENC =       217.29395884
  Ewald energy   TEWEN  =     -5055.61006098
  -Hartree energ DENC   =     -2308.72188233
  -exchange      EXHF   =         0.00000000
  -V(xc)+E(xc)   XCENC  =       302.51868737
  PAW double counting   =      6194.65714934    -6160.44322926
  entropy T*S    EENTRO =        -0.00057815
  eigenvalues    EBANDS =      -400.59071565
  atomic energy  EATOM  =      7797.60240368
  ---------------------------------------------------
  free energy    TOTEN  =       586.70573286 eV

  energy without entropy =      586.70631101  energy(sigma->0) =      586.70602193


--------------------------------------------------------------------------------------------------------




--------------------------------------- Iteration      1(   2)  ---------------------------------------


    TRIAL :  cpu time   22.8251: real time   23.2501
    CORREC:  cpu time    0.0013: real time    0.0014
    --------------------------------------------
      LOOP:  cpu time   22.8287: real time   23.2549

 eigenvalue-minimisations  : 11154
 total energy-change (2. order) :-0.7014568E+03  (-0.6861580E+03)
 number of electron      70.0000000 magnetization 
 augmentation part       70.0000000 magnetization 

 Free energy of the ion-electron system (eV)
  ---------------------------------------------------
  alpha Z        PSCENC =       217.29395884
  Ewald energy   TEWEN  =     -5055.61006098
  -Hartree energ DENC   =     -2308.72188233
  -exchange      EXHF   =         0.00000000
  -V(xc)+E(xc)   XCENC  =       302.51868737
  PAW double counting   =      6194.65714934    -6160.44322926
  entropy T*S    EENTRO =        -0.00122448
  eigenvalues    EBANDS =     -1102.04691869
  atomic energy  EATOM  =      7797.60240368
  ---------------------------------------------------
  free energy    TOTEN  =      -114.75111650 eV

  energy without entropy =     -114.74989203  energy(sigma->0) =     -114.75050427


--------------------------------------------------------------------------------------------------------




--------------------------------------- Iteration      1(   3)  ---------------------------------------


    TRIAL :  cpu time   25.5308: real time   26.1840
    CORREC:  cpu time    0.0014: real time    0.0014
    --------------------------------------------
      LOOP:  cpu time   25.5348: real time   26.1882

 eigenvalue-minimisations  : 13758
 total energy-change (2. order) :-0.3108445E+02  (-0.2905764E+02)
 number of electron      70.0000000 magnetization 
 augmentation part       70.0000000 magnetization 

 Free energy of the ion-electron system (eV)
  ---------------------------------------------------
  alpha Z        PSCENC =       217.29395884
  Ewald energy   TEWEN  =     -5055.61006098
  -Hartree energ DENC   =     -2308.72188233
  -exchange      EXHF   =         0.00000000
  -V(xc)+E(xc)   XCENC  =       302.51868737
  PAW double counting   =      6194.65714934    -6160.44322926
  entropy T*S    EENTRO =        -0.00247007
  eigenvalues    EBANDS =     -1133.13012805
  atomic energy  EATOM  =      7797.60240368
  ---------------------------------------------------
  free energy    TOTEN  =      -145.83557146 eV

  energy without entropy =     -145.83310139  energy(sigma->0) =     -145.83433642


--------------------------------------------------------------------------------------------------------




--------------------------------------- Iteration      1(   4)  ---------------------------------------


    TRIAL :  cpu time   24.4259: real time   25.0050
    CORREC:  cpu time    0.0014: real time    0.0014
    --------------------------------------------
      LOOP:  cpu time   24.4278: real time   25.0093

 eigenvalue-minimisations  : 12912
 total energy-change (2. order) :-0.1219663E+01  (-0.1152856E+01)
 number of electron      70.0000000 magnetization 
 augmentation part       70.0000000 magnetization 

 Free energy of the ion-electron system (eV)
  ---------------------------------------------------
  alpha Z        PSCENC =       217.29395884
  Ewald energy   TEWEN  =     -5055.61006098
  -Hartree energ DENC   =     -2308.72188233
  -exchange      EXHF   =         0.00000000
  -V(xc)+E(xc)   XCENC  =       302.51868737
  PAW double counting   =      6194.65714934    -6160.44322926
  entropy T*S    EENTRO =        -0.00257210
  eigenvalues    EBANDS =     -1134.34968930
  atomic energy  EATOM  =      7797.60240368
  ---------------------------------------------------
  free energy    TOTEN  =      -147.05523474 eV

  energy without entropy =     -147.05266264  energy(sigma->0) =     -147.05394869


--------------------------------------------------------------------------------------------------------




--------------------------------------- Iteration      1(   5)  ---------------------------------------


    TRIAL :  cpu time   25.7756: real time   26.4036
    CORREC:  cpu time    0.0014: real time    0.0014
    CHARGE:  cpu time    1.8059: real time    1.8199
    --------------------------------------------
      LOOP:  cpu time   27.5839: real time   28.2276

 eigenvalue-minimisations  : 13542
 total energy-change (2. order) :-0.4661091E-01  (-0.4504969E-01)
 number of electron      70.0000000 magnetization 
 augmentation part        7.7046800 magnetization 

 Free energy of the ion-electron system (eV)
  ---------------------------------------------------
  alpha Z        PSCENC =       217.29395884
  Ewald energy   TEWEN  =     -5055.61006098
  -Hartree energ DENC   =     -2308.72188233
  -exchange      EXHF   =         0.00000000
  -V(xc)+E(xc)   XCENC  =       302.51868737
  PAW double counting   =      6194.65714934    -6160.44322926
  entropy T*S    EENTRO =        -0.00257835
  eigenvalues    EBANDS =     -1134.39629396
  atomic energy  EATOM  =      7797.60240368
  ---------------------------------------------------
  free energy    TOTEN  =      -147.10184565 eV

  energy without entropy =     -147.09926730  energy(sigma->0) =     -147.10055648


--------------------------------------------------------------------------------------------------------




--------------------------------------- Iteration      1(   6)  ---------------------------------------


    POTLOK:  cpu time    0.1762: real time    0.1773
    SETDIJ:  cpu time    0.6021: real time    0.6059
    TRIAL :  cpu time   17.1770: real time   17.3807
    CORREC:  cpu time    6.4193: real time    6.4720
    CHARGE:  cpu time    1.9911: real time    2.0059
    --------------------------------------------
      LOOP:  cpu time   26.3676: real time   26.6442

 eigenvalue-minimisations  :     0
 total energy-change (2. order) : 0.5108622E+02  (-0.1590404E+02)
 number of electron      70.0000000 magnetization 
 augmentation part        9.1394584 magnetization 

 Free energy of the ion-electron system (eV)
  ---------------------------------------------------
  alpha Z        PSCENC =       217.29395884
  Ewald energy   TEWEN  =     -5055.61006098
  -Hartree energ DENC   =     -1919.87014254
  -exchange      EXHF   =         0.00000000
  -V(xc)+E(xc)   XCENC  =       295.73862797
  PAW double counting   =      6876.89732873    -6871.50877215
  entropy T*S    EENTRO =        -0.00270586
  eigenvalues    EBANDS =     -1436.55638786
  atomic energy  EATOM  =      7797.60240368
  ---------------------------------------------------
  free energy    TOTEN  =       -96.01562266 eV

  energy without entropy =      -96.01291680  energy(sigma->0) =      -96.01426973


--------------------------------------------------------------------------------------------------------




--------------------------------------- Iteration      1(   7)  ---------------------------------------


    POTLOK:  cpu time    0.1512: real time    0.1522
    SETDIJ:  cpu time    0.6169: real time    0.6210
    TRIAL :  cpu time   20.5895: real time   20.9992
    CORREC:  cpu time    6.7751: real time    6.8313
    CHARGE:  cpu time    1.8829: real time    1.8970
    --------------------------------------------
      LOOP:  cpu time   30.0470: real time   30.5333

 eigenvalue-minimisations  :     0
 total energy-change (2. order) :-0.1691087E+02  (-0.2699250E+01)
 number of electron      70.0000000 magnetization 
 augmentation part        9.2561714 magnetization 

 Free energy of the ion-electron system (eV)
  ---------------------------------------------------
  alpha Z        PSCENC =       217.29395884
  Ewald energy   TEWEN  =     -5055.61006098
  -Hartree energ DENC   =     -2135.44551597
  -exchange      EXHF   =         0.00000000
  -V(xc)+E(xc)   XCENC  =       304.34046745
  PAW double counting   =      6860.84156277    -6845.43661364
  entropy T*S    EENTRO =        -0.00263645
  eigenvalues    EBANDS =     -1256.50998836
  atomic energy  EATOM  =      7797.60240368
  ---------------------------------------------------
  free energy    TOTEN  =      -112.92649207 eV

  energy without entropy =     -112.92385562  energy(sigma->0) =     -112.92517384


--------------------------------------------------------------------------------------------------------




--------------------------------------- Iteration      1(   8)  ---------------------------------------


    POTLOK:  cpu time    0.1466: real time    0.1476
    SETDIJ:  cpu time    0.5969: real time    0.6010
    TRIAL :  cpu time   20.6284: real time   21.0144
    CORREC:  cpu time    7.4936: real time    7.5518
    CHARGE:  cpu time    2.1848: real time    2.2012
    --------------------------------------------
      LOOP:  cpu time   31.3121: real time   31.7800

 eigenvalue-minimisations  :     0
 total energy-change (2. order) :-0.2700313E+01  (-0.7423698E+00)
 number of electron      70.0000001 magnetization 
 augmentation part        9.1761367 magnetization 

 Free energy of the ion-electron system (eV)
  ---------------------------------------------------
  alpha Z        PSCENC =       217.29395884
  Ewald energy   TEWEN  =     -5055.61006098
  -Hartree energ DENC   =     -2201.82561366
  -exchange      EXHF   =         0.00000000
  -V(xc)+E(xc)   XCENC  =       306.63446802
  PAW double counting   =      6877.39592190    -6858.29412504
  entropy T*S    EENTRO =        -0.00220015
  eigenvalues    EBANDS =     -1198.82112175
  atomic energy  EATOM  =      7797.60240368
  ---------------------------------------------------
  free energy    TOTEN  =      -115.62680543 eV

  energy without entropy =     -115.62460528  energy(sigma->0) =     -115.62570535


--------------------------------------------------------------------------------------------------------




--------------------------------------- Iteration      1(   9)  ---------------------------------------


    POTLOK:  cpu time    0.1479: real time    0.1489
    SETDIJ:  cpu time    0.6148: real time    0.6184
    TRIAL :  cpu time   20.2652: real time   20.5720
    CORREC:  cpu time    7.2580: real time    7.3154
    CHARGE:  cpu time    2.8928: real time    2.9133
    --------------------------------------------
      LOOP:  cpu time   31.1884: real time   31.5784

 eigenvalue-minimisations  :     0
 total energy-change (2. order) :-0.7360113E+00  (-0.3467918E+00)
 number of electron      70.0000001 magnetization 
 augmentation part        9.1570608 magnetization 

 Free energy of the ion-electron system (eV)
  ---------------------------------------------------
  alpha Z        PSCENC =       217.29395884
  Ewald energy   TEWEN  =     -5055.61006098
  -Hartree energ DENC   =     -2202.11248469
  -exchange      EXHF   =         0.00000000
  -V(xc)+E(xc)   XCENC  =       306.54916556
  PAW double counting   =      6867.49413998    -6846.96511519
  entropy T*S    EENTRO =        -0.00246010
  eigenvalues    EBANDS =     -1200.61262380
  atomic energy  EATOM  =      7797.60240368
  ---------------------------------------------------
  free energy    TOTEN  =      -116.36281675 eV

  energy without entropy =     -116.36035665  energy(sigma->0) =     -116.36158670


--------------------------------------------------------------------------------------------------------




--------------------------------------- Iteration      1(  10)  ---------------------------------------


    POTLOK:  cpu time    0.1514: real time    0.1524
    SETDIJ:  cpu time    0.6087: real time    0.6129
    TRIAL :  cpu time   18.8632: real time   19.0302
    CORREC:  cpu time    8.0667: real time    8.2627
    CHARGE:  cpu time    2.3348: real time    2.3524
    --------------------------------------------
      LOOP:  cpu time   30.0264: real time   30.4122

 eigenvalue-minimisations  :     0
 total energy-change (2. order) :-0.3468978E+00  (-0.1278936E+00)
 number of electron      70.0000001 magnetization 
 augmentation part        9.2000918 magnetization 

 Free energy of the ion-electron system (eV)
  ---------------------------------------------------
  alpha Z        PSCENC =       217.29395884
  Ewald energy   TEWEN  =     -5055.61006098
  -Hartree energ DENC   =     -2197.89871804
  -exchange      EXHF   =         0.00000000
  -V(xc)+E(xc)   XCENC  =       306.50254372
  PAW double counting   =      6871.40028581    -6849.62533396
  entropy T*S    EENTRO =        -0.00238360
  eigenvalues    EBANDS =     -1206.37233350
  atomic energy  EATOM  =      7797.60240368
  ---------------------------------------------------
  free energy    TOTEN  =      -116.70971452 eV

  energy without entropy =     -116.70733092  energy(sigma->0) =     -116.70852272


--------------------------------------------------------------------------------------------------------




--------------------------------------- Iteration      1(  11)  ---------------------------------------


    POTLOK:  cpu time    0.1482: real time    0.1491
    SETDIJ:  cpu time    0.6141: real time    0.6179
    TRIAL :  cpu time   20.3538: real time   20.7461
    CORREC:  cpu time    7.0632: real time    7.1832
    CHARGE:  cpu time    1.9082: real time    1.9238
    --------------------------------------------
      LOOP:  cpu time   30.0892: real time   30.6232

 eigenvalue-minimisations  :     0
 total energy-change (2. order) :-0.1276325E+00  (-0.6639081E-01)
 number of electron      70.0000001 magnetization 
 augmentation part        9.2181435 magnetization 

 Free energy of the ion-electron system (eV)
  ---------------------------------------------------
  alpha Z        PSCENC =       217.29395884
  Ewald energy   TEWEN  =     -5055.61006098
  -Hartree energ DENC   =     -2205.25275927
  -exchange      EXHF   =         0.00000000
  -V(xc)+E(xc)   XCENC  =       306.90223339
  PAW double counting   =      6889.29448527    -6866.61442483
  entropy T*S    EENTRO =        -0.00222259
  eigenvalues    EBANDS =     -1200.45079955
  atomic energy  EATOM  =      7797.60240368
  ---------------------------------------------------
  free energy    TOTEN  =      -116.83734704 eV

  energy without entropy =     -116.83512445  energy(sigma->0) =     -116.83623575


[...]
      1     -59.1545      2.00000
      2     -59.1543      2.00000
      3     -58.6615      2.00000
      4     -58.6615      2.00000
      5     -32.4657      2.00000
      6     -32.4654      2.00000
      7     -32.4489      2.00000
      8     -32.4455      2.00000
      9     -32.4397      2.00000
     10     -32.4361      2.00000
     11     -32.1008      2.00000
     12     -32.0974      2.00000
     13     -32.0223      2.00000
     14     -32.0202      2.00000
     15     -32.0123      2.00000
     16     -32.0103      2.00000
     17      -4.0701      2.00000
     18      -3.3086      2.00000
     19      -2.1409      2.00000
     20      -2.0443      2.00000
     21       1.1662      2.00000
     22       1.3027      2.00000
     23       1.7351      2.00000
     24       1.8007      2.00000
     25       2.0155      2.00000
     26       2.1085      2.00000
     27       2.3469      2.00000
     28       2.3564      2.00000
     29       2.4796      2.00000
     30       2.6031      2.00000
     31       2.8506      2.00000
     32       2.9423      2.00000
     33       3.6075      2.00000
     34       3.6585      2.00000
     35       3.7570      2.00000
     36       3.9165      0.00000
     37       3.9927      0.00000
     38       4.1429      0.00000
     39       4.2496      0.00000
     40       4.4246      0.00000
     41       4.8575      0.00000
     42       5.0487      0.00000

 k-point   107 :       0.4286    0.1429    0.5000
  band No.  band energies     occupation 
      1     -59.1546      2.00000
      2     -59.1543      2.00000
      3     -58.6616      2.00000
      4     -58.6613      2.00000
      5     -32.4660      2.00000
      6     -32.4652      2.00000
      7     -32.4565      2.00000
      8     -32.4521      2.00000
      9     -32.4404      2.00000
     10     -32.4357      2.00000
     11     -32.1005      2.00000
     12     -32.0975      2.00000
     13     -32.0223      2.00000
     14     -32.0199      2.00000
     15     -32.0048      2.00000
     16     -32.0026      2.00000
     17      -3.8567      2.00000
     18      -3.6643      2.00000
     19      -2.2765      2.00000
     20      -1.5532      2.00000
     21       1.1801      2.00000
     22       1.2130      2.00000
     23       1.3537      2.00000
     24       1.5542      2.00000
     25       1.6880      2.00000
     26       2.0175      2.00000
     27       2.1551      2.00000
     28       2.5390      2.00000
     29       2.6468      2.00000
     30       2.7894      2.00000
     31       3.0152      2.00000
     32       3.2134      2.00000
     33       3.2550      2.00000
     34       3.4116      2.00000
     35       3.5438      2.00000
     36       3.5985      2.00000
     37       4.1952      0.00000
     38       4.2719      0.00000
     39       4.4527      0.00000
     40       4.6131      0.00000
     41       4.6692      0.00000
     42       5.2441      0.00000

 k-point   108 :      -0.4286    0.1429    0.5000
  band No.  band energies     occupation 
      1     -59.1546      2.00000
      2     -59.1543      2.00000
      3     -58.6617      2.00000
      4     -58.6612      2.00000
      5     -32.4662      2.00000
      6     -32.4651      2.00000
      7     -32.4566      2.00000
      8     -32.4520      2.00000
      9     -32.4404      2.00000
     10     -32.4356      2.00000
     11     -32.1034      2.00000
     12     -32.0946      2.00000
     13     -32.0223      2.00000
     14     -32.0199      2.00000
     15     -32.0048      2.00000
     16     -32.0027      2.00000
     17      -3.9105      2.00000
     18      -3.5222      2.00000
     19      -2.4965      2.00000
     20      -1.1753      2.00000
     21       0.5355      2.00000
     22       1.1773      2.00000
     23       1.4478      2.00000
     24       1.6091      2.00000
     25       1.7227      2.00000
     26       1.7812      2.00000
     27       2.2115      2.00000
     28       2.5623      2.00000
     29       2.7295      2.00000
     30       2.8223      2.00000
     31       2.8602      2.00000
     32       3.1627      2.00000
     33       3.1961      2.00000
     34       3.2904      2.00000
     35       3.6302      2.00000
     36       3.9648      0.00000
     37       4.0661      0.00000
     38       4.3131      0.00000
     39       4.6478      0.00000
     40       4.6963      0.00000
     41       4.7498      0.00000
     42       4.9860      0.00000

 k-point   109 :      -0.2857    0.1429    0.5000
  band No.  band energies     occupation 
      1     -59.1545      2.00000
      2     -59.1543      2.00000
      3     -58.6618      2.00000
      4     -58.6611      2.00000
      5     -32.4662      2.00000
      6     -32.4649      2.00000
      7     -32.4492      2.00000
      8     -32.4453      2.00000
      9     -32.4399      2.00000
     10     -32.4359      2.00000
     11     -32.1056      2.00000
     12     -32.0926      2.00000
     13     -32.0221      2.00000
     14     -32.0203      2.00000
     15     -32.0122      2.00000
     16     -32.0104      2.00000
     17      -4.0343      2.00000
     18      -3.1371      2.00000
     19      -2.7534      2.00000
     20      -1.0639      2.00000
     21       0.0883      2.00000
     22       1.0200      2.00000
     23       1.5421      2.00000
     24       1.9096      2.00000
     25       1.9133      2.00000
     26       2.0075      2.00000
     27       2.3961      2.00000
     28       2.4978      2.00000
     29       2.6858      2.00000
     30       2.7945      2.00000
     31       2.9080      2.00000
     32       3.0265      2.00000
     33       3.0549      2.00000
     34       3.1571      2.00000
     35       3.7219      2.00000
     36       3.9252      0.00000
     37       4.2604      0.00000
     38       4.3140      0.00000
     39       4.6602      0.00000
     40       4.8040      0.00000
     41       5.0141      0.00000
     42       5.3182      0.00000

 k-point   110 :      -0.1429    0.1429    0.5000
  band No.  band energies     occupation 
      1     -59.1544      2.00000
      2     -59.1543      2.00000
      3     -58.6619      2.00000
      4     -58.6612      2.00000
      5     -32.4660      2.00000
      6     -32.4649      2.00000
      7     -32.4403      2.00000
      8     -32.4380      2.00000
      9     -32.4377      2.00000
     10     -32.4356      2.00000
     11     -32.1065      2.00000
     12     -32.0920      2.00000
     13     -32.0228      2.00000
     14     -32.0220      2.00000
     15     -32.0206      2.00000
     16     -32.0196      2.00000
     17      -4.0848      2.00000
     18      -2.9071      2.00000
     19      -2.8378      2.00000
     20      -1.2695      2.00000
     21       0.0016      2.00000
     22       0.8078      2.00000
     23       1.8846      2.00000
     24       2.1381      2.00000
     25       2.2245      2.00000
     26       2.2473      2.00000
     27       2.3407      2.00000
     28       2.8175      2.00000
     29       2.8730      2.00000
     30       2.8922      2.00000
     31       3.0066      2.00000
     32       3.0387      2.00000
     33       3.0483      2.00000
     34       3.0590      2.00000
     35       3.3114      2.00000
     36       3.9103      0.00000
     37       4.1837      0.00000
     38       4.3969      0.00000
     39       4.4438      0.00000
     40       4.5959      0.00000
     41       5.2765      0.00000
     42       5.3698      0.00000

 k-point   111 :       0.2857    0.2857    0.5000
  band No.  band energies     occupation 
      1     -59.1547      2.00000
      2     -59.1543      2.00000
      3     -58.6616      2.00000
      4     -58.6612      2.00000
      5     -32.4662      2.00000
      6     -32.4651      2.00000
      7     -32.4509      2.00000
      8     -32.4500      2.00000
      9     -32.4446      2.00000
     10     -32.4434      2.00000
     11     -32.1004      2.00000
     12     -32.0976      2.00000
     13     -32.0136      2.00000
     14     -32.0124      2.00000
     15     -32.0101      2.00000
     16     -32.0091      2.00000
     17      -3.9480      2.00000
     18      -3.5152      2.00000
     19      -2.3971      2.00000
     20      -1.4740      2.00000
     21       1.1554      2.00000
     22       1.2813      2.00000
     23       1.2918      2.00000
     24       1.6023      2.00000
     25       1.6458      2.00000
     26       1.8666      2.00000
     27       2.4095      2.00000
     28       2.4307      2.00000
     29       2.4901      2.00000
     30       2.6468      2.00000
     31       2.8970      2.00000
     32       3.1051      2.00000
     33       3.1813      2.00000
     34       3.6297      2.00000
     35       3.6687      2.00000
     36       3.8466      0.33781
     37       3.9955      0.00000
     38       4.3705      0.00000
     39       4.4346      0.00000
     40       4.6869      0.00000
     41       4.8351      0.00000
     42       5.1245      0.00000

 k-point   112 :       0.4286    0.2857    0.5000
  band No.  band energies     occupation 
      1     -59.1547      2.00000
      2     -59.1543      2.00000
      3     -58.6617      2.00000
      4     -58.6610      2.00000
      5     -32.4665      2.00000
      6     -32.4649      2.00000
      7     -32.4584      2.00000
      8     -32.4514      2.00000
      9     -32.4504      2.00000
     10     -32.4432      2.00000
     11     -32.1032      2.00000
     12     -32.0946      2.00000
     13     -32.0133      2.00000
     14     -32.0092      2.00000
     15     -32.0056      2.00000
     16     -32.0017      2.00000
     17      -3.7438      2.00000
     18      -3.7120      2.00000
     19      -2.5284      2.00000
     20      -0.8829      2.00000
     21       0.3814      2.00000
     22       1.3099      2.00000
     23       1.3509      2.00000
     24       1.4817      2.00000
     25       1.5271      2.00000
     26       1.5783      2.00000
     27       2.2669      2.00000
     28       2.3284      2.00000
     29       2.4129      2.00000
     30       2.5353      2.00000
     31       2.5728      2.00000
     32       3.2210      2.00000
     33       3.2560      2.00000
     34       3.7193      2.00000
     35       3.7523      2.00000
     36       3.9512      0.00000
     37       4.0158      0.00000
     38       4.4934      0.00000
     39       4.6849      0.00000
     40       4.7174      0.00000
     41       4.8253      0.00000
     42       5.5266      0.00000

 k-point   113 :      -0.4286    0.2857    0.5000
  band No.  band energies     occupation 
      1     -59.1548      2.00000
      2     -59.1543      2.00000
      3     -58.6618      2.00000
      4     -58.6610      2.00000
      5     -32.4667      2.00000
      6     -32.4648      2.00000
      7     -32.4585      2.00000
      8     -32.4515      2.00000
      9     -32.4503      2.00000
     10     -32.4431      2.00000
     11     -32.1052      2.00000
     12     -32.0926      2.00000
     13     -32.0133      2.00000
     14     -32.0092      2.00000
     15     -32.0056      2.00000
     16     -32.0017      2.00000
     17      -3.9032      2.00000
     18      -3.4205      2.00000
     19      -2.6623      2.00000
     20      -0.4633      2.00000
     21      -0.1314      2.00000
     22       1.1752      2.00000
     23       1.3220      2.00000
     24       1.5378      2.00000
     25       1.5853      2.00000
     26       1.7366      2.00000
     27       1.9561      2.00000
     28       2.2861      2.00000
     29       2.3422      2.00000
     30       2.5379      2.00000
     31       2.5836      2.00000
     32       2.8596      2.00000
     33       2.9101      2.00000
     34       3.6114      2.00000
     35       3.9309      0.00000
     36       4.2840      0.00000
     37       4.4441      0.00000
     38       4.5658      0.00000
     39       4.8079      0.00000
     40       4.8630      0.00000
     41       5.1393      0.00000
     42       5.6476      0.00000

 k-point   114 :      -0.2857    0.2857    0.5000
  band No.  band energies     occupation 
      1     -59.1547      2.00000
      2     -59.1543      2.00000
      3     -58.6618      2.00000
      4     -58.6610      2.00000
      5     -32.4665      2.00000
      6     -32.4648      2.00000
      7     -32.4512      2.00000
      8     -32.4501      2.00000
      9     -32.4443      2.00000
     10     -32.4434      2.00000
     11     -32.1061      2.00000
     12     -32.0919      2.00000
     13     -32.0134      2.00000
     14     -32.0124      2.00000
     15     -32.0103      2.00000
     16     -32.0091      2.00000
     17      -3.9825      2.00000
     18      -3.1986      2.00000
     19      -2.7802      2.00000
     20      -0.5262      2.00000
     21      -0.2667      2.00000
     22       0.9460      2.00000
     23       1.5234      2.00000
     24       1.6818      2.00000
     25       1.8750      2.00000
     26       1.9113      2.00000
     27       1.9517      2.00000
     28       2.4523      2.00000
     29       2.4732      2.00000
     30       2.5872      2.00000
     31       2.7009      2.00000
     32       2.7279      2.00000
     33       2.7817      2.00000
     34       3.5582      2.00000
     35       3.6616      2.00000
     36       4.3560      0.00000
     37       4.4588      0.00000
     38       4.4839      0.00000
     39       4.6626      0.00000
     40       5.2457      0.00000
     41       5.4041      0.00000
     42       5.5479      0.00000

 k-point   115 :       0.4286    0.4286    0.5000
  band No.  band energies     occupation 
      1     -59.1549      2.00000
      2     -59.1542      2.00000
      3     -58.6618      2.00000
      4     -58.6609      2.00000
      5     -32.4669      2.00000
      6     -32.4648      2.00000
      7     -32.4595      2.00000
      8     -32.4595      2.00000
      9     -32.4495      2.00000
     10     -32.4493      2.00000
     11     -32.1050      2.00000
     12     -32.0925      2.00000
     13     -32.0062      2.00000
     14     -32.0059      2.00000
     15     -32.0012      2.00000
     16     -32.0012      2.00000
     17      -3.8396      2.00000
     18      -3.5198      2.00000
     19      -2.6218      2.00000
     20      -0.3014      2.00000
     21      -0.1201      2.00000
     22       1.2662      2.00000
     23       1.3688      2.00000
     24       1.4196      2.00000
     25       1.5132      2.00000
     26       1.5147      2.00000
     27       1.6046      2.00000
     28       2.2252      2.00000
     29       2.2910      2.00000
     30       2.3565      2.00000
     31       2.4575      2.00000
     32       2.8276      2.00000
     33       2.8319      2.00000
     34       3.8949      0.00001
     35       3.9074      0.00000
     36       4.5814      0.00000
     37       4.5887      0.00000
     38       4.5932      0.00000
     39       4.7868      0.00000
     40       4.8644      0.00000
     41       4.9332      0.00000
     42       5.8263      0.00000

 k-point   116 :      -0.4286    0.4286    0.5000
  band No.  band energies     occupation 
      1     -59.1549      2.00000
      2     -59.1542      2.00000
      3     -58.6618      2.00000
      4     -58.6609      2.00000
      5     -32.4670      2.00000
      6     -32.4647      2.00000
      7     -32.4596      2.00000
      8     -32.4594      2.00000
      9     -32.4494      2.00000
     10     -32.4494      2.00000
     11     -32.1058      2.00000
     12     -32.0918      2.00000
     13     -32.0061      2.00000
     14     -32.0060      2.00000
     15     -32.0013      2.00000
     16     -32.0011      2.00000
     17      -3.8945      2.00000
     18      -3.3951      2.00000
     19      -2.6676      2.00000
     20      -0.4536      2.00000
     21       0.1456      2.00000
     22       1.0249      2.00000
     23       1.3292      2.00000
     24       1.4090      2.00000
     25       1.4211      2.00000
     26       1.6598      2.00000
     27       1.6627      2.00000
     28       2.2287      2.00000
     29       2.2906      2.00000
     30       2.3604      2.00000
     31       2.4652      2.00000
     32       2.6324      2.00000
     33       2.6380      2.00000
     34       3.8657      0.02095
     35       3.8779      0.00152
     36       4.5826      0.00000
     37       4.7565      0.00000
     38       4.7583      0.00000
     39       4.7831      0.00000
     40       5.0494      0.00000
     41       5.2879      0.00000
     42       5.8272      0.00000


--------------------------------------------------------------------------------------------------------


 soft charge-density along one line, spin component           1
         0         1         2         3         4         5         6         7         8         9
 total charge-density along one line
 
 pseudopotential strength for first ion, spin component:           1
  6.295   9.569  -0.000   0.000   0.000  -0.000   0.000   0.000
  9.569  14.540  -0.000   0.000   0.000  -0.000   0.000   0.000
 -0.000  -0.000  -2.159   0.003  -0.002  -3.652   0.006  -0.004
  0.000   0.000   0.003  -2.161   0.002   0.006  -3.654   0.004
  0.000   0.000  -0.002   0.002  -2.158  -0.004   0.004  -3.649
 -0.000  -0.000  -3.652   0.006  -0.004  -5.967   0.014  -0.008
  0.000   0.000   0.006  -3.654   0.004   0.014  -5.973   0.010
  0.000   0.000  -0.004   0.004  -3.649  -0.008   0.010  -5.962
 total augmentation occupancy for first ion, spin component:           1
  2.599  -0.352   0.000   0.000   0.000   0.000  -0.000   0.000
 -0.352   0.063  -0.000  -0.000  -0.000   0.000   0.000   0.000
  0.000   0.000   1.193  -0.432   0.249  -0.243   0.091  -0.052
 -0.000   0.000  -0.432   1.370  -0.306   0.091  -0.280   0.064
  0.000   0.000   0.249  -0.306   1.016  -0.052   0.064  -0.206
  0.000   0.000  -0.243   0.091  -0.052   0.051  -0.020   0.012
  0.000   0.000   0.091  -0.280   0.064  -0.020   0.060  -0.014
  0.000   0.000  -0.052   0.064  -0.206   0.012  -0.014   0.043


------------------------ aborting loop because EDIFF is reached ----------------------------------------




--------------------------------------------------------------------------------------------------------



  FREE ENERGIE OF THE ION-ELECTRON SYSTEM (eV)
  ---------------------------------------------------
  free  energy   TOTEN  =      -117.02210901 eV

  energy  without entropy=     -117.02007865  energy(sigma->0) =     -117.02109383
 


--------------------------------------------------------------------------------------------------------


    POTLOK:  cpu time    0.9701: real time    0.9766


--------------------------------------------------------------------------------------------------------


 writing wavefunctions
     LOOP+:  cpu time 1420.0558: real time 1438.4500
    4ORBIT:  cpu time    0.0000: real time    0.0000

 total amount of memory used by VASP MPI-rank0   347532. kBytes
=======================================================================

   base      :      30000. kBytes
   nonl-proj :     160064. kBytes
   fftplans  :      17766. kBytes
   grid      :      13358. kBytes
   one-center:         62. kBytes
   wavefun   :     126282. kBytes
 
  
  
 General timing and accounting informations for this job:
 ========================================================
  
                  Total CPU time used (sec):     1427.039
                            User time (sec):     1386.708
                          System time (sec):       40.331
                         Elapsed time (sec):     1451.345
  
                   Maximum memory used (kb):      542688.
                   Average memory used (kb):          N/A
  
                          Minor page faults:      6519287
                          Major page faults:           44
                 Voluntary context switches:        10356
