 vasp.6.2.0 18Jan21 (build Jan 05 2022 15:41:44) complex                        
  
 executed on             LinuxIFC date 2025.05.07  14:20:51
 running on   24 total cores
 distrk:  each k-point on   12 cores,    2 groups
 distr:  one band on NCORE=   2 cores,    6 groups


--------------------------------------------------------------------------------------------------------


 INCAR:
   SYSTEM = routine with relax: pwdword
   ICHARG = 2
   NPAR = 6
   KPAR = 2
   NCORE = 2
   ADDGRID = T
   PREC = Acc
   ENCUT = 600
   METAGGA = R2SCAN
   LASPH = .TRUE.
   LMIXTAU = .FALSE.
   ALGO = A
   EDIFF = 1E-9
   NELM = 100
   NELMIN = 6
   IALGO = 38
   LREAL = F
   NSW = 0
   ISIF = -1
   ISMEAR = 0
   SIGMA = 0.02

 POTCAR:    PAW_PBE B 06Sep2000                   
 POTCAR:    PAW_PBE Mo_sv 02Feb2006               
 POTCAR:    PAW_PBE Si 05Jan2001                  
 -----------------------------------------------------------------------------
|                                                                             |
|           W    W    AA    RRRRR   N    N  II  N    N   GGGG   !!!           |
|           W    W   A  A   R    R  NN   N  II  NN   N  G    G  !!!           |
|           W    W  A    A  R    R  N N  N  II  N N  N  G       !!!           |
|           W WW W  AAAAAA  RRRRR   N  N N  II  N  N N  G  GGG   !            |
|           WW  WW  A    A  R   R   N   NN  II  N   NN  G    G                |
|           W    W  A    A  R    R  N    N  II  N    N   GGGG   !!!           |
|                                                                             |
|     For optimal performance we recommend to set                             |
|       NCORE = 2 up to number-of-cores-per-socket                            |
|     NCORE specifies how many cores store one orbital (NPAR=cpu/NCORE).      |
|     This setting can greatly improve the performance of VASP for DFT.       |
|     The default, NCORE=1 might be grossly inefficient on modern             |
|     multi-core architectures or massively parallel machines. Do your        |
|     own testing! More info at https://www.vasp.at/wiki/index.php/NCORE      |
|     Unfortunately you need to use the default for GW and RPA                |
|     calculations (for HF NCORE is supported but not extensively tested      |
|     yet).                                                                   |
|                                                                             |
 -----------------------------------------------------------------------------

 POTCAR:    PAW_PBE B 06Sep2000                   
   VRHFIN =B: s2p1                                                                                  
   LEXCH  = PE                                                                                      
   EATOM  =    71.1703 eV,    5.2309 Ry                                                             
                                                                                                    
   TITEL  = PAW_PBE B 06Sep2000                                                                     
   LULTRA =        F    use ultrasoft PP ?                                                          
   IUNSCR =        1    unscreen: 0-lin 1-nonlin 2-no                                               
   RPACOR =    1.200    partial core radius                                                         
   POMASS =   10.811; ZVAL   =    3.000    mass and valenz                                          
   RCORE  =    1.700    outmost cutoff radius                                                       
   RWIGS  =    1.710; RWIGS  =    0.905    wigner-seitz radius (au A)                               
   ENMAX  =  318.614; ENMIN  =  238.960 eV                                                          
   ICORE  =        2    local potential                                                             
   LCOR   =        T    correct aug charges                                                         
   LPAW   =        T    paw PP                                                                      
   EAUG   =  535.514                                                                                
   DEXC   =    0.000                                                                                
   RMAX   =    1.732    core radius for proj-oper                                                   
   RAUG   =    1.300    factor for augmentation sphere                                              
   RDEP   =    1.757    radius for radial grids                                                     
   RDEPT  =    1.436    core radius for aug-charge                                                  
                                                                                                    
   Atomic configuration                                                                             
    4 entries                                                                                       
     n  l   j            E        occ.                                                              
     1  0  0.50      -180.5896   2.0000                                                             
     2  0  0.50        -9.4431   2.0000                                                             
     2  1  0.50        -3.6068   1.0000                                                             
     3  2  1.50        -4.0817   0.0000                                                             
   Description                                                                                      
     l       E           TYP  RCUT    TYP  RCUT                                                     
     0     -9.4430752     23  1.500                                                                 
     0      0.8675899     23  1.500                                                                 
     1     -3.6067955     23  1.700                                                                 
     1      6.1086146     23  1.700                                                                 
     2     -4.0817478      7  1.700                                                                 
  local pseudopotential read in
  partial core-charges read in
  partial kinetic energy density read in
  atomic valenz-charges read in
  non local Contribution for L=           0  read in
    real space projection operators read in
  non local Contribution for L=           0  read in
    real space projection operators read in
  non local Contribution for L=           1  read in
    real space projection operators read in
  non local Contribution for L=           1  read in
    real space projection operators read in
    PAW grid and wavefunctions read in
 
   number of l-projection  operators is LMAX  =           4
   number of lm-projection operators is LMMAX =           8
 
 POTCAR:    PAW_PBE Mo_sv 02Feb2006               
   VRHFIN =Mo: 4p5s4d                                                                               
   LEXCH  = PE                                                                                      
   EATOM  =  1862.2866 eV,  136.8742 Ry                                                             
                                                                                                    
   TITEL  = PAW_PBE Mo_sv 02Feb2006                                                                 
   LULTRA =        F    use ultrasoft PP ?                                                          
   IUNSCR =        1    unscreen: 0-lin 1-nonlin 2-no                                               
   RPACOR =    2.200    partial core radius                                                         
   POMASS =   95.940; ZVAL   =   14.000    mass and valenz                                          
   RCORE  =    2.500    outmost cutoff radius                                                       
   RWIGS  =    2.750; RWIGS  =    1.455    wigner-seitz radius (au A)                               
   ENMAX  =  242.676; ENMIN  =  182.007 eV                                                          
   ICORE  =        3    local potential                                                             
   LCOR   =        T    correct aug charges                                                         
   LPAW   =        T    paw PP                                                                      
   EAUG   =  446.014                                                                                
   DEXC   =    0.000                                                                                
   RMAX   =    2.563    core radius for proj-oper                                                   
   RAUG   =    1.300    factor for augmentation sphere                                              
   RDEP   =    2.641    radius for radial grids                                                     
   RDEPT  =    2.031    core radius for aug-charge                                                  
                                                                                                    
   Atomic configuration                                                                             
   11 entries                                                                                       
     n  l   j            E        occ.                                                              
     1  0  0.50    -19819.0341   2.0000                                                             
     2  0  0.50     -2799.0127   2.0000                                                             
     2  1  1.50     -2502.0276   6.0000                                                             
     3  0  0.50      -476.4449   2.0000                                                             
     3  1  1.50      -379.1496   6.0000                                                             
     3  2  2.50      -220.9367  10.0000                                                             
     4  0  0.50       -64.3378   2.0000                                                             
     5  0  0.50        -4.0862   1.0000                                                             
     4  1  1.50       -38.4773   6.0000                                                             
     4  2  2.50        -3.7535   5.0000                                                             
     4  3  2.50        -1.3606   0.0000                                                             
   Description                                                                                      
     l       E           TYP  RCUT    TYP  RCUT                                                     
     0    -64.3377829     23  2.100                                                                 
     0     -4.0861640     23  2.400                                                                 
     1    -38.4772993     23  2.100                                                                 
     1     13.6058260     23  2.100                                                                 
     2     -3.7534941     23  2.400                                                                 
     2     -5.1140767     23  2.400                                                                 
     3     -4.0817478     23  2.500                                                                 
  local pseudopotential read in
  partial core-charges read in
  partial kinetic energy density read in
  atomic valenz-charges read in
  non local Contribution for L=           0  read in
    real space projection operators read in
  non local Contribution for L=           0  read in
    real space projection operators read in
  non local Contribution for L=           1  read in
    real space projection operators read in
  non local Contribution for L=           1  read in
    real space projection operators read in
  non local Contribution for L=           2  read in
    real space projection operators read in
  non local Contribution for L=           2  read in
    real space projection operators read in
    PAW grid and wavefunctions read in
 
   number of l-projection  operators is LMAX  =           6
   number of lm-projection operators is LMMAX =          18
 
 POTCAR:    PAW_PBE Si 05Jan2001                  
   VRHFIN =Si: s2p2                                                                                 
   LEXCH  = PE                                                                                      
   EATOM  =   103.0669 eV,    7.5752 Ry                                                             
                                                                                                    
   TITEL  = PAW_PBE Si 05Jan2001                                                                    
   LULTRA =        F    use ultrasoft PP ?                                                          
   IUNSCR =        1    unscreen: 0-lin 1-nonlin 2-no                                               
   RPACOR =    1.500    partial core radius                                                         
   POMASS =   28.085; ZVAL   =    4.000    mass and valenz                                          
   RCORE  =    1.900    outmost cutoff radius                                                       
   RWIGS  =    2.480; RWIGS  =    1.312    wigner-seitz radius (au A)                               
   ENMAX  =  245.345; ENMIN  =  184.009 eV                                                          
   ICORE  =        2    local potential                                                             
   LCOR   =        T    correct aug charges                                                         
   LPAW   =        T    paw PP                                                                      
   EAUG   =  322.069                                                                                
   DEXC   =    0.000                                                                                
   RMAX   =    1.950    core radius for proj-oper                                                   
   RAUG   =    1.300    factor for augmentation sphere                                              
   RDEP   =    1.993    radius for radial grids                                                     
   RDEPT  =    1.837    core radius for aug-charge                                                  
                                                                                                    
   Atomic configuration                                                                             
    6 entries                                                                                       
     n  l   j            E        occ.                                                              
     1  0  0.50     -1785.8828   2.0000                                                             
     2  0  0.50      -139.4969   2.0000                                                             
     2  1  1.50       -95.5546   6.0000                                                             
     3  0  0.50       -10.8127   2.0000                                                             
     3  1  0.50        -4.0811   2.0000                                                             
     3  2  1.50        -4.0817   0.0000                                                             
   Description                                                                                      
     l       E           TYP  RCUT    TYP  RCUT                                                     
     0    -10.8127223     23  1.900                                                                 
     0     -7.6451159     23  1.900                                                                 
     1     -4.0811372     23  1.900                                                                 
     1      2.4879257     23  1.900                                                                 
     2     -4.0817478      7  1.900                                                                 
  local pseudopotential read in
  partial core-charges read in
  partial kinetic energy density read in
  atomic valenz-charges read in
  non local Contribution for L=           0  read in
    real space projection operators read in
  non local Contribution for L=           0  read in
    real space projection operators read in
  non local Contribution for L=           1  read in
    real space projection operators read in
  non local Contribution for L=           1  read in
    real space projection operators read in
    PAW grid and wavefunctions read in
 
   number of l-projection  operators is LMAX  =           4
   number of lm-projection operators is LMMAX =           8
 
 -----------------------------------------------------------------------------
|                                                                             |
|               ----> ADVICE to this user running VASP <----                  |
|                                                                             |
|     You have a (more or less) 'large supercell' and for larger cells it     |
|     might be more efficient to use real-space projection operators.         |
|     Therefore, try LREAL= Auto in the INCAR file.                           |
|     Mind: For very accurate calculation, you might also keep the            |
|     reciprocal projection scheme (i.e. LREAL=.FALSE.).                      |
|                                                                             |
 -----------------------------------------------------------------------------

  PAW_PBE B 06Sep2000                   :
 energy of atom  1       EATOM=  -71.1703
 kinetic energy error for atom=    0.0007 (will be added to EATOM!!)
  PAW_PBE Mo_sv 02Feb2006               :
 energy of atom  2       EATOM=-1862.2866
 kinetic energy error for atom=    0.0041 (will be added to EATOM!!)
  PAW_PBE Si 05Jan2001                  :
 energy of atom  3       EATOM= -103.0669
 kinetic energy error for atom=    0.0003 (will be added to EATOM!!)
 
 
 POSCAR: EA15
  positions in direct lattice
  No initial velocities read in

 METAGGA = R2SCA    LMAXTAU =  6    LMIXTAU =  F

 exchange correlation table for  LEXCH =        8
   RHO(1)=    0.500       N(1)  =     2000
   RHO(2)=  100.500       N(2)  =     4000
 


--------------------------------------------------------------------------------------------------------


 ion  position               nearest neighbor table
   1  0.062  0.562  0.320-   7 1.61  18 1.69   8 2.13   5 2.13  12 2.24  11 2.24  13 2.51  16 2.54
                            15 2.54  14 2.80   9 2.80
   2  0.938  0.438  0.680-   3 1.61  18 1.69   6 2.13   4 2.13  12 2.24  11 2.24  10 2.51  16 2.54
                            15 2.54  14 2.80   9 2.80
   3  0.758  0.258  0.320-   2 1.61  17 1.69   6 2.13   4 2.13  12 2.24  11 2.24  13 2.51  16 2.54
                            15 2.54  14 2.80   9 2.80
   4  0.562  0.242  0.500-   6 1.61  16 1.69   3 2.13   2 2.13  13 2.24  10 2.24  12 2.51  17 2.54
                            18 2.54   9 2.80  14 2.80
   5  0.438  0.758  0.500-   8 1.61  16 1.69   7 2.13   1 2.13  10 2.24  13 2.24  11 2.51  17 2.54
                            18 2.54  14 2.80   9 2.80
   6  0.742  0.062  0.500-   4 1.61  15 1.69   3 2.13   2 2.13  13 2.24  10 2.24  11 2.51  17 2.54
                            18 2.54  14 2.80   9 2.80
   7  0.242  0.742  0.680-   1 1.61  17 1.69   8 2.13   5 2.13  12 2.24  11 2.24  10 2.51  16 2.54
                            15 2.54   9 2.80  14 2.80
   8  0.258  0.938  0.500-   5 1.61  15 1.69   7 2.13   1 2.13  10 2.24  13 2.24  12 2.51  17 2.54
                            18 2.54   9 2.80  14 2.80
   9  0.250  0.250  0.000-  17 2.23  18 2.23  16 2.23  15 2.23   1 2.80   2 2.80   8 2.80   4 2.80
                             7 2.80   3 2.80   5 2.80   6 2.80  13 3.26  10 3.26  12 3.26  12 3.26
  10  0.325  0.825  0.150-   5 2.24   8 2.24   4 2.24   6 2.24  17 2.38  18 2.38   7 2.51   2 2.51
                            13 3.12   9 3.26  14 3.26   9 3.26  14 3.26  12 3.30  11 3.30  12 3.30
  11  0.825  0.675  0.500-   1 2.24   2 2.24   3 2.24   7 2.24  15 2.38  16 2.38   6 2.51   5 2.51
                            12 3.12  14 3.26  14 3.26   9 3.26   9 3.26  13 3.30  10 3.30  10 3.30
  12  0.175  0.325  0.500-   1 2.24   2 2.24   3 2.24   7 2.24  15 2.38  16 2.38   8 2.51   4 2.51
                            11 3.12   9 3.26   9 3.26  14 3.26  14 3.26  10 3.30  13 3.30  10 3.30
  13  0.675  0.175  0.850-   4 2.24   6 2.24   5 2.24   8 2.24  17 2.38  18 2.38   3 2.51   1 2.51
                            10 3.12  14 3.26   9 3.26  14 3.26   9 3.26  11 3.30  12 3.30  12 3.30
  14  0.750  0.750  0.000-  17 2.23  18 2.23  15 2.23  16 2.23   1 2.80   2 2.80   5 2.80   6 2.80
                             3 2.80   7 2.80   4 2.80   8 2.80  13 3.26  10 3.26  11 3.26  11 3.26
  15  0.000  0.000  0.500-   6 1.69   8 1.69   9 2.23  14 2.23  12 2.38  11 2.38   7 2.54   3 2.54
                             1 2.54   2 2.54
  16  0.500  0.500  0.500-   4 1.69   5 1.69  14 2.23   9 2.23  11 2.38  12 2.38   3 2.54   7 2.54
                             1 2.54   2 2.54
  17  0.500  0.000  0.000-   3 1.69   7 1.69   9 2.23  14 2.23  13 2.38  10 2.38   6 2.54   4 2.54
                             5 2.54   8 2.54
  18  0.000  0.500  0.000-   1 1.69   2 1.69   9 2.23  14 2.23  13 2.38  10 2.38   5 2.54   8 2.54
                             4 2.54   6 2.54
 
  LATTYP: Found a body centered tetragonal cell.
 ALAT       =     6.3109970722
 C/A-ratio  =     1.4484831980
  
  Lattice vectors:
  
 A1 = (   5.4872439328,   0.0000000000,  -3.2704048970)
 A2 = (  -1.7711241365,   5.1935503532,  -3.2704048970)
 A3 = (   0.0000000000,   0.0000000000,   6.3879100000)


Analysis of symmetry for initial positions (statically):
=====================================================================
 Subroutine PRICEL returns:
 Original cell was already a primitive cell.
 

 Routine SETGRP: Setting up the symmetry group for a 
 body centered tetragonal supercell.


 Subroutine GETGRP returns: Found 16 space group operations
 (whereof  8 operations were pure point group operations)
 out of a pool of 16 trial point group operations.


The static configuration has the point symmetry C_4h.
 The point group associated with its full space group is D_4h.


Analysis of symmetry for dynamics (positions and initial velocities):
=====================================================================
 Subroutine PRICEL returns:
 Original cell was already a primitive cell.
 

 Routine SETGRP: Setting up the symmetry group for a 
 body centered tetragonal supercell.


 Subroutine GETGRP returns: Found 16 space group operations
 (whereof  8 operations were pure point group operations)
 out of a pool of 16 trial point group operations.


The dynamic configuration has the point symmetry C_4h.
 The point group associated with its full space group is D_4h.


 Subroutine INISYM returns: Found 16 space group operations
 (whereof  8 operations are pure point group operations),
 and found     1 'primitive' translations


----------------------------------------------------------------------------------------

                                     Primitive cell                                     

  volume of cell :     182.0444

  direct lattice vectors                    reciprocal lattice vectors
     5.487243933  0.000000000 -3.270404897     0.182240850  0.062148462  0.000000000
    -1.771124136  5.193550353 -3.270404897     0.000000000  0.192546511  0.000000000
     0.000000000  0.000000000  6.387910000     0.093301466  0.130395652  0.156545725

  length of vectors
     6.387910000  6.387910000  6.387910000     0.192546511  0.192546511  0.224086487

  position of ions in fractional coordinates (direct lattice)
     0.061510000  0.561510000  0.319740000
     0.938490000  0.438490000  0.680260000
     0.758230000  0.258230000  0.319740000
     0.561510000  0.241770000  0.500000000
     0.438490000  0.758230000  0.500000000
     0.741770000  0.061510000  0.500000000
     0.241770000  0.741770000  0.680260000
     0.258230000  0.938490000  0.500000000
     0.250000000  0.250000000  1.000000000
     0.325230000  0.825230000  0.150460000
     0.825230000  0.674770000  0.500000000
     0.174770000  0.325230000  0.500000000
     0.674770000  0.174770000  0.849540000
     0.750000000  0.750000000  1.000000000
     0.000000000  0.000000000  0.500000000
     0.500000000  0.500000000  0.500000000
     0.500000000  0.000000000  1.000000000
     0.000000000  0.500000000  0.000000000

  ion indices of the primitive-cell ions
   primitive index   ion index
                 1           1
                 2           2
                 3           3
                 4           4
                 5           5
                 6           6
                 7           7
                 8           8
                 9           9
                10          10
                11          11
                12          12
                13          13
                14          14
                15          15
                16          16
                17          17
                18          18

----------------------------------------------------------------------------------------

 
 
 KPOINTS: EA                                      

Automatic generation of k-mesh.
 Grid dimensions read from file:
 generate k-points for:    7    7    8

 Generating k-lattice:

  Cartesian coordinates                     Fractional coordinates (reciprocal lattice)
     0.026034407  0.008878352  0.000000000     0.142857143  0.000000000  0.000000000
     0.000000000  0.027506644  0.000000000     0.000000000  0.142857143  0.000000000
     0.011662683  0.016299456  0.019568216    -0.000000000  0.000000000  0.125000000

  Length of vectors
     0.027506644  0.027506644  0.028010811

  Shift w.r.t. Gamma in fractional coordinates (k-lattice)
     0.000000000  0.000000000  0.000000000

 -----------------------------------------------------------------------------
|                                                                             |
|           W    W    AA    RRRRR   N    N  II  N    N   GGGG   !!!           |
|           W    W   A  A   R    R  NN   N  II  NN   N  G    G  !!!           |
|           W    W  A    A  R    R  N N  N  II  N N  N  G       !!!           |
|           W WW W  AAAAAA  RRRRR   N  N N  II  N  N N  G  GGG   !            |
|           WW  WW  A    A  R   R   N   NN  II  N   NN  G    G                |
|           W    W  A    A  R    R  N    N  II  N    N   GGGG   !!!           |
|                                                                             |
|     Your reciprocal lattice and k-lattice belong to different lattice       |
|     classes:                                                                |
|                                                                             |
|        The reciprocal lattice is body-centered tetragonal,                  |
|        whereas your k-lattice is base-centered monoclinic.                  |
|                                                                             |
|     Results are often still useful ...                                      |
|                                                                             |
 -----------------------------------------------------------------------------

 WARNING: IBZKPT: internal override: KBLOWUP is changed to .FALSE.
      ... skipping the blow-up phase ...

 
 Subroutine IBZKPT returns following result:
 ===========================================
 
 Found    116 irreducible k-points:
 
 Following reciprocal coordinates:
            Coordinates               Weight
  0.000000  0.000000  0.000000      1.000000
  0.142857  0.000000  0.000000      4.000000
  0.285714  0.000000  0.000000      4.000000
  0.428571  0.000000  0.000000      4.000000
  0.142857  0.142857  0.000000      2.000000
  0.285714  0.142857  0.000000      4.000000
  0.428571  0.142857  0.000000      4.000000
 -0.428571  0.142857  0.000000      4.000000
 -0.285714  0.142857  0.000000      4.000000
 -0.142857  0.142857  0.000000      2.000000
  0.285714  0.285714  0.000000      2.000000
  0.428571  0.285714  0.000000      4.000000
 -0.428571  0.285714  0.000000      4.000000
 -0.285714  0.285714  0.000000      2.000000
  0.428571  0.428571  0.000000      2.000000
 -0.428571  0.428571  0.000000      2.000000
  0.000000  0.000000  0.125000      2.000000
  0.142857 -0.000000  0.125000      4.000000
  0.285714 -0.000000  0.125000      4.000000
  0.428571  0.000000  0.125000      4.000000
 -0.428571 -0.000000  0.125000      4.000000
 -0.285714 -0.000000  0.125000      4.000000
 -0.142857  0.000000  0.125000      4.000000
  0.142857  0.142857  0.125000      2.000000
  0.285714  0.142857  0.125000      4.000000
  0.428571  0.142857  0.125000      4.000000
 -0.428571  0.142857  0.125000      4.000000
 -0.285714  0.142857  0.125000      4.000000
 -0.142857  0.142857  0.125000      4.000000
  0.285714  0.285714  0.125000      2.000000
  0.428571  0.285714  0.125000      4.000000
 -0.428571  0.285714  0.125000      4.000000
 -0.285714  0.285714  0.125000      4.000000
 -0.142857  0.285714  0.125000      4.000000
  0.428571  0.428571  0.125000      2.000000
 -0.428571  0.428571  0.125000      4.000000
 -0.285714  0.428571  0.125000      4.000000
 -0.142857  0.428571  0.125000      4.000000
 -0.428571 -0.428571  0.125000      2.000000
 -0.285714 -0.428571  0.125000      4.000000
 -0.142857 -0.428571  0.125000      4.000000
 -0.285714 -0.285714  0.125000      2.000000
 -0.142857 -0.285714  0.125000      4.000000
 -0.142857 -0.142857  0.125000      2.000000
  0.000000  0.000000  0.250000      2.000000
  0.142857  0.000000  0.250000      4.000000
  0.285714  0.000000  0.250000      4.000000
  0.428571 -0.000000  0.250000      4.000000
 -0.428571 -0.000000  0.250000      4.000000
 -0.285714  0.000000  0.250000      4.000000
 -0.142857  0.000000  0.250000      4.000000
  0.142857  0.142857  0.250000      2.000000
  0.285714  0.142857  0.250000      4.000000
  0.428571  0.142857  0.250000      4.000000
 -0.428571  0.142857  0.250000      4.000000
 -0.285714  0.142857  0.250000      4.000000
 -0.142857  0.142857  0.250000      4.000000
  0.285714  0.285714  0.250000      2.000000
  0.428571  0.285714  0.250000      4.000000
 -0.428571  0.285714  0.250000      4.000000
 -0.285714  0.285714  0.250000      4.000000
 -0.142857  0.285714  0.250000      4.000000
  0.428571  0.428571  0.250000      2.000000
 -0.428571  0.428571  0.250000      4.000000
 -0.285714  0.428571  0.250000      4.000000
 -0.142857  0.428571  0.250000      4.000000
 -0.428571 -0.428571  0.250000      2.000000
 -0.285714 -0.428571  0.250000      4.000000
 -0.142857 -0.428571  0.250000      4.000000
 -0.285714 -0.285714  0.250000      2.000000
 -0.142857 -0.285714  0.250000      4.000000
 -0.142857 -0.142857  0.250000      2.000000
  0.000000  0.000000  0.375000      2.000000
  0.142857  0.000000  0.375000      4.000000
  0.285714  0.000000  0.375000      4.000000
  0.428571  0.000000  0.375000      4.000000
 -0.428571  0.000000  0.375000      4.000000
 -0.285714  0.000000  0.375000      4.000000
 -0.142857  0.000000  0.375000      4.000000
  0.142857  0.142857  0.375000      2.000000
  0.285714  0.142857  0.375000      4.000000
  0.428571  0.142857  0.375000      4.000000
 -0.428571  0.142857  0.375000      4.000000
 -0.285714  0.142857  0.375000      4.000000
 -0.142857  0.142857  0.375000      4.000000
  0.285714  0.285714  0.375000      2.000000
  0.428571  0.285714  0.375000      4.000000
 -0.428571  0.285714  0.375000      4.000000
 -0.285714  0.285714  0.375000      4.000000
 -0.142857  0.285714  0.375000      4.000000
  0.428571  0.428571  0.375000      2.000000
 -0.428571  0.428571  0.375000      4.000000
 -0.285714  0.428571  0.375000      4.000000
 -0.142857  0.428571  0.375000      4.000000
 -0.428571 -0.428571  0.375000      2.000000
 -0.285714 -0.428571  0.375000      4.000000
 -0.142857 -0.428571  0.375000      4.000000
 -0.285714 -0.285714  0.375000      2.000000
 -0.142857 -0.285714  0.375000      4.000000
 -0.142857 -0.142857  0.375000      2.000000
  0.000000  0.000000  0.500000      1.000000
  0.142857  0.000000  0.500000      4.000000
  0.285714  0.000000  0.500000      4.000000
  0.428571  0.000000  0.500000      4.000000
  0.142857  0.142857  0.500000      2.000000
  0.285714  0.142857  0.500000      4.000000
  0.428571  0.142857  0.500000      4.000000
 -0.428571  0.142857  0.500000      4.000000
 -0.285714  0.142857  0.500000      4.000000
 -0.142857  0.142857  0.500000      2.000000
  0.285714  0.285714  0.500000      2.000000
  0.428571  0.285714  0.500000      4.000000
 -0.428571  0.285714  0.500000      4.000000
 -0.285714  0.285714  0.500000      2.000000
  0.428571  0.428571  0.500000      2.000000
 -0.428571  0.428571  0.500000      2.000000
 
 Following cartesian coordinates:
            Coordinates               Weight
  0.000000  0.000000  0.000000      1.000000
  0.026034  0.008878  0.000000      4.000000
  0.052069  0.017757  0.000000      4.000000
  0.078103  0.026635  0.000000      4.000000
  0.026034  0.036385  0.000000      2.000000
  0.052069  0.045263  0.000000      4.000000
  0.078103  0.054142  0.000000      4.000000
 -0.078103  0.000872  0.000000      4.000000
 -0.052069  0.009750  0.000000      4.000000
 -0.026034  0.018628  0.000000      2.000000
  0.052069  0.072770  0.000000      2.000000
  0.078103  0.081648  0.000000      4.000000
 -0.078103  0.028378  0.000000      4.000000
 -0.052069  0.037257  0.000000      2.000000
  0.078103  0.109155  0.000000      2.000000
 -0.078103  0.055885  0.000000      2.000000
  0.011663  0.016299  0.019568      2.000000
  0.037697  0.025178  0.019568      4.000000
  0.063731  0.034056  0.019568      4.000000
  0.089766  0.042935  0.019568      4.000000
 -0.066441 -0.010336  0.019568      4.000000
 -0.040406 -0.001457  0.019568      4.000000
 -0.014372  0.007421  0.019568      4.000000
  0.037697  0.052684  0.019568      2.000000
  0.063731  0.061563  0.019568      4.000000
  0.089766  0.070441  0.019568      4.000000
 -0.066441  0.017171  0.019568      4.000000
 -0.040406  0.026049  0.019568      4.000000
 -0.014372  0.034928  0.019568      4.000000
  0.063731  0.089069  0.019568      2.000000
  0.089766  0.097948  0.019568      4.000000
 -0.066441  0.044678  0.019568      4.000000
 -0.040406  0.053556  0.019568      4.000000
 -0.014372  0.062434  0.019568      4.000000
  0.089766  0.125454  0.019568      2.000000
 -0.066441  0.072184  0.019568      4.000000
 -0.040406  0.081063  0.019568      4.000000
 -0.014372  0.089941  0.019568      4.000000
 -0.066441 -0.092856  0.019568      2.000000
 -0.040406 -0.083977  0.019568      4.000000
 -0.014372 -0.075099  0.019568      4.000000
 -0.040406 -0.056471  0.019568      2.000000
 -0.014372 -0.047592  0.019568      4.000000
 -0.014372 -0.020086  0.019568      2.000000
  0.023325  0.032599  0.039136      2.000000
  0.049360  0.041477  0.039136      4.000000
  0.075394  0.050356  0.039136      4.000000
  0.101429  0.059234  0.039136      4.000000
 -0.054778  0.005964  0.039136      4.000000
 -0.028743  0.014842  0.039136      4.000000
 -0.002709  0.023721  0.039136      4.000000
  0.049360  0.068984  0.039136      2.000000
  0.075394  0.077862  0.039136      4.000000
  0.101429  0.086741  0.039136      4.000000
 -0.054778  0.033471  0.039136      4.000000
 -0.028743  0.042349  0.039136      4.000000
 -0.002709  0.051227  0.039136      4.000000
  0.075394  0.105369  0.039136      2.000000
  0.101429  0.114247  0.039136      4.000000
 -0.054778  0.060977  0.039136      4.000000
 -0.028743  0.069855  0.039136      4.000000
 -0.002709  0.078734  0.039136      4.000000
  0.101429  0.141754  0.039136      2.000000
 -0.054778  0.088484  0.039136      4.000000
 -0.028743  0.097362  0.039136      4.000000
 -0.002709  0.106240  0.039136      4.000000
 -0.054778 -0.076556  0.039136      2.000000
 -0.028743 -0.067678  0.039136      4.000000
 -0.002709 -0.058799  0.039136      4.000000
 -0.028743 -0.040171  0.039136      2.000000
 -0.002709 -0.031293  0.039136      4.000000
 -0.002709 -0.003786  0.039136      2.000000
  0.034988  0.048898  0.058705      2.000000
  0.061022  0.057777  0.058705      4.000000
  0.087057  0.066655  0.058705      4.000000
  0.113091  0.075533  0.058705      4.000000
 -0.043115  0.022263  0.058705      4.000000
 -0.017081  0.031142  0.058705      4.000000
  0.008954  0.040020  0.058705      4.000000
  0.061022  0.085283  0.058705      2.000000
  0.087057  0.094162  0.058705      4.000000
  0.113091  0.103040  0.058705      4.000000
 -0.043115  0.049770  0.058705      4.000000
 -0.017081  0.058648  0.058705      4.000000
  0.008954  0.067527  0.058705      4.000000
  0.087057  0.121668  0.058705      2.000000
  0.113091  0.130547  0.058705      4.000000
 -0.043115  0.077277  0.058705      4.000000
 -0.017081  0.086155  0.058705      4.000000
  0.008954  0.095033  0.058705      4.000000
  0.113091  0.158053  0.058705      2.000000
 -0.043115  0.104783  0.058705      4.000000
 -0.017081  0.113662  0.058705      4.000000
  0.008954  0.122540  0.058705      4.000000
 -0.043115 -0.060257  0.058705      2.000000
 -0.017081 -0.051378  0.058705      4.000000
  0.008954 -0.042500  0.058705      4.000000
 -0.017081 -0.023872  0.058705      2.000000
  0.008954 -0.014993  0.058705      4.000000
  0.008954  0.012513  0.058705      2.000000
  0.046651  0.065198  0.078273      1.000000
  0.072685  0.074076  0.078273      4.000000
  0.098720  0.082955  0.078273      4.000000
  0.124754  0.091833  0.078273      4.000000
  0.072685  0.101583  0.078273      2.000000
  0.098720  0.110461  0.078273      4.000000
  0.124754  0.119340  0.078273      4.000000
 -0.031452  0.066069  0.078273      4.000000
 -0.005418  0.074948  0.078273      4.000000
  0.020616  0.083826  0.078273      2.000000
  0.098720  0.137968  0.078273      2.000000
  0.124754  0.146846  0.078273      4.000000
 -0.031452  0.093576  0.078273      4.000000
 -0.005418  0.102454  0.078273      2.000000
  0.124754  0.174353  0.078273      2.000000
 -0.031452  0.121083  0.078273      2.000000
 


--------------------------------------------------------------------------------------------------------




 Dimension of arrays:
   k-points           NKPTS =    116   k-points in BZ     NKDIM =    116   number of bands    NBANDS=     78
   number of dos      NEDOS =    301   number of ions     NIONS =     18
   non local maximal  LDIM  =      6   non local SUM 2l+1 LMDIM =     18
   total plane-waves  NPLWV = 157464
   max r-space proj   IRMAX =      1   max aug-charges    IRDMAX= 302778
   dimension x,y,z NGX =    54 NGY =   54 NGZ =   54
   dimension x,y,z NGXF=   108 NGYF=  108 NGZF=  108
   support grid    NGXF=   216 NGYF=  216 NGZF=  216
   ions per type =               8   6   4
   NGX,Y,Z   is equivalent  to a cutoff of  14.05, 14.05, 14.05 a.u.
   NGXF,Y,Z  is equivalent  to a cutoff of  28.11, 28.11, 28.11 a.u.

 SYSTEM =  routine with relax: pwdword             
 POSCAR =  EA15                                    

 Startparameter for this run:
   NWRITE =      2    write-flag & timer
   PREC   = acc       normal or accurate (medium, high low for compatibility)
   ISTART =      0    job   : 0-new  1-cont  2-samecut
   ICHARG =      2    charge: 1-file 2-atom 10-const
   ISPIN  =      1    spin polarized calculation?
   LNONCOLLINEAR =      F non collinear calculations
   LSORBIT =      F    spin-orbit coupling
   INIWAV =      1    electr: 0-lowe 1-rand  2-diag
   LASPH  =      T    aspherical Exc in radial PAW
   METAGGA=      F    non-selfconsistent MetaGGA calc.

 Electronic Relaxation 1
   ENCUT  =  600.0 eV  44.10 Ry    6.64 a.u.  12.76 12.76 12.76*2*pi/ulx,y,z
   ENINI  =  600.0     initial cutoff
   ENAUG  =  535.5 eV  augmentation charge cutoff
   NELM   =    100;   NELMIN=  6; NELMDL= -5     # of ELM steps 
   EDIFF  = 0.1E-08   stopping-criterion for ELM
   LREAL  =      F    real-space projection
   NLSPLINE    = F    spline interpolate recip. space projectors
   LCOMPAT=      F    compatible to vasp.4.4
   GGA_COMPAT  = T    GGA compatible to vasp.4.4-vasp.4.6
   LMAXPAW     = -100 max onsite density
   LMAXMIX     =    2 max onsite mixed and CHGCAR
   VOSKOWN=      0    Vosko Wilk Nusair interpolation
   ROPT   =    0.00000   0.00000   0.00000
 Ionic relaxation
   EDIFFG = 0.1E-07   stopping-criterion for IOM
   NSW    =      0    number of steps for IOM
   NBLOCK =      1;   KBLOCK =      1    inner block; outer block 
   IBRION =     -1    ionic relax: 0-MD 1-quasi-New 2-CG
   NFREE  =      0    steps in history (QN), initial steepest desc. (CG)
   ISIF   =     -1    stress and relaxation
   IWAVPR =     10    prediction:  0-non 1-charg 2-wave 3-comb
   ISYM   =      2    0-nonsym 1-usesym 2-fastsym
   LCORR  =      T    Harris-Foulkes like correction to forces

   POTIM  = 0.5000    time-step for ionic-motion
   TEIN   =    0.0    initial temperature
   TEBEG  =    0.0;   TEEND  =   0.0 temperature during run
   SMASS  =  -3.00    Nose mass-parameter (am)
   estimated Nose-frequenzy (Omega)   =  0.10E-29 period in steps = 0.13E+47 mass=  -0.933E-27a.u.
   SCALEE = 1.0000    scale energy and forces
   NPACO  =    256;   APACO  = 16.0  distance and # of slots for P.C.
   PSTRESS=    0.0 pullay stress

  Mass of Ions in am
   POMASS =  10.81 95.94 28.09
  Ionic Valenz
   ZVAL   =   3.00 14.00  4.00
  Atomic Wigner-Seitz radii
   RWIGS  =  -1.00 -1.00 -1.00
  virtual crystal weights 
   VCA    =   1.00  1.00  1.00
   NELECT =     124.0000    total number of electrons
   NUPDOWN=      -1.0000    fix difference up-down

 DOS related values:
   EMIN   =  10.00;   EMAX   =-10.00  energy-range for DOS
   EFERMI =   0.00
   ISMEAR =     0;   SIGMA  =   0.02  broadening in eV -4-tet -1-fermi 0-gaus

 Electronic relaxation 2 (details)
   IALGO  =     58    algorithm
   LDIAG  =      T    sub-space diagonalisation (order eigenvalues)
   LSUBROT=      F    optimize rotation matrix (better conditioning)
   TURBO    =      0    0=normal 1=particle mesh
   IRESTART =      0    0=no restart 2=restart with 2 vectors
   NREBOOT  =      0    no. of reboots
   NMIN     =      0    reboot dimension
   EREF     =   0.00    reference energy to select bands
   IMIX   =      4    mixing-type and parameters
     AMIX     =   0.40;   BMIX     =  1.00
     AMIX_MAG =   1.60;   BMIX_MAG =  1.00
     AMIN     =   0.10
     WC   =   100.;   INIMIX=   1;  MIXPRE=   1;  MAXMIX= -45

 Intra band minimization:
   WEIMIN = 0.0000     energy-eigenvalue tresh-hold
   EBREAK =  0.32E-11  absolut break condition
   DEPER  =   0.30     relativ break condition  

   TIME   =   0.40     timestep for ELM

  volume/ion in A,a.u.               =      10.11        68.25
  Fermi-wavevector in a.u.,A,eV,Ry     =   1.440421  2.722002 28.229559  2.074814
  Thomas-Fermi vector in A             =   2.559167
 
 Write flags
   LWAVE        =      T    write WAVECAR
   LDOWNSAMPLE  =      F    k-point downsampling of WAVECAR
   LCHARG       =      T    write CHGCAR
   LVTOT        =      F    write LOCPOT, total local potential
   LVHAR        =      F    write LOCPOT, Hartree potential only
   LELF         =      F    write electronic localiz. function (ELF)
   LORBIT       =      0    0 simple, 1 ext, 2 COOP (PROOUT), +10 PAW based schemes


 Dipole corrections
   LMONO  =      F    monopole corrections only (constant potential shift)
   LDIPOL =      F    correct potential (dipole corrections)
   IDIPOL =      0    1-x, 2-y, 3-z, 4-all directions 
   EPSILON=  1.0000000 bulk dielectric constant

 Exchange correlation treatment:
   GGA     =    --    GGA type
   LEXCH   =     8    internal setting for exchange type
   VOSKOWN=      0    Vosko Wilk Nusair interpolation
   LHFCALC =     F    Hartree Fock is set to
   LHFONE  =     F    Hartree Fock one center treatment
   AEXX    =    0.0000 exact exchange contribution

 Linear response parameters
   LEPSILON=     F    determine dielectric tensor
   LRPA    =     F    only Hartree local field effects (RPA)
   LNABLA  =     F    use nabla operator in PAW spheres
   LVEL    =     F    velocity operator in full k-point grid
   LINTERFAST=   F  fast interpolation
   KINTER  =     0    interpolate to denser k-point grid
   CSHIFT  =0.1000    complex shift for real part using Kramers Kronig
   OMEGAMAX=  -1.0    maximum frequency
   DEG_THRESHOLD= 0.2000000E-02 threshold for treating states as degnerate
   RTIME   =   -0.100 relaxation time in fs
  (WPLASMAI=    0.000 imaginary part of plasma frequency in eV, 0.658/RTIME)
   DFIELD  = 0.0000000 0.0000000 0.0000000 field for delta impulse in time
 
 Orbital magnetization related:
   ORBITALMAG=     F  switch on orbital magnetization
   LCHIMAG   =     F  perturbation theory with respect to B field
   DQ        =  0.001000  dq finite difference perturbation B field
   LLRAUG    =     F  two centre corrections for induced B field



--------------------------------------------------------------------------------------------------------


 Static calculation
 charge density and potential will be updated during run
 non-spin polarized calculation
 Conjugate gradient for all bands (Freysoldt, et al. PRB 79, 241103 (2009))
 preconditioned conjugated gradient                                        
 perform sub-space diagonalisation
    before iterative eigenvector-optimisation
 modified Broyden-mixing scheme, WC =      100.0
 initial mixing is a Kerker type mixing with AMIX =  0.4000 and BMIX =      1.0000
 Hartree-type preconditioning will be used
 using additional bands           16
 reciprocal scheme for non local part
 use partial core corrections
 no Harris-corrections to forces 
 use gradient corrections 
 use of overlap-Matrix (Vanderbilt PP)
 Gauss-broadening in eV      SIGMA  =   0.02


--------------------------------------------------------------------------------------------------------


  energy-cutoff  :      600.00
  volume of cell :      182.04
      direct lattice vectors                 reciprocal lattice vectors
     5.487243933  0.000000000 -3.270404897     0.182240850  0.062148462  0.000000000
    -1.771124136  5.193550353 -3.270404897     0.000000000  0.192546511  0.000000000
     0.000000000  0.000000000  6.387910000     0.093301466  0.130395652  0.156545725

  length of vectors
     6.387910000  6.387910000  6.387910000     0.192546511  0.192546511  0.224086487


 
 k-points in units of 2pi/SCALE and weight: EA                                      
   0.00000000  0.00000000  0.00000000       0.003
   0.02603441  0.00887835  0.00000000       0.010
   0.05206881  0.01775670  0.00000000       0.010
   0.07810322  0.02663506  0.00000000       0.010
   0.02603441  0.03638500  0.00000000       0.005
   0.05206881  0.04526335  0.00000000       0.010
   0.07810322  0.05414170  0.00000000       0.010
  -0.07810322  0.00087159  0.00000000       0.010
  -0.05206881  0.00974994  0.00000000       0.010
  -0.02603441  0.01862829  0.00000000       0.005
   0.05206881  0.07276999  0.00000000       0.005
   0.07810322  0.08164834  0.00000000       0.010
  -0.07810322  0.02837823  0.00000000       0.010
  -0.05206881  0.03725659  0.00000000       0.005
   0.07810322  0.10915499  0.00000000       0.005
  -0.07810322  0.05588488  0.00000000       0.005
   0.01166268  0.01629946  0.01956822       0.005
   0.03769709  0.02517781  0.01956822       0.010
   0.06373150  0.03405616  0.01956822       0.010
   0.08976590  0.04293451  0.01956822       0.010
  -0.06644054 -0.01033560  0.01956822       0.010
  -0.04040613 -0.00145725  0.01956822       0.010
  -0.01437172  0.00742110  0.01956822       0.010
   0.03769709  0.05268445  0.01956822       0.005
   0.06373150  0.06156280  0.01956822       0.010
   0.08976590  0.07044116  0.01956822       0.010
  -0.06644054  0.01717105  0.01956822       0.010
  -0.04040613  0.02604940  0.01956822       0.010
  -0.01437172  0.03492775  0.01956822       0.010
   0.06373150  0.08906945  0.01956822       0.005
   0.08976590  0.09794780  0.01956822       0.010
  -0.06644054  0.04467769  0.01956822       0.010
  -0.04040613  0.05355604  0.01956822       0.010
  -0.01437172  0.06243439  0.01956822       0.010
   0.08976590  0.12545445  0.01956822       0.005
  -0.06644054  0.07218433  0.01956822       0.010
  -0.04040613  0.08106269  0.01956822       0.010
  -0.01437172  0.08994104  0.01956822       0.010
  -0.06644054 -0.09285553  0.01956822       0.005
  -0.04040613 -0.08397718  0.01956822       0.010
  -0.01437172 -0.07509883  0.01956822       0.010
  -0.04040613 -0.05647054  0.01956822       0.005
  -0.01437172 -0.04759218  0.01956822       0.010
  -0.01437172 -0.02008554  0.01956822       0.005
   0.02332537  0.03259891  0.03913643       0.005
   0.04935977  0.04147726  0.03913643       0.010
   0.07539418  0.05035562  0.03913643       0.010
   0.10142859  0.05923397  0.03913643       0.010
  -0.05477785  0.00596386  0.03913643       0.010
  -0.02874345  0.01484221  0.03913643       0.010
  -0.00270904  0.02372056  0.03913643       0.010
   0.04935977  0.06898391  0.03913643       0.005
   0.07539418  0.07786226  0.03913643       0.010
   0.10142859  0.08674061  0.03913643       0.010
  -0.05477785  0.03347050  0.03913643       0.010
  -0.02874345  0.04234885  0.03913643       0.010
  -0.00270904  0.05122721  0.03913643       0.010
   0.07539418  0.10536891  0.03913643       0.005
   0.10142859  0.11424726  0.03913643       0.010
  -0.05477785  0.06097715  0.03913643       0.010
  -0.02874345  0.06985550  0.03913643       0.010
  -0.00270904  0.07873385  0.03913643       0.010
   0.10142859  0.14175390  0.03913643       0.005
  -0.05477785  0.08848379  0.03913643       0.010
  -0.02874345  0.09736214  0.03913643       0.010
  -0.00270904  0.10624049  0.03913643       0.010
  -0.05477785 -0.07655608  0.03913643       0.005
  -0.02874345 -0.06767772  0.03913643       0.010
  -0.00270904 -0.05879937  0.03913643       0.010
  -0.02874345 -0.04017108  0.03913643       0.005
  -0.00270904 -0.03129273  0.03913643       0.010
  -0.00270904 -0.00378608  0.03913643       0.005
   0.03498805  0.04889837  0.05870465       0.005
   0.06102246  0.05777672  0.05870465       0.010
   0.08705686  0.06665507  0.05870465       0.010
   0.11309127  0.07553342  0.05870465       0.010
  -0.04311517  0.02226331  0.05870465       0.010
  -0.01708076  0.03114167  0.05870465       0.010
   0.00895364  0.04002002  0.05870465       0.010
   0.06102246  0.08528337  0.05870465       0.005
   0.08705686  0.09416172  0.05870465       0.010
   0.11309127  0.10304007  0.05870465       0.010
  -0.04311517  0.04976996  0.05870465       0.010
  -0.01708076  0.05864831  0.05870465       0.010
   0.00895364  0.06752666  0.05870465       0.010
   0.08705686  0.12166836  0.05870465       0.005
   0.11309127  0.13054671  0.05870465       0.010
  -0.04311517  0.07727660  0.05870465       0.010
  -0.01708076  0.08615495  0.05870465       0.010
   0.00895364  0.09503331  0.05870465       0.010
   0.11309127  0.15805336  0.05870465       0.005
  -0.04311517  0.10478325  0.05870465       0.010
  -0.01708076  0.11366160  0.05870465       0.010
   0.00895364  0.12253995  0.05870465       0.010
  -0.04311517 -0.06025662  0.05870465       0.005
  -0.01708076 -0.05137827  0.05870465       0.010
   0.00895364 -0.04249992  0.05870465       0.010
  -0.01708076 -0.02387162  0.05870465       0.005
   0.00895364 -0.01499327  0.05870465       0.010
   0.00895364  0.01251337  0.05870465       0.005
   0.04665073  0.06519783  0.07827286       0.003
   0.07268514  0.07407618  0.07827286       0.010
   0.09871955  0.08295453  0.07827286       0.010
   0.12475395  0.09183288  0.07827286       0.010
   0.07268514  0.10158282  0.07827286       0.005
   0.09871955  0.11046117  0.07827286       0.010
   0.12475395  0.11933953  0.07827286       0.010
  -0.03145249  0.06606942  0.07827286       0.010
  -0.00541808  0.07494777  0.07827286       0.010
   0.02061633  0.08382612  0.07827286       0.005
   0.09871955  0.13796782  0.07827286       0.005
   0.12475395  0.14684617  0.07827286       0.010
  -0.03145249  0.09357606  0.07827286       0.010
  -0.00541808  0.10245441  0.07827286       0.005
   0.12475395  0.17435281  0.07827286       0.005
  -0.03145249  0.12108270  0.07827286       0.005
 
 k-points in reciprocal lattice and weights: EA                                      
   0.00000000  0.00000000  0.00000000       0.003
   0.14285714  0.00000000  0.00000000       0.010
   0.28571429  0.00000000  0.00000000       0.010
   0.42857143  0.00000000  0.00000000       0.010
   0.14285714  0.14285714  0.00000000       0.005
   0.28571429  0.14285714  0.00000000       0.010
   0.42857143  0.14285714  0.00000000       0.010
  -0.42857143  0.14285714  0.00000000       0.010
  -0.28571429  0.14285714  0.00000000       0.010
  -0.14285714  0.14285714  0.00000000       0.005
   0.28571429  0.28571429  0.00000000       0.005
   0.42857143  0.28571429  0.00000000       0.010
  -0.42857143  0.28571429  0.00000000       0.010
  -0.28571429  0.28571429  0.00000000       0.005
   0.42857143  0.42857143  0.00000000       0.005
  -0.42857143  0.42857143  0.00000000       0.005
   0.00000000  0.00000000  0.12500000       0.005
   0.14285714 -0.00000000  0.12500000       0.010
   0.28571429 -0.00000000  0.12500000       0.010
   0.42857143  0.00000000  0.12500000       0.010
  -0.42857143 -0.00000000  0.12500000       0.010
  -0.28571429 -0.00000000  0.12500000       0.010
  -0.14285714  0.00000000  0.12500000       0.010
   0.14285714  0.14285714  0.12500000       0.005
   0.28571429  0.14285714  0.12500000       0.010
   0.42857143  0.14285714  0.12500000       0.010
  -0.42857143  0.14285714  0.12500000       0.010
  -0.28571429  0.14285714  0.12500000       0.010
  -0.14285714  0.14285714  0.12500000       0.010
   0.28571429  0.28571429  0.12500000       0.005
   0.42857143  0.28571429  0.12500000       0.010
  -0.42857143  0.28571429  0.12500000       0.010
  -0.28571429  0.28571429  0.12500000       0.010
  -0.14285714  0.28571429  0.12500000       0.010
   0.42857143  0.42857143  0.12500000       0.005
  -0.42857143  0.42857143  0.12500000       0.010
  -0.28571429  0.42857143  0.12500000       0.010
  -0.14285714  0.42857143  0.12500000       0.010
  -0.42857143 -0.42857143  0.12500000       0.005
  -0.28571429 -0.42857143  0.12500000       0.010
  -0.14285714 -0.42857143  0.12500000       0.010
  -0.28571429 -0.28571429  0.12500000       0.005
  -0.14285714 -0.28571429  0.12500000       0.010
  -0.14285714 -0.14285714  0.12500000       0.005
   0.00000000  0.00000000  0.25000000       0.005
   0.14285714  0.00000000  0.25000000       0.010
   0.28571429  0.00000000  0.25000000       0.010
   0.42857143 -0.00000000  0.25000000       0.010
  -0.42857143 -0.00000000  0.25000000       0.010
  -0.28571429  0.00000000  0.25000000       0.010
  -0.14285714  0.00000000  0.25000000       0.010
   0.14285714  0.14285714  0.25000000       0.005
   0.28571429  0.14285714  0.25000000       0.010
   0.42857143  0.14285714  0.25000000       0.010
  -0.42857143  0.14285714  0.25000000       0.010
  -0.28571429  0.14285714  0.25000000       0.010
  -0.14285714  0.14285714  0.25000000       0.010
   0.28571429  0.28571429  0.25000000       0.005
   0.42857143  0.28571429  0.25000000       0.010
  -0.42857143  0.28571429  0.25000000       0.010
  -0.28571429  0.28571429  0.25000000       0.010
  -0.14285714  0.28571429  0.25000000       0.010
   0.42857143  0.42857143  0.25000000       0.005
  -0.42857143  0.42857143  0.25000000       0.010
  -0.28571429  0.42857143  0.25000000       0.010
  -0.14285714  0.42857143  0.25000000       0.010
  -0.42857143 -0.42857143  0.25000000       0.005
  -0.28571429 -0.42857143  0.25000000       0.010
  -0.14285714 -0.42857143  0.25000000       0.010
  -0.28571429 -0.28571429  0.25000000       0.005
  -0.14285714 -0.28571429  0.25000000       0.010
  -0.14285714 -0.14285714  0.25000000       0.005
   0.00000000  0.00000000  0.37500000       0.005
   0.14285714  0.00000000  0.37500000       0.010
   0.28571429  0.00000000  0.37500000       0.010
   0.42857143  0.00000000  0.37500000       0.010
  -0.42857143  0.00000000  0.37500000       0.010
  -0.28571429  0.00000000  0.37500000       0.010
  -0.14285714  0.00000000  0.37500000       0.010
   0.14285714  0.14285714  0.37500000       0.005
   0.28571429  0.14285714  0.37500000       0.010
   0.42857143  0.14285714  0.37500000       0.010
  -0.42857143  0.14285714  0.37500000       0.010
  -0.28571429  0.14285714  0.37500000       0.010
  -0.14285714  0.14285714  0.37500000       0.010
   0.28571429  0.28571429  0.37500000       0.005
   0.42857143  0.28571429  0.37500000       0.010
  -0.42857143  0.28571429  0.37500000       0.010
  -0.28571429  0.28571429  0.37500000       0.010
  -0.14285714  0.28571429  0.37500000       0.010
   0.42857143  0.42857143  0.37500000       0.005
  -0.42857143  0.42857143  0.37500000       0.010
  -0.28571429  0.42857143  0.37500000       0.010
  -0.14285714  0.42857143  0.37500000       0.010
  -0.42857143 -0.42857143  0.37500000       0.005
  -0.28571429 -0.42857143  0.37500000       0.010
  -0.14285714 -0.42857143  0.37500000       0.010
  -0.28571429 -0.28571429  0.37500000       0.005
  -0.14285714 -0.28571429  0.37500000       0.010
  -0.14285714 -0.14285714  0.37500000       0.005
   0.00000000  0.00000000  0.50000000       0.003
   0.14285714  0.00000000  0.50000000       0.010
   0.28571429  0.00000000  0.50000000       0.010
   0.42857143  0.00000000  0.50000000       0.010
   0.14285714  0.14285714  0.50000000       0.005
   0.28571429  0.14285714  0.50000000       0.010
   0.42857143  0.14285714  0.50000000       0.010
  -0.42857143  0.14285714  0.50000000       0.010
  -0.28571429  0.14285714  0.50000000       0.010
  -0.14285714  0.14285714  0.50000000       0.005
   0.28571429  0.28571429  0.50000000       0.005
   0.42857143  0.28571429  0.50000000       0.010
  -0.42857143  0.28571429  0.50000000       0.010
  -0.28571429  0.28571429  0.50000000       0.005
   0.42857143  0.42857143  0.50000000       0.005
  -0.42857143  0.42857143  0.50000000       0.005
 
 position of ions in fractional coordinates (direct lattice) 
   0.06151000  0.56151000  0.31974000
   0.93849000  0.43849000  0.68026000
   0.75823000  0.25823000  0.31974000
   0.56151000  0.24177000  0.50000000
   0.43849000  0.75823000  0.50000000
   0.74177000  0.06151000  0.50000000
   0.24177000  0.74177000  0.68026000
   0.25823000  0.93849000  0.50000000
   0.25000000  0.25000000  0.00000000
   0.32523000  0.82523000  0.15046000
   0.82523000  0.67477000  0.50000000
   0.17477000  0.32523000  0.50000000
   0.67477000  0.17477000  0.84954000
   0.75000000  0.75000000  0.00000000
   0.00000000  0.00000000  0.50000000
   0.50000000  0.50000000  0.50000000
   0.50000000  0.00000000  0.00000000
   0.00000000  0.50000000  0.00000000
 
 position of ions in cartesian coordinates  (Angst):
  -0.65698354  2.91623046  0.00494268
   4.37310334  2.27731989 -0.15784248
   3.70323558  1.34113051 -1.28176542
   2.65293766  1.25564467  0.56690415
   1.06318214  3.93790568 -0.71980395
   3.96133109  0.31945528  0.56690415
   0.01288421  3.85241985  1.12886562
  -0.24521129  4.87409507 -0.71980395
   0.92902995  1.29838759 -1.63520245
   0.32303157  4.28587356 -2.80134508
   3.33313688  3.50445197 -1.71165235
   0.38298292  1.68909838  1.55875255
   3.39308822  0.90767680  2.64844529
   2.78708985  3.89516276 -4.90560735
   0.00000000  0.00000000  3.19395500
   1.85805990  2.59677518 -0.07644990
   2.74362197  0.00000000 -1.63520245
  -0.88556207  2.59677518 -1.63520245
 


--------------------------------------------------------------------------------------------------------


 k-point   1 :   0.0000 0.0000 0.0000  plane waves:    6083
 k-point   2 :   0.1429 0.0000 0.0000  plane waves:    6071
 k-point   3 :   0.2857 0.0000 0.0000  plane waves:    6081
 k-point   4 :   0.4286 0.0000 0.0000  plane waves:    6089
 k-point   5 :   0.1429 0.1429 0.0000  plane waves:    6074
 k-point   6 :   0.2857 0.1429 0.0000  plane waves:    6088
 k-point   7 :   0.4286 0.1429 0.0000  plane waves:    6076
 k-point   8 :  -0.4286 0.1429 0.0000  plane waves:    6077
 k-point   9 :  -0.2857 0.1429 0.0000  plane waves:    6079
 k-point  10 :  -0.1429 0.1429 0.0000  plane waves:    6080
 k-point  11 :   0.2857 0.2857 0.0000  plane waves:    6059
 k-point  12 :   0.4286 0.2857 0.0000  plane waves:    6072
 k-point  13 :  -0.4286 0.2857 0.0000  plane waves:    6083
 k-point  14 :  -0.2857 0.2857 0.0000  plane waves:    6094
 k-point  15 :   0.4286 0.4286 0.0000  plane waves:    6061
 k-point  16 :  -0.4286 0.4286 0.0000  plane waves:    6072
 k-point  17 :   0.0000 0.0000 0.1250  plane waves:    6070
 k-point  18 :   0.1429-0.0000 0.1250  plane waves:    6076
 k-point  19 :   0.2857-0.0000 0.1250  plane waves:    6079
 k-point  20 :   0.4286 0.0000 0.1250  plane waves:    6075
 k-point  21 :  -0.4286-0.0000 0.1250  plane waves:    6091
 k-point  22 :  -0.2857-0.0000 0.1250  plane waves:    6079
 k-point  23 :  -0.1429 0.0000 0.1250  plane waves:    6067
 k-point  24 :   0.1429 0.1429 0.1250  plane waves:    6093
 k-point  25 :   0.2857 0.1429 0.1250  plane waves:    6064
 k-point  26 :   0.4286 0.1429 0.1250  plane waves:    6057
 k-point  27 :  -0.4286 0.1429 0.1250  plane waves:    6082
 k-point  28 :  -0.2857 0.1429 0.1250  plane waves:    6076
 k-point  29 :  -0.1429 0.1429 0.1250  plane waves:    6096
 k-point  30 :   0.2857 0.2857 0.1250  plane waves:    6068
 k-point  31 :   0.4286 0.2857 0.1250  plane waves:    6061
 k-point  32 :  -0.4286 0.2857 0.1250  plane waves:    6075
 k-point  33 :  -0.2857 0.2857 0.1250  plane waves:    6078
 k-point  34 :  -0.1429 0.2857 0.1250  plane waves:    6076
 k-point  35 :   0.4286 0.4286 0.1250  plane waves:    6065
 k-point  36 :  -0.4286 0.4286 0.1250  plane waves:    6071
 k-point  37 :  -0.2857 0.4286 0.1250  plane waves:    6082
 k-point  38 :  -0.1429 0.4286 0.1250  plane waves:    6080
 k-point  39 :  -0.4286-0.4286 0.1250  plane waves:    6060
 k-point  40 :  -0.2857-0.4286 0.1250  plane waves:    6075
 k-point  41 :  -0.1429-0.4286 0.1250  plane waves:    6086
 k-point  42 :  -0.2857-0.2857 0.1250  plane waves:    6080
 k-point  43 :  -0.1429-0.2857 0.1250  plane waves:    6077
 k-point  44 :  -0.1429-0.1429 0.1250  plane waves:    6092
 k-point  45 :   0.0000 0.0000 0.2500  plane waves:    6082
 k-point  46 :   0.1429 0.0000 0.2500  plane waves:    6078
 k-point  47 :   0.2857 0.0000 0.2500  plane waves:    6068
 k-point  48 :   0.4286-0.0000 0.2500  plane waves:    6061
 k-point  49 :  -0.4286-0.0000 0.2500  plane waves:    6076
 k-point  50 :  -0.2857 0.0000 0.2500  plane waves:    6076
 k-point  51 :  -0.1429 0.0000 0.2500  plane waves:    6074
 k-point  52 :   0.1429 0.1429 0.2500  plane waves:    6063
 k-point  53 :   0.2857 0.1429 0.2500  plane waves:    6061
 k-point  54 :   0.4286 0.1429 0.2500  plane waves:    6067
 k-point  55 :  -0.4286 0.1429 0.2500  plane waves:    6080
 k-point  56 :  -0.2857 0.1429 0.2500  plane waves:    6081
 k-point  57 :  -0.1429 0.1429 0.2500  plane waves:    6061
 k-point  58 :   0.2857 0.2857 0.2500  plane waves:    6065
 k-point  59 :   0.4286 0.2857 0.2500  plane waves:    6066
 k-point  60 :  -0.4286 0.2857 0.2500  plane waves:    6081
 k-point  61 :  -0.2857 0.2857 0.2500  plane waves:    6068
 k-point  62 :  -0.1429 0.2857 0.2500  plane waves:    6066
 k-point  63 :   0.4286 0.4286 0.2500  plane waves:    6060
 k-point  64 :  -0.4286 0.4286 0.2500  plane waves:    6066
 k-point  65 :  -0.2857 0.4286 0.2500  plane waves:    6077
 k-point  66 :  -0.1429 0.4286 0.2500  plane waves:    6073
 k-point  67 :  -0.4286-0.4286 0.2500  plane waves:    6092
 k-point  68 :  -0.2857-0.4286 0.2500  plane waves:    6073
 k-point  69 :  -0.1429-0.4286 0.2500  plane waves:    6078
 k-point  70 :  -0.2857-0.2857 0.2500  plane waves:    6076
 k-point  71 :  -0.1429-0.2857 0.2500  plane waves:    6084
 k-point  72 :  -0.1429-0.1429 0.2500  plane waves:    6074
 k-point  73 :   0.0000 0.0000 0.3750  plane waves:    6092
 k-point  74 :   0.1429 0.0000 0.3750  plane waves:    6055
 k-point  75 :   0.2857 0.0000 0.3750  plane waves:    6063
 k-point  76 :   0.4286 0.0000 0.3750  plane waves:    6069
 k-point  77 :  -0.4286 0.0000 0.3750  plane waves:    6088
 k-point  78 :  -0.2857 0.0000 0.3750  plane waves:    6081
 k-point  79 :  -0.1429 0.0000 0.3750  plane waves:    6076
 k-point  80 :   0.1429 0.1429 0.3750  plane waves:    6064
 k-point  81 :   0.2857 0.1429 0.3750  plane waves:    6072
 k-point  82 :   0.4286 0.1429 0.3750  plane waves:    6067
 k-point  83 :  -0.4286 0.1429 0.3750  plane waves:    6078
 k-point  84 :  -0.2857 0.1429 0.3750  plane waves:    6066
 k-point  85 :  -0.1429 0.1429 0.3750  plane waves:    6074
 k-point  86 :   0.2857 0.2857 0.3750  plane waves:    6070
 k-point  87 :   0.4286 0.2857 0.3750  plane waves:    6079
 k-point  88 :  -0.4286 0.2857 0.3750  plane waves:    6073
 k-point  89 :  -0.2857 0.2857 0.3750  plane waves:    6054
 k-point  90 :  -0.1429 0.2857 0.3750  plane waves:    6071
 k-point  91 :   0.4286 0.4286 0.3750  plane waves:    6092
 k-point  92 :  -0.4286 0.4286 0.3750  plane waves:    6085
 k-point  93 :  -0.2857 0.4286 0.3750  plane waves:    6092
 k-point  94 :  -0.1429 0.4286 0.3750  plane waves:    6079
 k-point  95 :  -0.4286-0.4286 0.3750  plane waves:    6085
 k-point  96 :  -0.2857-0.4286 0.3750  plane waves:    6081
 k-point  97 :  -0.1429-0.4286 0.3750  plane waves:    6076
 k-point  98 :  -0.2857-0.2857 0.3750  plane waves:    6076
 k-point  99 :  -0.1429-0.2857 0.3750  plane waves:    6084
 k-point 100 :  -0.1429-0.1429 0.3750  plane waves:    6073
 k-point 101 :   0.0000 0.0000 0.5000  plane waves:    6062
 k-point 102 :   0.1429 0.0000 0.5000  plane waves:    6062
 k-point 103 :   0.2857 0.0000 0.5000  plane waves:    6075
 k-point 104 :   0.4286 0.0000 0.5000  plane waves:    6084
 k-point 105 :   0.1429 0.1429 0.5000  plane waves:    6075
 k-point 106 :   0.2857 0.1429 0.5000  plane waves:    6069
 k-point 107 :   0.4286 0.1429 0.5000  plane waves:    6086
 k-point 108 :  -0.4286 0.1429 0.5000  plane waves:    6070
 k-point 109 :  -0.2857 0.1429 0.5000  plane waves:    6073
 k-point 110 :  -0.1429 0.1429 0.5000  plane waves:    6054
 k-point 111 :   0.2857 0.2857 0.5000  plane waves:    6079
 k-point 112 :   0.4286 0.2857 0.5000  plane waves:    6077
 k-point 113 :  -0.4286 0.2857 0.5000  plane waves:    6084
 k-point 114 :  -0.2857 0.2857 0.5000  plane waves:    6080
 k-point 115 :   0.4286 0.4286 0.5000  plane waves:    6089
 k-point 116 :  -0.4286 0.4286 0.5000  plane waves:    6100

 maximum and minimum number of plane-waves per node :      3079     2994

 maximum number of plane-waves:      6100
 maximum index in each direction: 
   IXMAX=   13   IYMAX=   13   IZMAX=   12
   IXMIN=  -13   IYMIN=  -13   IZMIN=  -13


 parallel 3D FFT for wavefunctions:
    minimum data exchange during FFTs selected (reduces bandwidth)
 parallel 3D FFT for charge:
    minimum data exchange during FFTs selected (reduces bandwidth)


 total amount of memory used by VASP MPI-rank0   443622. kBytes
=======================================================================

   base      :      30000. kBytes
   nonl-proj :     153921. kBytes
   fftplans  :      17763. kBytes
   grid      :      13358. kBytes
   one-center:        139. kBytes
   wavefun   :     228441. kBytes
 
     INWAV:  cpu time    0.0001: real time    0.0001
 Broyden mixing: mesh for mixing (old mesh)
   NGX = 25   NGY = 25   NGZ = 25
  (NGX  =108   NGY  =108   NGZ  =108)
  gives a total of  15625 points

 initial charge density was supplied:
 charge density of overlapping atoms calculated
 number of electron     124.0000000 magnetization 
 keeping initial charge density in first step


--------------------------------------------------------------------------------------------------------


 Maximum index for augmentation-charges        24520 (set IRDMAX)


--------------------------------------------------------------------------------------------------------


 First call to EWALD:  gamma=   0.313
 Maximum number of real-space cells 3x 3x 3
 Maximum number of reciprocal cells 3x 3x 3

    FEWALD:  cpu time    0.0032: real time    0.0032


--------------------------------------- Iteration      1(   1)  ---------------------------------------


    POTLOK:  cpu time    0.1440: real time    0.1458
    SETDIJ:  cpu time    0.6707: real time    0.6766
    TRIAL :  cpu time   34.7865: real time   35.2217
    CORREC:  cpu time    0.0026: real time    0.0026
    --------------------------------------------
      LOOP:  cpu time   35.7444: real time   36.1927

 eigenvalue-minimisations  : 18816
 total energy-change (2. order) : 0.1191812E+04  (-0.8301041E+04)
 number of electron     124.0000000 magnetization 
 augmentation part      124.0000000 magnetization 

 Free energy of the ion-electron system (eV)
  ---------------------------------------------------
  alpha Z        PSCENC =       685.86330696
  Ewald energy   TEWEN  =    -10458.82171408
  -Hartree energ DENC   =     -2329.60743898
  -exchange      EXHF   =         0.00000000
  -V(xc)+E(xc)   XCENC  =       522.73015492
  PAW double counting   =      9583.98494199    -9523.92957983
  entropy T*S    EENTRO =        -0.00112606
  eigenvalues    EBANDS =       556.27498118
  atomic energy  EATOM  =     12155.31816883
  ---------------------------------------------------
  free energy    TOTEN  =      1191.81169493 eV

  energy without entropy =     1191.81282100  energy(sigma->0) =     1191.81225796


--------------------------------------------------------------------------------------------------------




--------------------------------------- Iteration      1(   2)  ---------------------------------------


    TRIAL :  cpu time   39.0947: real time   39.4985
    CORREC:  cpu time    0.0024: real time    0.0024
    --------------------------------------------
      LOOP:  cpu time   39.0994: real time   39.5038

 eigenvalue-minimisations  : 20202
 total energy-change (2. order) :-0.1403101E+04  (-0.1363378E+04)
 number of electron     124.0000000 magnetization 
 augmentation part      124.0000000 magnetization 

 Free energy of the ion-electron system (eV)
  ---------------------------------------------------
  alpha Z        PSCENC =       685.86330696
  Ewald energy   TEWEN  =    -10458.82171408
  -Hartree energ DENC   =     -2329.60743898
  -exchange      EXHF   =         0.00000000
  -V(xc)+E(xc)   XCENC  =       522.73015492
  PAW double counting   =      9583.98494199    -9523.92957983
  entropy T*S    EENTRO =        -0.00189147
  eigenvalues    EBANDS =      -846.82544170
  atomic energy  EATOM  =     12155.31816883
  ---------------------------------------------------
  free energy    TOTEN  =      -211.28949336 eV

  energy without entropy =     -211.28760189  energy(sigma->0) =     -211.28854762


--------------------------------------------------------------------------------------------------------




--------------------------------------- Iteration      1(   3)  ---------------------------------------


    TRIAL :  cpu time   43.0240: real time   43.4613
    CORREC:  cpu time    0.0024: real time    0.0024
    --------------------------------------------
      LOOP:  cpu time   43.0288: real time   43.4667

 eigenvalue-minimisations  : 23664
 total energy-change (2. order) :-0.6812484E+02  (-0.6554207E+02)
 number of electron     124.0000000 magnetization 
 augmentation part      124.0000000 magnetization 

 Free energy of the ion-electron system (eV)
  ---------------------------------------------------
  alpha Z        PSCENC =       685.86330696
  Ewald energy   TEWEN  =    -10458.82171408
  -Hartree energ DENC   =     -2329.60743898
  -exchange      EXHF   =         0.00000000
  -V(xc)+E(xc)   XCENC  =       522.73015492
  PAW double counting   =      9583.98494199    -9523.92957983
  entropy T*S    EENTRO =        -0.00158509
  eigenvalues    EBANDS =      -914.95058982
  atomic energy  EATOM  =     12155.31816883
  ---------------------------------------------------
  free energy    TOTEN  =      -279.41433509 eV

  energy without entropy =     -279.41275000  energy(sigma->0) =     -279.41354255


--------------------------------------------------------------------------------------------------------




--------------------------------------- Iteration      1(   4)  ---------------------------------------


    TRIAL :  cpu time   40.3823: real time   40.8027
    CORREC:  cpu time    0.0025: real time    0.0026
    --------------------------------------------
      LOOP:  cpu time   40.3860: real time   40.8081

 eigenvalue-minimisations  : 22524
 total energy-change (2. order) :-0.1712587E+01  (-0.1684547E+01)
 number of electron     124.0000000 magnetization 
 augmentation part      124.0000000 magnetization 

 Free energy of the ion-electron system (eV)
  ---------------------------------------------------
  alpha Z        PSCENC =       685.86330696
  Ewald energy   TEWEN  =    -10458.82171408
  -Hartree energ DENC   =     -2329.60743898
  -exchange      EXHF   =         0.00000000
  -V(xc)+E(xc)   XCENC  =       522.73015492
  PAW double counting   =      9583.98494199    -9523.92957983
  entropy T*S    EENTRO =        -0.00144596
  eigenvalues    EBANDS =      -916.66331553
  atomic energy  EATOM  =     12155.31816883
  ---------------------------------------------------
  free energy    TOTEN  =      -281.12692167 eV

  energy without entropy =     -281.12547572  energy(sigma->0) =     -281.12619869


--------------------------------------------------------------------------------------------------------




--------------------------------------- Iteration      1(   5)  ---------------------------------------


    TRIAL :  cpu time   39.7652: real time   40.1902
    CORREC:  cpu time    0.0025: real time    0.0025
    CHARGE:  cpu time    2.7891: real time    2.8097
    --------------------------------------------
      LOOP:  cpu time   42.5588: real time   43.0054

 eigenvalue-minimisations  : 22548
 total energy-change (2. order) :-0.3387879E-01  (-0.3375939E-01)
 number of electron     124.0000000 magnetization 
 augmentation part       10.8444131 magnetization 

 Free energy of the ion-electron system (eV)
  ---------------------------------------------------
  alpha Z        PSCENC =       685.86330696
  Ewald energy   TEWEN  =    -10458.82171408
  -Hartree energ DENC   =     -2329.60743898
  -exchange      EXHF   =         0.00000000
  -V(xc)+E(xc)   XCENC  =       522.73015492
  PAW double counting   =      9583.98494199    -9523.92957983
  entropy T*S    EENTRO =        -0.00144800
  eigenvalues    EBANDS =      -916.69719228
  atomic energy  EATOM  =     12155.31816883
  ---------------------------------------------------
  free energy    TOTEN  =      -281.16080046 eV

  energy without entropy =     -281.15935246  energy(sigma->0) =     -281.16007646


--------------------------------------------------------------------------------------------------------




--------------------------------------- Iteration      1(   6)  ---------------------------------------


    POTLOK:  cpu time    0.1684: real time    0.1696
    SETDIJ:  cpu time    0.6941: real time    0.6994
    TRIAL :  cpu time   28.3899: real time   28.6823
    CORREC:  cpu time    9.7387: real time    9.8278
    CHARGE:  cpu time    2.7801: real time    2.8008
    --------------------------------------------
      LOOP:  cpu time   41.7804: real time   42.1894

 eigenvalue-minimisations  :     0
 total energy-change (2. order) : 0.1328755E+03  (-0.6451693E+02)
 number of electron     124.0000001 magnetization 
 augmentation part       14.4420245 magnetization 

 Free energy of the ion-electron system (eV)
  ---------------------------------------------------
  alpha Z        PSCENC =       685.86330696
  Ewald energy   TEWEN  =    -10458.82171408
  -Hartree energ DENC   =     -1767.12551545
  -exchange      EXHF   =         0.00000000
  -V(xc)+E(xc)   XCENC  =       520.10598897
  PAW double counting   =     21853.81124931   -21848.29510104
  entropy T*S    EENTRO =        -0.00138716
  eigenvalues    EBANDS =     -1289.14025927
  atomic energy  EATOM  =     12155.31816883
  ---------------------------------------------------
  free energy    TOTEN  =      -148.28532377 eV

  energy without entropy =     -148.28393660  energy(sigma->0) =     -148.28463018


--------------------------------------------------------------------------------------------------------




--------------------------------------- Iteration      1(   7)  ---------------------------------------


    POTLOK:  cpu time    0.1501: real time    0.1511
    SETDIJ:  cpu time    0.7059: real time    0.7112
    TRIAL :  cpu time   28.2617: real time   28.5557
    CORREC:  cpu time    9.7346: real time    9.8231
    CHARGE:  cpu time    2.8288: real time    2.8484
    --------------------------------------------
      LOOP:  cpu time   41.6879: real time   42.0976

 eigenvalue-minimisations  :     0
 total energy-change (2. order) :-0.6490856E+02  (-0.6634202E+01)
 number of electron     124.0000001 magnetization 
 augmentation part       13.7724479 magnetization 

 Free energy of the ion-electron system (eV)
  ---------------------------------------------------
  alpha Z        PSCENC =       685.86330696
  Ewald energy   TEWEN  =    -10458.82171408
  -Hartree energ DENC   =     -2167.13724665
  -exchange      EXHF   =         0.00000000
  -V(xc)+E(xc)   XCENC  =       536.59338347
  PAW double counting   =     21666.57852842   -21632.14014599
  entropy T*S    EENTRO =        -0.00164361
  eigenvalues    EBANDS =      -999.44678116
  atomic energy  EATOM  =     12155.31816883
  ---------------------------------------------------
  free energy    TOTEN  =      -213.19388736 eV

  energy without entropy =     -213.19224375  energy(sigma->0) =     -213.19306555


--------------------------------------------------------------------------------------------------------




--------------------------------------- Iteration      1(   8)  ---------------------------------------


    POTLOK:  cpu time    0.1486: real time    0.1496
    SETDIJ:  cpu time    0.6972: real time    0.7028
    TRIAL :  cpu time   28.2890: real time   28.5780
    CORREC:  cpu time    9.7662: real time    9.8543
    CHARGE:  cpu time    2.7765: real time    2.7966
    --------------------------------------------
      LOOP:  cpu time   41.6902: real time   42.0947

 eigenvalue-minimisations  :     0
 total energy-change (2. order) :-0.6619772E+01  (-0.2002868E+01)
 number of electron     124.0000001 magnetization 
 augmentation part       13.6725700 magnetization 

 Free energy of the ion-electron system (eV)
  ---------------------------------------------------
  alpha Z        PSCENC =       685.86330696
  Ewald energy   TEWEN  =    -10458.82171408
  -Hartree energ DENC   =     -2166.91964148
  -exchange      EXHF   =         0.00000000
  -V(xc)+E(xc)   XCENC  =       535.88567541
  PAW double counting   =     21799.00664972   -21761.71666005
  entropy T*S    EENTRO =        -0.00258679
  eigenvalues    EBANDS =     -1008.42780133
  atomic energy  EATOM  =     12155.31816883
  ---------------------------------------------------
  free energy    TOTEN  =      -219.81365963 eV

[...]
     74      14.4135      0.00000
     75      14.5207      0.00000
     76      14.6135      0.00000
     77      15.8133      0.00000
     78      16.1051      0.00000

 k-point   111 :       0.2857    0.2857    0.5000
  band No.  band energies     occupation 
      1     -50.6859      2.00000
      2     -50.6695      2.00000
      3     -50.6606      2.00000
      4     -50.6572      2.00000
      5     -50.5528      2.00000
      6     -50.5522      2.00000
      7     -24.5293      2.00000
      8     -24.4569      2.00000
      9     -24.4256      2.00000
     10     -24.4205      2.00000
     11     -24.4007      2.00000
     12     -24.3757      2.00000
     13     -24.2889      2.00000
     14     -24.2736      2.00000
     15     -24.2462      2.00000
     16     -24.2364      2.00000
     17     -24.2154      2.00000
     18     -24.2012      2.00000
     19     -24.0332      2.00000
     20     -23.9624      2.00000
     21     -23.9349      2.00000
     22     -23.8833      2.00000
     23     -23.7615      2.00000
     24     -23.7551      2.00000
     25      -3.8447      2.00000
     26      -3.0471      2.00000
     27      -0.6994      2.00000
     28       0.1270      2.00000
     29       0.5302      2.00000
     30       1.4014      2.00000
     31       2.0468      2.00000
     32       2.3454      2.00000
     33       2.5979      2.00000
     34       4.1823      2.00000
     35       4.7715      2.00000
     36       4.9818      2.00000
     37       5.1728      2.00000
     38       5.3482      2.00000
     39       5.6393      2.00000
     40       5.9698      2.00000
     41       6.0952      2.00000
     42       6.3795      2.00000
     43       6.6616      2.00000
     44       6.9780      2.00000
     45       7.2062      2.00000
     46       8.2880      2.00000
     47       8.4219      2.00000
     48       8.5350      2.00000
     49       8.6794      2.00000
     50       9.0827      2.00000
     51       9.4582      2.00000
     52       9.6906      2.00000
     53       9.9815      2.00000
     54      10.0480      2.00000
     55      10.3649      2.00000
     56      11.0365      2.00000
     57      11.0603      2.00000
     58      11.2293      2.00000
     59      11.2743      2.00000
     60      11.6989      2.00000
     61      11.7219      2.00000
     62      12.1507      2.00000
     63      12.4849      0.00000
     64      12.7110      0.00000
     65      12.8103      0.00000
     66      13.0435      0.00000
     67      13.1172      0.00000
     68      13.3347      0.00000
     69      13.4894      0.00000
     70      13.6506      0.00000
     71      13.7029      0.00000
     72      14.1939      0.00000
     73      14.3321      0.00000
     74      14.8635      0.00000
     75      15.0418      0.00000
     76      15.1697      0.00000
     77      15.5627      0.00000
     78      16.1576      0.00000

 k-point   112 :       0.4286    0.2857    0.5000
  band No.  band energies     occupation 
      1     -50.6872      2.00000
      2     -50.6679      2.00000
      3     -50.6598      2.00000
      4     -50.6576      2.00000
      5     -50.5536      2.00000
      6     -50.5522      2.00000
      7     -24.5398      2.00000
      8     -24.4416      2.00000
      9     -24.4246      2.00000
     10     -24.4062      2.00000
     11     -24.3834      2.00000
     12     -24.3802      2.00000
     13     -24.2879      2.00000
     14     -24.2694      2.00000
     15     -24.2547      2.00000
     16     -24.2470      2.00000
     17     -24.2176      2.00000
     18     -24.2112      2.00000
     19     -24.0298      2.00000
     20     -23.9618      2.00000
     21     -23.9345      2.00000
     22     -23.8753      2.00000
     23     -23.7695      2.00000
     24     -23.7683      2.00000
     25      -3.8174      2.00000
     26      -3.0166      2.00000
     27      -0.5243      2.00000
     28      -0.1364      2.00000
     29       0.8172      2.00000
     30       0.9784      2.00000
     31       1.6372      2.00000
     32       2.4457      2.00000
     33       3.0074      2.00000
     34       3.7201      2.00000
     35       4.8180      2.00000
     36       5.0352      2.00000
     37       5.3112      2.00000
     38       5.5055      2.00000
     39       5.8167      2.00000
     40       6.0563      2.00000
     41       6.2885      2.00000
     42       6.3537      2.00000
     43       6.8587      2.00000
     44       7.0480      2.00000
     45       7.1914      2.00000
     46       8.3210      2.00000
     47       8.4132      2.00000
     48       8.4722      2.00000
     49       8.7836      2.00000
     50       9.1490      2.00000
     51       9.5222      2.00000
     52       9.6671      2.00000
     53       9.9450      2.00000
     54      10.2521      2.00000
     55      10.2826      2.00000
     56      10.8779      2.00000
     57      11.0622      2.00000
     58      11.0978      2.00000
     59      11.2854      2.00000
     60      11.4871      2.00000
     61      11.7686      2.00000
     62      12.0658      2.00000
     63      12.4145      0.00000
     64      12.6499      0.00000
     65      12.7048      0.00000
     66      12.8368      0.00000
     67      12.9406      0.00000
     68      13.1263      0.00000
     69      13.3121      0.00000
     70      13.4355      0.00000
     71      13.8071      0.00000
     72      14.3196      0.00000
     73      14.4428      0.00000
     74      14.7131      0.00000
     75      14.8969      0.00000
     76      15.1613      0.00000
     77      15.3897      0.00000
     78      15.9424      0.00000

 k-point   113 :      -0.4286    0.2857    0.5000
  band No.  band energies     occupation 
      1     -50.6867      2.00000
      2     -50.6680      2.00000
      3     -50.6599      2.00000
      4     -50.6576      2.00000
      5     -50.5540      2.00000
      6     -50.5522      2.00000
      7     -24.5393      2.00000
      8     -24.4342      2.00000
      9     -24.4133      2.00000
     10     -24.4097      2.00000
     11     -24.3844      2.00000
     12     -24.3732      2.00000
     13     -24.2832      2.00000
     14     -24.2663      2.00000
     15     -24.2574      2.00000
     16     -24.2494      2.00000
     17     -24.2295      2.00000
     18     -24.2172      2.00000
     19     -24.0192      2.00000
     20     -23.9658      2.00000
     21     -23.9365      2.00000
     22     -23.8751      2.00000
     23     -23.7780      2.00000
     24     -23.7723      2.00000
     25      -3.7099      2.00000
     26      -3.0399      2.00000
     27      -0.5973      2.00000
     28      -0.1856      2.00000
     29       0.7191      2.00000
     30       0.8392      2.00000
     31       1.5854      2.00000
     32       2.5224      2.00000
     33       3.1226      2.00000
     34       3.7086      2.00000
     35       4.6403      2.00000
     36       5.0644      2.00000
     37       5.4864      2.00000
     38       5.6454      2.00000
     39       6.0279      2.00000
     40       6.2042      2.00000
     41       6.3430      2.00000
     42       6.3862      2.00000
     43       6.8974      2.00000
     44       6.9924      2.00000
     45       7.4158      2.00000
     46       8.2011      2.00000
     47       8.2944      2.00000
     48       8.3853      2.00000
     49       8.6789      2.00000
     50       9.2047      2.00000
     51       9.4201      2.00000
     52       9.7812      2.00000
     53       9.9522      2.00000
     54      10.2239      2.00000
     55      10.3021      2.00000
     56      10.9452      2.00000
     57      10.9956      2.00000
     58      11.1303      2.00000
     59      11.2312      2.00000
     60      11.6506      2.00000
     61      11.7330      2.00000
     62      12.0028      2.00000
     63      12.3133      0.00063
     64      12.5357      0.00000
     65      12.6253      0.00000
     66      12.7709      0.00000
     67      12.8653      0.00000
     68      13.0945      0.00000
     69      13.1977      0.00000
     70      13.3458      0.00000
     71      13.8135      0.00000
     72      14.2447      0.00000
     73      14.2877      0.00000
     74      14.5970      0.00000
     75      14.8966      0.00000
     76      15.1472      0.00000
     77      15.2323      0.00000
     78      15.4465      0.00000

 k-point   114 :      -0.2857    0.2857    0.5000
  band No.  band energies     occupation 
      1     -50.6847      2.00000
      2     -50.6695      2.00000
      3     -50.6611      2.00000
      4     -50.6571      2.00000
      5     -50.5541      2.00000
      6     -50.5519      2.00000
      7     -24.5268      2.00000
      8     -24.4408      2.00000
      9     -24.4404      2.00000
     10     -24.4011      2.00000
     11     -24.3747      2.00000
     12     -24.3713      2.00000
     13     -24.2794      2.00000
     14     -24.2660      2.00000
     15     -24.2611      2.00000
     16     -24.2439      2.00000
     17     -24.2426      2.00000
     18     -24.2078      2.00000
     19     -24.0063      2.00000
     20     -23.9750      2.00000
     21     -23.9412      2.00000
     22     -23.8820      2.00000
     23     -23.7784      2.00000
     24     -23.7656      2.00000
     25      -3.5665      2.00000
     26      -3.1349      2.00000
     27      -0.9219      2.00000
     28       0.2373      2.00000
     29       0.3861      2.00000
     30       0.7571      2.00000
     31       1.9278      2.00000
     32       2.2958      2.00000
     33       3.1554      2.00000
     34       4.2159      2.00000
     35       4.3550      2.00000
     36       5.2898      2.00000
     37       5.3141      2.00000
     38       5.6801      2.00000
     39       6.0856      2.00000
     40       6.0971      2.00000
     41       6.3023      2.00000
     42       6.4458      2.00000
     43       6.9717      2.00000
     44       6.9962      2.00000
     45       7.3848      2.00000
     46       8.1002      2.00000
     47       8.3818      2.00000
     48       8.3862      2.00000
     49       8.3911      2.00000
     50       8.8022      2.00000
     51       9.4003      2.00000
     52       9.7571      2.00000
     53      10.0442      2.00000
     54      10.2508      2.00000
     55      10.4955      2.00000
     56      10.8457      2.00000
     57      11.1510      2.00000
     58      11.1570      2.00000
     59      11.3923      2.00000
     60      11.4259      2.00000
     61      11.9537      2.00000
     62      12.1744      2.00000
     63      12.2682      0.81757
     64      12.4211      0.00000
     65      12.6519      0.00000
     66      12.8561      0.00000
     67      12.9667      0.00000
     68      13.2024      0.00000
     69      13.2240      0.00000
     70      13.3728      0.00000
     71      13.6663      0.00000
     72      13.9901      0.00000
     73      14.4408      0.00000
     74      14.5019      0.00000
     75      14.8398      0.00000
     76      15.0545      0.00000
     77      15.3194      0.00000
     78      15.4577      0.00000

 k-point   115 :       0.4286    0.4286    0.5000
  band No.  band energies     occupation 
      1     -50.6887      2.00000
      2     -50.6639      2.00000
      3     -50.6603      2.00000
      4     -50.6588      2.00000
      5     -50.5542      2.00000
      6     -50.5524      2.00000
      7     -24.5525      2.00000
      8     -24.4205      2.00000
      9     -24.4154      2.00000
     10     -24.3873      2.00000
     11     -24.3755      2.00000
     12     -24.3665      2.00000
     13     -24.3055      2.00000
     14     -24.2677      2.00000
     15     -24.2632      2.00000
     16     -24.2551      2.00000
     17     -24.2263      2.00000
     18     -24.2228      2.00000
     19     -24.0290      2.00000
     20     -23.9455      2.00000
     21     -23.9405      2.00000
     22     -23.8676      2.00000
     23     -23.7824      2.00000
     24     -23.7817      2.00000
     25      -3.8199      2.00000
     26      -2.8698      2.00000
     27      -0.5564      2.00000
     28      -0.4047      2.00000
     29       0.6175      2.00000
     30       1.1009      2.00000
     31       2.0824      2.00000
     32       2.3727      2.00000
     33       2.9163      2.00000
     34       3.1241      2.00000
     35       4.6589      2.00000
     36       4.9157      2.00000
     37       5.7617      2.00000
     38       5.8532      2.00000
     39       6.0751      2.00000
     40       6.0992      2.00000
     41       6.3549      2.00000
     42       6.3903      2.00000
     43       6.8917      2.00000
     44       7.1147      2.00000
     45       7.4175      2.00000
     46       8.2514      2.00000
     47       8.3172      2.00000
     48       8.3524      2.00000
     49       8.9462      2.00000
     50       9.4623      2.00000
     51       9.7427      2.00000
     52       9.7774      2.00000
     53      10.0074      2.00000
     54      10.0774      2.00000
     55      10.1434      2.00000
     56      10.8624      2.00000
     57      10.8842      2.00000
     58      11.0466      2.00000
     59      11.1534      2.00000
     60      11.5404      2.00000
     61      11.6850      2.00000
     62      11.9431      2.00000
     63      12.3654      0.00000
     64      12.4119      0.00000
     65      12.4892      0.00000
     66      12.7893      0.00000
     67      12.8138      0.00000
     68      13.0827      0.00000
     69      13.2362      0.00000
     70      13.3367      0.00000
     71      13.7267      0.00000
     72      13.8740      0.00000
     73      14.3975      0.00000
     74      14.9127      0.00000
     75      15.0296      0.00000
     76      15.1450      0.00000
     77      15.3573      0.00000
     78      15.6858      0.00000

 k-point   116 :      -0.4286    0.4286    0.5000
  band No.  band energies     occupation 
      1     -50.6885      2.00000
      2     -50.6640      2.00000
      3     -50.6602      2.00000
      4     -50.6589      2.00000
      5     -50.5544      2.00000
      6     -50.5524      2.00000
      7     -24.5525      2.00000
      8     -24.4138      2.00000
      9     -24.4084      2.00000
     10     -24.3907      2.00000
     11     -24.3785      2.00000
     12     -24.3654      2.00000
     13     -24.3045      2.00000
     14     -24.2636      2.00000
     15     -24.2585      2.00000
     16     -24.2579      2.00000
     17     -24.2332      2.00000
     18     -24.2284      2.00000
     19     -24.0247      2.00000
     20     -23.9465      2.00000
     21     -23.9413      2.00000
     22     -23.8675      2.00000
     23     -23.7859      2.00000
     24     -23.7841      2.00000
     25      -3.7775      2.00000
     26      -2.8718      2.00000
     27      -0.5848      2.00000
     28      -0.4304      2.00000
     29       0.5266      2.00000
     30       1.0914      2.00000
     31       2.0693      2.00000
     32       2.3642      2.00000
     33       2.9772      2.00000
     34       3.1451      2.00000
     35       4.6972      2.00000
     36       4.8120      2.00000
     37       5.7926      2.00000
     38       5.8833      2.00000
     39       6.2171      2.00000
     40       6.2425      2.00000
     41       6.3556      2.00000
     42       6.3938      2.00000
     43       6.9468      2.00000
     44       7.0417      2.00000
     45       7.5332      2.00000
     46       8.1702      2.00000
     47       8.2692      2.00000
     48       8.2844      2.00000
     49       8.9336      2.00000
     50       9.3962      2.00000
     51       9.7232      2.00000
     52       9.8171      2.00000
     53      10.0867      2.00000
     54      10.0999      2.00000
     55      10.1540      2.00000
     56      10.9401      2.00000
     57      10.9433      2.00000
     58      10.9605      2.00000
     59      11.2458      2.00000
     60      11.4864      2.00000
     61      11.6760      2.00000
     62      11.9166      2.00000
     63      12.1897      2.00000
     64      12.2787      0.33307
     65      12.4668      0.00000
     66      12.7841      0.00000
     67      12.8189      0.00000
     68      13.0977      0.00000
     69      13.1841      0.00000
     70      13.2498      0.00000
     71      13.6324      0.00000
     72      14.1185      0.00000
     73      14.1576      0.00000
     74      14.9163      0.00000
     75      14.9931      0.00000
     76      15.0680      0.00000
     77      15.2031      0.00000
     78      15.5365      0.00000


--------------------------------------------------------------------------------------------------------


 soft charge-density along one line, spin component           1
         0         1         2         3         4         5         6         7         8         9
 total charge-density along one line
 
 pseudopotential strength for first ion, spin component:           1
  5.862   8.871   0.006  -0.003   0.004   0.010  -0.003   0.007
  8.871  13.415   0.009  -0.005   0.006   0.015  -0.004   0.010
  0.006   0.009  -1.885  -0.009  -0.002  -3.121  -0.018  -0.005
 -0.003  -0.005  -0.009  -1.921  -0.007  -0.018  -3.190  -0.013
  0.004   0.006  -0.002  -0.007  -1.883  -0.005  -0.013  -3.118
  0.010   0.015  -3.121  -0.018  -0.005  -4.955  -0.034  -0.009
 -0.003  -0.004  -0.018  -3.190  -0.013  -0.034  -5.082  -0.024
  0.007   0.010  -0.005  -0.013  -3.118  -0.009  -0.024  -4.949
 total augmentation occupancy for first ion, spin component:           1
  3.967  -1.080   0.161  -0.061   0.115  -0.086   0.006  -0.061
 -1.080   0.325  -0.111  -0.019  -0.079   0.046  -0.001   0.033
  0.161  -0.111   2.902   0.526   0.202  -0.810  -0.166  -0.075
 -0.061  -0.019   0.526   4.181   0.377  -0.165  -1.121  -0.118
  0.115  -0.079   0.202   0.377   2.764  -0.075  -0.118  -0.759
 -0.086   0.046  -0.810  -0.165  -0.075   0.234   0.050   0.026
  0.006  -0.001  -0.166  -1.121  -0.118   0.050   0.316   0.036
 -0.061   0.033  -0.075  -0.118  -0.759   0.026   0.036   0.216


------------------------ aborting loop because EDIFF is reached ----------------------------------------




--------------------------------------------------------------------------------------------------------



  FREE ENERGIE OF THE ION-ELECTRON SYSTEM (eV)
  ---------------------------------------------------
  free  energy   TOTEN  =      -222.73111958 eV

  energy  without entropy=     -222.72867583  energy(sigma->0) =     -222.72989770
 


--------------------------------------------------------------------------------------------------------


    POTLOK:  cpu time    0.9469: real time    0.9550


--------------------------------------------------------------------------------------------------------


 writing wavefunctions
     LOOP+:  cpu time 1924.5849: real time 1944.8652
    4ORBIT:  cpu time    0.0000: real time    0.0000

 total amount of memory used by VASP MPI-rank0   443622. kBytes
=======================================================================

   base      :      30000. kBytes
   nonl-proj :     153921. kBytes
   fftplans  :      17763. kBytes
   grid      :      13358. kBytes
   one-center:        139. kBytes
   wavefun   :     228441. kBytes
 
  
  
 General timing and accounting informations for this job:
 ========================================================
  
                  Total CPU time used (sec):     1934.149
                            User time (sec):     1924.386
                          System time (sec):        9.764
                         Elapsed time (sec):     1958.097
  
                   Maximum memory used (kb):      696116.
                   Average memory used (kb):          N/A
  
                          Minor page faults:      2412468
                          Major page faults:         1471
                 Voluntary context switches:         3841
