 vasp.6.2.0 18Jan21 (build Jan 05 2022 15:41:44) complex                        
  
 executed on             LinuxIFC date 2025.05.07  14:45:43
 running on   24 total cores
 distrk:  each k-point on   12 cores,    2 groups
 distr:  one band on NCORE=   2 cores,    6 groups


--------------------------------------------------------------------------------------------------------


 INCAR:
   SYSTEM = routine with relax: pwdword
   ICHARG = 2
   NPAR = 6
   KPAR = 2
   NCORE = 2
   ADDGRID = T
   PREC = Acc
   ENCUT = 600
   METAGGA = R2SCAN
   LASPH = .TRUE.
   LMIXTAU = .FALSE.
   ALGO = A
   EDIFF = 1E-9
   NELM = 100
   NELMIN = 6
   IALGO = 38
   LREAL = F
   NSW = 0
   ISIF = -1
   ISMEAR = 0
   SIGMA = 0.02
   SYMPREC = 1E-4

 POTCAR:    PAW_PBE B 06Sep2000                   
 POTCAR:    PAW_PBE Mo_sv 02Feb2006               
 POTCAR:    PAW_PBE Si 05Jan2001                  
 -----------------------------------------------------------------------------
|                                                                             |
|           W    W    AA    RRRRR   N    N  II  N    N   GGGG   !!!           |
|           W    W   A  A   R    R  NN   N  II  NN   N  G    G  !!!           |
|           W    W  A    A  R    R  N N  N  II  N N  N  G       !!!           |
|           W WW W  AAAAAA  RRRRR   N  N N  II  N  N N  G  GGG   !            |
|           WW  WW  A    A  R   R   N   NN  II  N   NN  G    G                |
|           W    W  A    A  R    R  N    N  II  N    N   GGGG   !!!           |
|                                                                             |
|     For optimal performance we recommend to set                             |
|       NCORE = 2 up to number-of-cores-per-socket                            |
|     NCORE specifies how many cores store one orbital (NPAR=cpu/NCORE).      |
|     This setting can greatly improve the performance of VASP for DFT.       |
|     The default, NCORE=1 might be grossly inefficient on modern             |
|     multi-core architectures or massively parallel machines. Do your        |
|     own testing! More info at https://www.vasp.at/wiki/index.php/NCORE      |
|     Unfortunately you need to use the default for GW and RPA                |
|     calculations (for HF NCORE is supported but not extensively tested      |
|     yet).                                                                   |
|                                                                             |
 -----------------------------------------------------------------------------

 POTCAR:    PAW_PBE B 06Sep2000                   
   VRHFIN =B: s2p1                                                                                  
   LEXCH  = PE                                                                                      
   EATOM  =    71.1703 eV,    5.2309 Ry                                                             
                                                                                                    
   TITEL  = PAW_PBE B 06Sep2000                                                                     
   LULTRA =        F    use ultrasoft PP ?                                                          
   IUNSCR =        1    unscreen: 0-lin 1-nonlin 2-no                                               
   RPACOR =    1.200    partial core radius                                                         
   POMASS =   10.811; ZVAL   =    3.000    mass and valenz                                          
   RCORE  =    1.700    outmost cutoff radius                                                       
   RWIGS  =    1.710; RWIGS  =    0.905    wigner-seitz radius (au A)                               
   ENMAX  =  318.614; ENMIN  =  238.960 eV                                                          
   ICORE  =        2    local potential                                                             
   LCOR   =        T    correct aug charges                                                         
   LPAW   =        T    paw PP                                                                      
   EAUG   =  535.514                                                                                
   DEXC   =    0.000                                                                                
   RMAX   =    1.732    core radius for proj-oper                                                   
   RAUG   =    1.300    factor for augmentation sphere                                              
   RDEP   =    1.757    radius for radial grids                                                     
   RDEPT  =    1.436    core radius for aug-charge                                                  
                                                                                                    
   Atomic configuration                                                                             
    4 entries                                                                                       
     n  l   j            E        occ.                                                              
     1  0  0.50      -180.5896   2.0000                                                             
     2  0  0.50        -9.4431   2.0000                                                             
     2  1  0.50        -3.6068   1.0000                                                             
     3  2  1.50        -4.0817   0.0000                                                             
   Description                                                                                      
     l       E           TYP  RCUT    TYP  RCUT                                                     
     0     -9.4430752     23  1.500                                                                 
     0      0.8675899     23  1.500                                                                 
     1     -3.6067955     23  1.700                                                                 
     1      6.1086146     23  1.700                                                                 
     2     -4.0817478      7  1.700                                                                 
  local pseudopotential read in
  partial core-charges read in
  partial kinetic energy density read in
  atomic valenz-charges read in
  non local Contribution for L=           0  read in
    real space projection operators read in
  non local Contribution for L=           0  read in
    real space projection operators read in
  non local Contribution for L=           1  read in
    real space projection operators read in
  non local Contribution for L=           1  read in
    real space projection operators read in
    PAW grid and wavefunctions read in
 
   number of l-projection  operators is LMAX  =           4
   number of lm-projection operators is LMMAX =           8
 
 POTCAR:    PAW_PBE Mo_sv 02Feb2006               
   VRHFIN =Mo: 4p5s4d                                                                               
   LEXCH  = PE                                                                                      
   EATOM  =  1862.2866 eV,  136.8742 Ry                                                             
                                                                                                    
   TITEL  = PAW_PBE Mo_sv 02Feb2006                                                                 
   LULTRA =        F    use ultrasoft PP ?                                                          
   IUNSCR =        1    unscreen: 0-lin 1-nonlin 2-no                                               
   RPACOR =    2.200    partial core radius                                                         
   POMASS =   95.940; ZVAL   =   14.000    mass and valenz                                          
   RCORE  =    2.500    outmost cutoff radius                                                       
   RWIGS  =    2.750; RWIGS  =    1.455    wigner-seitz radius (au A)                               
   ENMAX  =  242.676; ENMIN  =  182.007 eV                                                          
   ICORE  =        3    local potential                                                             
   LCOR   =        T    correct aug charges                                                         
   LPAW   =        T    paw PP                                                                      
   EAUG   =  446.014                                                                                
   DEXC   =    0.000                                                                                
   RMAX   =    2.563    core radius for proj-oper                                                   
   RAUG   =    1.300    factor for augmentation sphere                                              
   RDEP   =    2.641    radius for radial grids                                                     
   RDEPT  =    2.031    core radius for aug-charge                                                  
                                                                                                    
   Atomic configuration                                                                             
   11 entries                                                                                       
     n  l   j            E        occ.                                                              
     1  0  0.50    -19819.0341   2.0000                                                             
     2  0  0.50     -2799.0127   2.0000                                                             
     2  1  1.50     -2502.0276   6.0000                                                             
     3  0  0.50      -476.4449   2.0000                                                             
     3  1  1.50      -379.1496   6.0000                                                             
     3  2  2.50      -220.9367  10.0000                                                             
     4  0  0.50       -64.3378   2.0000                                                             
     5  0  0.50        -4.0862   1.0000                                                             
     4  1  1.50       -38.4773   6.0000                                                             
     4  2  2.50        -3.7535   5.0000                                                             
     4  3  2.50        -1.3606   0.0000                                                             
   Description                                                                                      
     l       E           TYP  RCUT    TYP  RCUT                                                     
     0    -64.3377829     23  2.100                                                                 
     0     -4.0861640     23  2.400                                                                 
     1    -38.4772993     23  2.100                                                                 
     1     13.6058260     23  2.100                                                                 
     2     -3.7534941     23  2.400                                                                 
     2     -5.1140767     23  2.400                                                                 
     3     -4.0817478     23  2.500                                                                 
  local pseudopotential read in
  partial core-charges read in
  partial kinetic energy density read in
  atomic valenz-charges read in
  non local Contribution for L=           0  read in
    real space projection operators read in
  non local Contribution for L=           0  read in
    real space projection operators read in
  non local Contribution for L=           1  read in
    real space projection operators read in
  non local Contribution for L=           1  read in
    real space projection operators read in
  non local Contribution for L=           2  read in
    real space projection operators read in
  non local Contribution for L=           2  read in
    real space projection operators read in
    PAW grid and wavefunctions read in
 
   number of l-projection  operators is LMAX  =           6
   number of lm-projection operators is LMMAX =          18
 
 POTCAR:    PAW_PBE Si 05Jan2001                  
   VRHFIN =Si: s2p2                                                                                 
   LEXCH  = PE                                                                                      
   EATOM  =   103.0669 eV,    7.5752 Ry                                                             
                                                                                                    
   TITEL  = PAW_PBE Si 05Jan2001                                                                    
   LULTRA =        F    use ultrasoft PP ?                                                          
   IUNSCR =        1    unscreen: 0-lin 1-nonlin 2-no                                               
   RPACOR =    1.500    partial core radius                                                         
   POMASS =   28.085; ZVAL   =    4.000    mass and valenz                                          
   RCORE  =    1.900    outmost cutoff radius                                                       
   RWIGS  =    2.480; RWIGS  =    1.312    wigner-seitz radius (au A)                               
   ENMAX  =  245.345; ENMIN  =  184.009 eV                                                          
   ICORE  =        2    local potential                                                             
   LCOR   =        T    correct aug charges                                                         
   LPAW   =        T    paw PP                                                                      
   EAUG   =  322.069                                                                                
   DEXC   =    0.000                                                                                
   RMAX   =    1.950    core radius for proj-oper                                                   
   RAUG   =    1.300    factor for augmentation sphere                                              
   RDEP   =    1.993    radius for radial grids                                                     
   RDEPT  =    1.837    core radius for aug-charge                                                  
                                                                                                    
   Atomic configuration                                                                             
    6 entries                                                                                       
     n  l   j            E        occ.                                                              
     1  0  0.50     -1785.8828   2.0000                                                             
     2  0  0.50      -139.4969   2.0000                                                             
     2  1  1.50       -95.5546   6.0000                                                             
     3  0  0.50       -10.8127   2.0000                                                             
     3  1  0.50        -4.0811   2.0000                                                             
     3  2  1.50        -4.0817   0.0000                                                             
   Description                                                                                      
     l       E           TYP  RCUT    TYP  RCUT                                                     
     0    -10.8127223     23  1.900                                                                 
     0     -7.6451159     23  1.900                                                                 
     1     -4.0811372     23  1.900                                                                 
     1      2.4879257     23  1.900                                                                 
     2     -4.0817478      7  1.900                                                                 
  local pseudopotential read in
  partial core-charges read in
  partial kinetic energy density read in
  atomic valenz-charges read in
  non local Contribution for L=           0  read in
    real space projection operators read in
  non local Contribution for L=           0  read in
    real space projection operators read in
  non local Contribution for L=           1  read in
    real space projection operators read in
  non local Contribution for L=           1  read in
    real space projection operators read in
    PAW grid and wavefunctions read in
 
   number of l-projection  operators is LMAX  =           4
   number of lm-projection operators is LMMAX =           8
 
  PAW_PBE B 06Sep2000                   :
 energy of atom  1       EATOM=  -71.1703
 kinetic energy error for atom=    0.0007 (will be added to EATOM!!)
  PAW_PBE Mo_sv 02Feb2006               :
 energy of atom  2       EATOM=-1862.2866
 kinetic energy error for atom=    0.0041 (will be added to EATOM!!)
  PAW_PBE Si 05Jan2001                  :
 energy of atom  3       EATOM= -103.0669
 kinetic energy error for atom=    0.0003 (will be added to EATOM!!)
 
 
 POSCAR: EA31
  positions in direct lattice
  No initial velocities read in

 METAGGA = R2SCA    LMAXTAU =  6    LMIXTAU =  F

 exchange correlation table for  LEXCH =        8
   RHO(1)=    0.500       N(1)  =     2000
   RHO(2)=  100.500       N(2)  =     4000
 


--------------------------------------------------------------------------------------------------------


 ion  position               nearest neighbor table
   1  0.250  0.250  0.000-   4 2.26  10 2.26  13 2.26   7 2.26   8 2.59  12 2.59  14 2.59   6 2.59
                             3 2.59   5 2.59   9 2.59  11 2.59
   2  0.750  0.750  0.000-  10 2.26   4 2.26  13 2.26   7 2.26   6 2.59  14 2.59  12 2.59   8 2.59
                             5 2.59   3 2.59   9 2.59  11 2.59
   3  0.672  0.172  0.158-   7 1.27  16 2.35   5 2.55   1 2.59   2 2.59  10 2.93   4 2.93  14 3.04
                             8 3.04   9 3.09  12 3.35   6 3.35   6 3.35  12 3.35
   4  0.500  0.500  0.500-  12 1.27  14 1.27   2 2.26   1 2.26   9 2.93  11 2.93   3 2.93   5 2.93
                            13 3.19   7 3.19   7 3.19  13 3.19
   5  0.328  0.828  0.842-   7 1.27  16 2.35   3 2.55   2 2.59   1 2.59  10 2.93   4 2.93  12 3.04
                             6 3.04  11 3.09   8 3.35  14 3.35  14 3.35   8 3.35
   6  0.172  0.014  0.500-  10 1.27  15 2.35   8 2.55   2 2.59   1 2.59  13 2.93   7 2.93  11 3.04
                             5 3.04  12 3.09   9 3.35   3 3.35   9 3.35   3 3.35
   7  0.500  0.000  0.000-   3 1.27   5 1.27   1 2.26   2 2.26   8 2.93  14 2.93   6 2.93  12 2.93
                            10 3.19   4 3.19   4 3.19  10 3.19
   8  0.828  0.986  0.500-  10 1.27  15 2.35   6 2.55   1 2.59   2 2.59  13 2.93   7 2.93   9 3.04
                             3 3.04  14 3.09  11 3.35   5 3.35  11 3.35   5 3.35
   9  0.014  0.514  0.842-  13 1.27  16 2.35  11 2.55   2 2.59   1 2.59  10 2.93   4 2.93   8 3.04
                            14 3.04   3 3.09   6 3.35  12 3.35  12 3.35   6 3.35
  10  0.000  0.000  0.500-   6 1.27   8 1.27   1 2.26   2 2.26   9 2.93  11 2.93   3 2.93   5 2.93
                             7 3.19  13 3.19  13 3.19   7 3.19
  11  0.986  0.486  0.158-  13 1.27  16 2.35   9 2.55   2 2.59   1 2.59  10 2.93   4 2.93   6 3.04
                            12 3.04   5 3.09   8 3.35  14 3.35  14 3.35   8 3.35
  12  0.514  0.672  0.500-   4 1.27  15 2.35  14 2.55   1 2.59   2 2.59  13 2.93   7 2.93  11 3.04
                             5 3.04   6 3.09   9 3.35   3 3.35   3 3.35   9 3.35
  13  0.000  0.500  0.000-   9 1.27  11 1.27   1 2.26   2 2.26   6 2.93   8 2.93  12 2.93  14 2.93
                            10 3.19  10 3.19   4 3.19   4 3.19
  14  0.486  0.328  0.500-   4 1.27  15 2.35  12 2.55   2 2.59   1 2.59  13 2.93   7 2.93   9 3.04
                             3 3.04   8 3.09  11 3.35   5 3.35   5 3.35  11 3.35
  15  0.500  0.000  0.500-   6 2.35   8 2.35  12 2.35  14 2.35
  16  0.000  0.500  0.500-   3 2.35   5 2.35   9 2.35  11 2.35
 
 -----------------------------------------------------------------------------
|                                                                             |
|           W    W    AA    RRRRR   N    N  II  N    N   GGGG   !!!           |
|           W    W   A  A   R    R  NN   N  II  NN   N  G    G  !!!           |
|           W    W  A    A  R    R  N N  N  II  N N  N  G       !!!           |
|           W WW W  AAAAAA  RRRRR   N  N N  II  N  N N  G  GGG   !            |
|           WW  WW  A    A  R   R   N   NN  II  N   NN  G    G                |
|           W    W  A    A  R    R  N    N  II  N    N   GGGG   !!!           |
|                                                                             |
|     The distance between some ions is very small. Please check the          |
|     nearest-neighbor list in the OUTCAR file.                               |
|     I HOPE YOU KNOW WHAT YOU ARE DOING!                                     |
|                                                                             |
 -----------------------------------------------------------------------------

  LATTYP: Found a body centered tetragonal cell.
 ALAT       =     6.3847141949
 C/A-ratio  =     1.7743581803
  
  Lattice vectors:
  
 A1 = (   5.7311960121,   0.0000000000,  -4.4295716545)
 A2 = (  -1.3816146788,   5.5621712135,  -4.4295716545)
 A3 = (   0.0000000000,   0.0000000000,   7.2434600000)


Analysis of symmetry for initial positions (statically):
=====================================================================
 Subroutine PRICEL returns:
 Original cell was already a primitive cell.
 

 Routine SETGRP: Setting up the symmetry group for a 
 body centered tetragonal supercell.


 Subroutine GETGRP returns: Found 16 space group operations
 (whereof  8 operations were pure point group operations)
 out of a pool of 16 trial point group operations.


The static configuration has the point symmetry C_4h.
 The point group associated with its full space group is D_4h.


Analysis of symmetry for dynamics (positions and initial velocities):
=====================================================================
 Subroutine PRICEL returns:
 Original cell was already a primitive cell.
 

 Routine SETGRP: Setting up the symmetry group for a 
 body centered tetragonal supercell.


 Subroutine GETGRP returns: Found 16 space group operations
 (whereof  8 operations were pure point group operations)
 out of a pool of 16 trial point group operations.


The dynamic configuration has the point symmetry C_4h.
 The point group associated with its full space group is D_4h.


 Subroutine INISYM returns: Found 16 space group operations
 (whereof  8 operations are pure point group operations),
 and found     1 'primitive' translations


----------------------------------------------------------------------------------------

                                     Primitive cell                                     

  volume of cell :     230.9062

  direct lattice vectors                    reciprocal lattice vectors
     5.731196012  0.000000000 -4.429571655     0.174483650  0.043340840  0.000000000
    -1.381614679  5.562171214 -4.429571655     0.000000000  0.179785908  0.000000000
     0.000000000  0.000000000  7.243460000     0.106701470  0.136448040  0.138055570

  length of vectors
     7.243460000  7.243460000  7.243460000     0.179785908  0.179785908  0.221500816

  position of ions in fractional coordinates (direct lattice)
     0.250000000  0.250000000  1.000000000
     0.750000000  0.750000000  1.000000000
     0.672110000  0.172110000  0.157680000
     0.500000000  0.500000000  0.500000000
     0.327890000  0.827890000  0.842320000
     0.172110000  0.014430000  0.500000000
     0.500000000  0.000000000  1.000000000
     0.827890000  0.985570000  0.500000000
     0.014430000  0.514430000  0.842320000
     0.000000000  0.000000000  0.500000000
     0.985570000  0.485570000  0.157680000
     0.514430000  0.672110000  0.500000000
     0.000000000  0.500000000  0.000000000
     0.485570000  0.327890000  0.500000000
     0.500000000  0.000000000  0.500000000
     0.000000000  0.500000000  0.500000000

  ion indices of the primitive-cell ions
   primitive index   ion index
                 1           1
                 2           2
                 3           3
                 4           4
                 5           5
                 6           6
                 7           7
                 8           8
                 9           9
                10          10
                11          11
                12          12
                13          13
                14          14
                15          15
                16          16

----------------------------------------------------------------------------------------

 
 
 KPOINTS: EA                                      

Automatic generation of k-mesh.
 Grid dimensions read from file:
 generate k-points for:    6    6    8

 Generating k-lattice:

  Cartesian coordinates                     Fractional coordinates (reciprocal lattice)
     0.029080608  0.007223473  0.000000000     0.166666667  0.000000000  0.000000000
     0.000000000  0.029964318  0.000000000     0.000000000  0.166666667  0.000000000
     0.013337684  0.017056005  0.017256946    -0.000000000  0.000000000  0.125000000

  Length of vectors
     0.029964318  0.029964318  0.027687602

  Shift w.r.t. Gamma in fractional coordinates (k-lattice)
     0.000000000  0.000000000  0.000000000

 -----------------------------------------------------------------------------
|                                                                             |
|           W    W    AA    RRRRR   N    N  II  N    N   GGGG   !!!           |
|           W    W   A  A   R    R  NN   N  II  NN   N  G    G  !!!           |
|           W    W  A    A  R    R  N N  N  II  N N  N  G       !!!           |
|           W WW W  AAAAAA  RRRRR   N  N N  II  N  N N  G  GGG   !            |
|           WW  WW  A    A  R   R   N   NN  II  N   NN  G    G                |
|           W    W  A    A  R    R  N    N  II  N    N   GGGG   !!!           |
|                                                                             |
|     Your reciprocal lattice and k-lattice belong to different lattice       |
|     classes:                                                                |
|                                                                             |
|        The reciprocal lattice is body-centered tetragonal,                  |
|        whereas your k-lattice is base-centered monoclinic.                  |
|                                                                             |
|     Results are often still useful ...                                      |
|                                                                             |
 -----------------------------------------------------------------------------

 WARNING: IBZKPT: internal override: KBLOWUP is changed to .FALSE.
      ... skipping the blow-up phase ...

 
 Subroutine IBZKPT returns following result:
 ===========================================
 
 Found     81 irreducible k-points:
 
 Following reciprocal coordinates:
            Coordinates               Weight
  0.000000  0.000000  0.000000      1.000000
  0.166667  0.000000  0.000000      4.000000
  0.333333 -0.000000  0.000000      4.000000
  0.500000 -0.000000  0.000000      4.000000
  0.166667  0.166667  0.000000      2.000000
  0.333333  0.166667  0.000000      8.000000
  0.500000  0.166667  0.000000      8.000000
 -0.333333  0.166667  0.000000      4.000000
 -0.166667  0.166667  0.000000      2.000000
  0.333333  0.333333  0.000000      2.000000
  0.500000  0.333333  0.000000      8.000000
 -0.333333  0.333333  0.000000      2.000000
  0.500000  0.500000  0.000000      2.000000
  0.000000  0.000000  0.125000      2.000000
  0.166667  0.000000  0.125000      4.000000
  0.333333  0.000000  0.125000      4.000000
  0.500000 -0.000000  0.125000      8.000000
 -0.333333  0.000000  0.125000      4.000000
 -0.166667  0.000000  0.125000      4.000000
  0.166667  0.166667  0.125000      2.000000
  0.333333  0.166667  0.125000      8.000000
  0.500000  0.166667  0.125000      4.000000
 -0.333333  0.166667  0.125000      4.000000
 -0.166667  0.166667  0.125000      4.000000
  0.333333  0.333333  0.125000      2.000000
  0.500000  0.333333  0.125000      4.000000
 -0.333333  0.333333  0.125000      4.000000
 -0.166667  0.333333  0.125000      4.000000
  0.500000  0.500000  0.125000      2.000000
 -0.333333  0.500000  0.125000      4.000000
 -0.166667  0.500000  0.125000      4.000000
 -0.333333 -0.333333  0.125000      2.000000
 -0.166667 -0.333333  0.125000      8.000000
 -0.166667 -0.166667  0.125000      2.000000
  0.000000  0.000000  0.250000      2.000000
  0.166667 -0.000000  0.250000      4.000000
  0.333333  0.000000  0.250000      4.000000
  0.500000 -0.000000  0.250000      4.000000
 -0.333333  0.000000  0.250000      4.000000
 -0.166667  0.000000  0.250000      4.000000
  0.166667  0.166667  0.250000      2.000000
  0.333333  0.166667  0.250000      4.000000
  0.500000  0.166667  0.250000      4.000000
 -0.333333  0.166667  0.250000      4.000000
 -0.166667  0.166667  0.250000      4.000000
  0.333333  0.333333  0.250000      2.000000
  0.500000  0.333333  0.250000      4.000000
 -0.333333  0.333333  0.250000      4.000000
 -0.166667  0.333333  0.250000      4.000000
  0.500000  0.500000  0.250000      2.000000
 -0.333333  0.500000  0.250000      4.000000
 -0.166667  0.500000  0.250000      4.000000
 -0.333333 -0.333333  0.250000      2.000000
 -0.166667 -0.333333  0.250000      4.000000
 -0.166667 -0.166667  0.250000      2.000000
 -0.000000  0.000000  0.375000      2.000000
  0.166667 -0.000000  0.375000      4.000000
  0.333333 -0.000000  0.375000      4.000000
 -0.333333  0.000000  0.375000      4.000000
 -0.166667  0.000000  0.375000      4.000000
  0.166667  0.166667  0.375000      2.000000
  0.500000  0.166667  0.375000      4.000000
 -0.333333  0.166667  0.375000      4.000000
 -0.166667  0.166667  0.375000      4.000000
  0.333333  0.333333  0.375000      2.000000
  0.500000  0.333333  0.375000      4.000000
 -0.333333  0.333333  0.375000      4.000000
 -0.166667  0.333333  0.375000      4.000000
  0.500000  0.500000  0.375000      2.000000
 -0.333333  0.500000  0.375000      4.000000
 -0.166667  0.500000  0.375000      4.000000
 -0.333333 -0.333333  0.375000      2.000000
 -0.166667 -0.166667  0.375000      2.000000
  0.166667  0.166667  0.500000      2.000000
  0.500000  0.166667  0.500000      4.000000
 -0.333333  0.166667  0.500000      4.000000
 -0.166667  0.166667  0.500000      2.000000
  0.333333  0.333333  0.500000      2.000000
  0.500000  0.333333  0.500000      4.000000
 -0.333333  0.333333  0.500000      2.000000
  0.500000  0.500000  0.500000      1.000000
 
 Following cartesian coordinates:
            Coordinates               Weight
  0.000000  0.000000  0.000000      1.000000
  0.029081  0.007223  0.000000      4.000000
  0.058161  0.014447  0.000000      4.000000
  0.087242  0.021670  0.000000      4.000000
  0.029081  0.037188  0.000000      2.000000
  0.058161  0.044411  0.000000      8.000000
  0.087242  0.051635  0.000000      8.000000
 -0.058161  0.015517  0.000000      4.000000
 -0.029081  0.022741  0.000000      2.000000
  0.058161  0.074376  0.000000      2.000000
  0.087242  0.081599  0.000000      8.000000
 -0.058161  0.045482  0.000000      2.000000
  0.087242  0.111563  0.000000      2.000000
  0.013338  0.017056  0.017257      2.000000
  0.042418  0.024279  0.017257      4.000000
  0.071499  0.031503  0.017257      4.000000
  0.100580  0.038726  0.017257      8.000000
 -0.044824  0.002609  0.017257      4.000000
 -0.015743  0.009833  0.017257      4.000000
  0.042418  0.054244  0.017257      2.000000
  0.071499  0.061467  0.017257      8.000000
  0.100580  0.068691  0.017257      4.000000
 -0.044824  0.032573  0.017257      4.000000
 -0.015743  0.039797  0.017257      4.000000
  0.071499  0.091432  0.017257      2.000000
  0.100580  0.098655  0.017257      4.000000
 -0.044824  0.062538  0.017257      4.000000
 -0.015743  0.069761  0.017257      4.000000
  0.100580  0.128619  0.017257      2.000000
 -0.044824  0.092502  0.017257      4.000000
 -0.015743  0.099725  0.017257      4.000000
 -0.044824 -0.057320  0.017257      2.000000
 -0.015743 -0.050096  0.017257      8.000000
 -0.015743 -0.020132  0.017257      2.000000
  0.026675  0.034112  0.034514      2.000000
  0.055756  0.041335  0.034514      4.000000
  0.084837  0.048559  0.034514      4.000000
  0.113917  0.055782  0.034514      4.000000
 -0.031486  0.019665  0.034514      4.000000
 -0.002405  0.026889  0.034514      4.000000
  0.055756  0.071300  0.034514      2.000000
  0.084837  0.078523  0.034514      4.000000
  0.113917  0.085747  0.034514      4.000000
 -0.031486  0.049629  0.034514      4.000000
 -0.002405  0.056853  0.034514      4.000000
  0.084837  0.108488  0.034514      2.000000
  0.113917  0.115711  0.034514      4.000000
 -0.031486  0.079594  0.034514      4.000000
 -0.002405  0.086817  0.034514      4.000000
  0.113917  0.145675  0.034514      2.000000
 -0.031486  0.109558  0.034514      4.000000
 -0.002405  0.116781  0.034514      4.000000
 -0.031486 -0.040264  0.034514      2.000000
 -0.002405 -0.033040  0.034514      4.000000
 -0.002405 -0.003076  0.034514      2.000000
  0.040013  0.051168  0.051771      2.000000
  0.069094  0.058391  0.051771      4.000000
  0.098174  0.065615  0.051771      4.000000
 -0.018148  0.036721  0.051771      4.000000
  0.010932  0.043945  0.051771      4.000000
  0.069094  0.088356  0.051771      2.000000
  0.127255  0.102803  0.051771      4.000000
 -0.018148  0.066685  0.051771      4.000000
  0.010932  0.073909  0.051771      4.000000
  0.098174  0.125544  0.051771      2.000000
  0.127255  0.132767  0.051771      4.000000
 -0.018148  0.096650  0.051771      4.000000
  0.010932  0.103873  0.051771      4.000000
  0.127255  0.162731  0.051771      2.000000
 -0.018148  0.126614  0.051771      4.000000
  0.010932  0.133837  0.051771      4.000000
 -0.018148 -0.023208  0.051771      2.000000
  0.010932  0.013980  0.051771      2.000000
  0.082431  0.105412  0.069028      2.000000
  0.140593  0.119859  0.069028      4.000000
 -0.004810  0.083741  0.069028      4.000000
  0.024270  0.090965  0.069028      2.000000
  0.111512  0.142600  0.069028      2.000000
  0.140593  0.149823  0.069028      4.000000
 -0.004810  0.113706  0.069028      2.000000
  0.140593  0.179787  0.069028      1.000000
 


--------------------------------------------------------------------------------------------------------




 Dimension of arrays:
   k-points           NKPTS =     81   k-points in BZ     NKDIM =     81   number of bands    NBANDS=    114
   number of dos      NEDOS =    301   number of ions     NIONS =     16
   non local maximal  LDIM  =      6   non local SUM 2l+1 LMDIM =     18
   total plane-waves  NPLWV = 216000
   max r-space proj   IRMAX =      1   max aug-charges    IRDMAX= 327429
   dimension x,y,z NGX =    60 NGY =   60 NGZ =   60
   dimension x,y,z NGXF=   120 NGYF=  120 NGZF=  120
   support grid    NGXF=   240 NGYF=  240 NGZF=  240
   ions per type =               2  12   2
   NGX,Y,Z   is equivalent  to a cutoff of  13.77, 13.77, 13.77 a.u.
   NGXF,Y,Z  is equivalent  to a cutoff of  27.54, 27.54, 27.54 a.u.

 SYSTEM =  routine with relax: pwdword             
 POSCAR =  EA31                                    

 Startparameter for this run:
   NWRITE =      2    write-flag & timer
   PREC   = acc       normal or accurate (medium, high low for compatibility)
   ISTART =      0    job   : 0-new  1-cont  2-samecut
   ICHARG =      2    charge: 1-file 2-atom 10-const
   ISPIN  =      1    spin polarized calculation?
   LNONCOLLINEAR =      F non collinear calculations
   LSORBIT =      F    spin-orbit coupling
   INIWAV =      1    electr: 0-lowe 1-rand  2-diag
   LASPH  =      T    aspherical Exc in radial PAW
   METAGGA=      F    non-selfconsistent MetaGGA calc.

 Electronic Relaxation 1
   ENCUT  =  600.0 eV  44.10 Ry    6.64 a.u.  14.47 14.47 14.47*2*pi/ulx,y,z
   ENINI  =  600.0     initial cutoff
   ENAUG  =  535.5 eV  augmentation charge cutoff
   NELM   =    100;   NELMIN=  6; NELMDL= -5     # of ELM steps 
   EDIFF  = 0.1E-08   stopping-criterion for ELM
   LREAL  =      F    real-space projection
   NLSPLINE    = F    spline interpolate recip. space projectors
   LCOMPAT=      F    compatible to vasp.4.4
   GGA_COMPAT  = T    GGA compatible to vasp.4.4-vasp.4.6
   LMAXPAW     = -100 max onsite density
   LMAXMIX     =    2 max onsite mixed and CHGCAR
   VOSKOWN=      0    Vosko Wilk Nusair interpolation
   ROPT   =    0.00000   0.00000   0.00000
 Ionic relaxation
   EDIFFG = 0.1E-07   stopping-criterion for IOM
   NSW    =      0    number of steps for IOM
   NBLOCK =      1;   KBLOCK =      1    inner block; outer block 
   IBRION =     -1    ionic relax: 0-MD 1-quasi-New 2-CG
   NFREE  =      0    steps in history (QN), initial steepest desc. (CG)
   ISIF   =     -1    stress and relaxation
   IWAVPR =     10    prediction:  0-non 1-charg 2-wave 3-comb
   ISYM   =      2    0-nonsym 1-usesym 2-fastsym
   LCORR  =      T    Harris-Foulkes like correction to forces

   POTIM  = 0.5000    time-step for ionic-motion
   TEIN   =    0.0    initial temperature
   TEBEG  =    0.0;   TEEND  =   0.0 temperature during run
   SMASS  =  -3.00    Nose mass-parameter (am)
   estimated Nose-frequenzy (Omega)   =  0.10E-29 period in steps = 0.13E+47 mass=  -0.120E-26a.u.
   SCALEE = 1.0000    scale energy and forces
   NPACO  =    256;   APACO  = 16.0  distance and # of slots for P.C.
   PSTRESS=    0.0 pullay stress

  Mass of Ions in am
   POMASS =  10.81 95.94 28.09
  Ionic Valenz
   ZVAL   =   3.00 14.00  4.00
  Atomic Wigner-Seitz radii
   RWIGS  =  -1.00 -1.00 -1.00
  virtual crystal weights 
   VCA    =   1.00  1.00  1.00
   NELECT =     182.0000    total number of electrons
   NUPDOWN=      -1.0000    fix difference up-down

 DOS related values:
   EMIN   =  10.00;   EMAX   =-10.00  energy-range for DOS
   EFERMI =   0.00
   ISMEAR =     0;   SIGMA  =   0.02  broadening in eV -4-tet -1-fermi 0-gaus

 Electronic relaxation 2 (details)
   IALGO  =     58    algorithm
   LDIAG  =      T    sub-space diagonalisation (order eigenvalues)
   LSUBROT=      F    optimize rotation matrix (better conditioning)
   TURBO    =      0    0=normal 1=particle mesh
   IRESTART =      0    0=no restart 2=restart with 2 vectors
   NREBOOT  =      0    no. of reboots
   NMIN     =      0    reboot dimension
   EREF     =   0.00    reference energy to select bands
   IMIX   =      4    mixing-type and parameters
     AMIX     =   0.40;   BMIX     =  1.00
     AMIX_MAG =   1.60;   BMIX_MAG =  1.00
     AMIN     =   0.10
     WC   =   100.;   INIMIX=   1;  MIXPRE=   1;  MAXMIX= -45

 Intra band minimization:
   WEIMIN = 0.0000     energy-eigenvalue tresh-hold
   EBREAK =  0.22E-11  absolut break condition
   DEPER  =   0.30     relativ break condition  

   TIME   =   0.40     timestep for ELM

  volume/ion in A,a.u.               =      14.43        97.39
  Fermi-wavevector in a.u.,A,eV,Ry     =   1.512238  2.857715 31.114659  2.286863
  Thomas-Fermi vector in A             =   2.622189
 
 Write flags
   LWAVE        =      T    write WAVECAR
   LDOWNSAMPLE  =      F    k-point downsampling of WAVECAR
   LCHARG       =      T    write CHGCAR
   LVTOT        =      F    write LOCPOT, total local potential
   LVHAR        =      F    write LOCPOT, Hartree potential only
   LELF         =      F    write electronic localiz. function (ELF)
   LORBIT       =      0    0 simple, 1 ext, 2 COOP (PROOUT), +10 PAW based schemes


 Dipole corrections
   LMONO  =      F    monopole corrections only (constant potential shift)
   LDIPOL =      F    correct potential (dipole corrections)
   IDIPOL =      0    1-x, 2-y, 3-z, 4-all directions 
   EPSILON=  1.0000000 bulk dielectric constant

 Exchange correlation treatment:
   GGA     =    --    GGA type
   LEXCH   =     8    internal setting for exchange type
   VOSKOWN=      0    Vosko Wilk Nusair interpolation
   LHFCALC =     F    Hartree Fock is set to
   LHFONE  =     F    Hartree Fock one center treatment
   AEXX    =    0.0000 exact exchange contribution

 Linear response parameters
   LEPSILON=     F    determine dielectric tensor
   LRPA    =     F    only Hartree local field effects (RPA)
   LNABLA  =     F    use nabla operator in PAW spheres
   LVEL    =     F    velocity operator in full k-point grid
   LINTERFAST=   F  fast interpolation
   KINTER  =     0    interpolate to denser k-point grid
   CSHIFT  =0.1000    complex shift for real part using Kramers Kronig
   OMEGAMAX=  -1.0    maximum frequency
   DEG_THRESHOLD= 0.2000000E-02 threshold for treating states as degnerate
   RTIME   =   -0.100 relaxation time in fs
  (WPLASMAI=    0.000 imaginary part of plasma frequency in eV, 0.658/RTIME)
   DFIELD  = 0.0000000 0.0000000 0.0000000 field for delta impulse in time
 
 Orbital magnetization related:
   ORBITALMAG=     F  switch on orbital magnetization
   LCHIMAG   =     F  perturbation theory with respect to B field
   DQ        =  0.001000  dq finite difference perturbation B field
   LLRAUG    =     F  two centre corrections for induced B field



--------------------------------------------------------------------------------------------------------


 Static calculation
 charge density and potential will be updated during run
 non-spin polarized calculation
 Conjugate gradient for all bands (Freysoldt, et al. PRB 79, 241103 (2009))
 preconditioned conjugated gradient                                        
 perform sub-space diagonalisation
    before iterative eigenvector-optimisation
 modified Broyden-mixing scheme, WC =      100.0
 initial mixing is a Kerker type mixing with AMIX =  0.4000 and BMIX =      1.0000
 Hartree-type preconditioning will be used
 using additional bands           23
 reciprocal scheme for non local part
 use partial core corrections
 no Harris-corrections to forces 
 use gradient corrections 
 use of overlap-Matrix (Vanderbilt PP)
 Gauss-broadening in eV      SIGMA  =   0.02


--------------------------------------------------------------------------------------------------------


  energy-cutoff  :      600.00
  volume of cell :      230.91
      direct lattice vectors                 reciprocal lattice vectors
     5.731196012  0.000000000 -4.429571655     0.174483650  0.043340840  0.000000000
    -1.381614679  5.562171214 -4.429571655     0.000000000  0.179785908  0.000000000
     0.000000000  0.000000000  7.243460000     0.106701470  0.136448040  0.138055570

  length of vectors
     7.243460000  7.243460000  7.243460000     0.179785908  0.179785908  0.221500816


 
 k-points in units of 2pi/SCALE and weight: EA                                      
   0.00000000  0.00000000  0.00000000       0.003
   0.02908061  0.00722347  0.00000000       0.014
   0.05816122  0.01444695  0.00000000       0.014
   0.08724183  0.02167042  0.00000000       0.014
   0.02908061  0.03718779  0.00000000       0.007
   0.05816122  0.04441126  0.00000000       0.028
   0.08724183  0.05163474  0.00000000       0.028
  -0.05816122  0.01551737  0.00000000       0.014
  -0.02908061  0.02274084  0.00000000       0.007
   0.05816122  0.07437558  0.00000000       0.007
   0.08724183  0.08159906  0.00000000       0.028
  -0.05816122  0.04548169  0.00000000       0.007
   0.08724183  0.11156337  0.00000000       0.007
   0.01333768  0.01705600  0.01725695       0.007
   0.04241829  0.02427948  0.01725695       0.014
   0.07149890  0.03150295  0.01725695       0.014
   0.10057951  0.03872642  0.01725695       0.028
  -0.04482353  0.00260906  0.01725695       0.014
  -0.01574292  0.00983253  0.01725695       0.014
   0.04241829  0.05424380  0.01725695       0.007
   0.07149890  0.06146727  0.01725695       0.028
   0.10057951  0.06869074  0.01725695       0.014
  -0.04482353  0.03257338  0.01725695       0.014
  -0.01574292  0.03979685  0.01725695       0.014
   0.07149890  0.09143159  0.01725695       0.007
   0.10057951  0.09865506  0.01725695       0.014
  -0.04482353  0.06253769  0.01725695       0.014
  -0.01574292  0.06976117  0.01725695       0.014
   0.10057951  0.12861938  0.01725695       0.007
  -0.04482353  0.09250201  0.01725695       0.014
  -0.01574292  0.09972549  0.01725695       0.014
  -0.04482353 -0.05731958  0.01725695       0.007
  -0.01574292 -0.05009610  0.01725695       0.028
  -0.01574292 -0.02013179  0.01725695       0.007
   0.02667537  0.03411201  0.03451389       0.007
   0.05575598  0.04133548  0.03451389       0.014
   0.08483658  0.04855896  0.03451389       0.014
   0.11391719  0.05578243  0.03451389       0.014
  -0.03148585  0.01966506  0.03451389       0.014
  -0.00240524  0.02688854  0.03451389       0.014
   0.05575598  0.07129980  0.03451389       0.007
   0.08483658  0.07852327  0.03451389       0.014
   0.11391719  0.08574675  0.03451389       0.014
  -0.03148585  0.04962938  0.03451389       0.014
  -0.00240524  0.05685285  0.03451389       0.014
   0.08483658  0.10848759  0.03451389       0.007
   0.11391719  0.11571107  0.03451389       0.014
  -0.03148585  0.07959370  0.03451389       0.014
  -0.00240524  0.08681717  0.03451389       0.014
   0.11391719  0.14567538  0.03451389       0.007
  -0.03148585  0.10955802  0.03451389       0.014
  -0.00240524  0.11678149  0.03451389       0.014
  -0.03148585 -0.04026357  0.03451389       0.007
  -0.00240524 -0.03304010  0.03451389       0.014
  -0.00240524 -0.00307578  0.03451389       0.007
   0.04001305  0.05116801  0.05177084       0.007
   0.06909366  0.05839149  0.05177084       0.014
   0.09817427  0.06561496  0.05177084       0.014
  -0.01814817  0.03672107  0.05177084       0.014
   0.01093244  0.04394454  0.05177084       0.014
   0.06909366  0.08835581  0.05177084       0.007
   0.12725488  0.10280275  0.05177084       0.014
  -0.01814817  0.06668539  0.05177084       0.014
   0.01093244  0.07390886  0.05177084       0.014
   0.09817427  0.12554360  0.05177084       0.007
   0.12725488  0.13276707  0.05177084       0.014
  -0.01814817  0.09664970  0.05177084       0.014
   0.01093244  0.10387318  0.05177084       0.014
   0.12725488  0.16273139  0.05177084       0.007
  -0.01814817  0.12661402  0.05177084       0.014
   0.01093244  0.13383750  0.05177084       0.014
  -0.01814817 -0.02320757  0.05177084       0.007
   0.01093244  0.01398022  0.05177084       0.007
   0.08243134  0.10541181  0.06902779       0.007
   0.14059256  0.11985876  0.06902779       0.014
  -0.00481048  0.08374139  0.06902779       0.014
   0.02427013  0.09096486  0.06902779       0.007
   0.11151195  0.14259960  0.06902779       0.007
   0.14059256  0.14982308  0.06902779       0.014
  -0.00481048  0.11370571  0.06902779       0.007
   0.14059256  0.17978739  0.06902779       0.003
 
 k-points in reciprocal lattice and weights: EA                                      
   0.00000000  0.00000000  0.00000000       0.003
   0.16666667  0.00000000  0.00000000       0.014
   0.33333333 -0.00000000  0.00000000       0.014
   0.50000000 -0.00000000  0.00000000       0.014
   0.16666667  0.16666667  0.00000000       0.007
   0.33333333  0.16666667  0.00000000       0.028
   0.50000000  0.16666667  0.00000000       0.028
  -0.33333333  0.16666667  0.00000000       0.014
  -0.16666667  0.16666667  0.00000000       0.007
   0.33333333  0.33333333  0.00000000       0.007
   0.50000000  0.33333333  0.00000000       0.028
  -0.33333333  0.33333333  0.00000000       0.007
   0.50000000  0.50000000  0.00000000       0.007
   0.00000000  0.00000000  0.12500000       0.007
   0.16666667  0.00000000  0.12500000       0.014
   0.33333333  0.00000000  0.12500000       0.014
   0.50000000 -0.00000000  0.12500000       0.028
  -0.33333333  0.00000000  0.12500000       0.014
  -0.16666667  0.00000000  0.12500000       0.014
   0.16666667  0.16666667  0.12500000       0.007
   0.33333333  0.16666667  0.12500000       0.028
   0.50000000  0.16666667  0.12500000       0.014
  -0.33333333  0.16666667  0.12500000       0.014
  -0.16666667  0.16666667  0.12500000       0.014
   0.33333333  0.33333333  0.12500000       0.007
   0.50000000  0.33333333  0.12500000       0.014
  -0.33333333  0.33333333  0.12500000       0.014
  -0.16666667  0.33333333  0.12500000       0.014
   0.50000000  0.50000000  0.12500000       0.007
  -0.33333333  0.50000000  0.12500000       0.014
  -0.16666667  0.50000000  0.12500000       0.014
  -0.33333333 -0.33333333  0.12500000       0.007
  -0.16666667 -0.33333333  0.12500000       0.028
  -0.16666667 -0.16666667  0.12500000       0.007
   0.00000000  0.00000000  0.25000000       0.007
   0.16666667 -0.00000000  0.25000000       0.014
   0.33333333  0.00000000  0.25000000       0.014
   0.50000000 -0.00000000  0.25000000       0.014
  -0.33333333  0.00000000  0.25000000       0.014
  -0.16666667  0.00000000  0.25000000       0.014
   0.16666667  0.16666667  0.25000000       0.007
   0.33333333  0.16666667  0.25000000       0.014
   0.50000000  0.16666667  0.25000000       0.014
  -0.33333333  0.16666667  0.25000000       0.014
  -0.16666667  0.16666667  0.25000000       0.014
   0.33333333  0.33333333  0.25000000       0.007
   0.50000000  0.33333333  0.25000000       0.014
  -0.33333333  0.33333333  0.25000000       0.014
  -0.16666667  0.33333333  0.25000000       0.014
   0.50000000  0.50000000  0.25000000       0.007
  -0.33333333  0.50000000  0.25000000       0.014
  -0.16666667  0.50000000  0.25000000       0.014
  -0.33333333 -0.33333333  0.25000000       0.007
  -0.16666667 -0.33333333  0.25000000       0.014
  -0.16666667 -0.16666667  0.25000000       0.007
  -0.00000000  0.00000000  0.37500000       0.007
   0.16666667 -0.00000000  0.37500000       0.014
   0.33333333 -0.00000000  0.37500000       0.014
  -0.33333333  0.00000000  0.37500000       0.014
  -0.16666667  0.00000000  0.37500000       0.014
   0.16666667  0.16666667  0.37500000       0.007
   0.50000000  0.16666667  0.37500000       0.014
  -0.33333333  0.16666667  0.37500000       0.014
  -0.16666667  0.16666667  0.37500000       0.014
   0.33333333  0.33333333  0.37500000       0.007
   0.50000000  0.33333333  0.37500000       0.014
  -0.33333333  0.33333333  0.37500000       0.014
  -0.16666667  0.33333333  0.37500000       0.014
   0.50000000  0.50000000  0.37500000       0.007
  -0.33333333  0.50000000  0.37500000       0.014
  -0.16666667  0.50000000  0.37500000       0.014
  -0.33333333 -0.33333333  0.37500000       0.007
  -0.16666667 -0.16666667  0.37500000       0.007
   0.16666667  0.16666667  0.50000000       0.007
   0.50000000  0.16666667  0.50000000       0.014
  -0.33333333  0.16666667  0.50000000       0.014
  -0.16666667  0.16666667  0.50000000       0.007
   0.33333333  0.33333333  0.50000000       0.007
   0.50000000  0.33333333  0.50000000       0.014
  -0.33333333  0.33333333  0.50000000       0.007
   0.50000000  0.50000000  0.50000000       0.003
 
 position of ions in fractional coordinates (direct lattice) 
   0.25000000  0.25000000  0.00000000
   0.75000000  0.75000000  0.00000000
   0.67211000  0.17211000  0.15768000
   0.50000000  0.50000000  0.50000000
   0.32789000  0.82789000  0.84232000
   0.17211000  0.01443000  0.50000000
   0.50000000  0.00000000  0.00000000
   0.82789000  0.98557000  0.50000000
   0.01443000  0.51443000  0.84232000
   0.00000000  0.00000000  0.50000000
   0.98557000  0.48557000  0.15768000
   0.51443000  0.67211000  0.50000000
   0.00000000  0.50000000  0.00000000
   0.48557000  0.32789000  0.50000000
   0.50000000  0.00000000  0.50000000
   0.00000000  0.50000000  0.50000000
 
 position of ions in cartesian coordinates  (Angst):
   1.08739533  1.39054280 -2.21478583
   3.26218600  4.17162841 -6.64435748
   3.61420445  0.95730529 -2.59738421
   2.17479067  2.78108561 -0.80784165
   0.73537688  4.60486593  0.98170090
   0.96645945  0.08026213  2.79543770
   2.86559801  0.00000000 -2.21478583
   3.38312189  5.48190908 -4.41112101
  -0.62804288  2.86134774  3.75868796
   0.00000000  0.00000000  3.62173000
   4.97762421  2.70082348 -5.37437127
   2.01970212  3.73839089 -1.63413395
  -0.69080734  2.78108561 -2.21478583
   2.32987921  1.82378032  0.01845064
   2.86559801  0.00000000  1.40694417
  -0.69080734  2.78108561  1.40694417
 


--------------------------------------------------------------------------------------------------------


 k-point   1 :   0.0000 0.0000 0.0000  plane waves:    7715
 k-point   2 :   0.1667 0.0000 0.0000  plane waves:    7718
 k-point   3 :   0.3333-0.0000 0.0000  plane waves:    7724
 k-point   4 :   0.5000-0.0000 0.0000  plane waves:    7692
 k-point   5 :   0.1667 0.1667 0.0000  plane waves:    7692
 k-point   6 :   0.3333 0.1667 0.0000  plane waves:    7703
 k-point   7 :   0.5000 0.1667 0.0000  plane waves:    7717
 k-point   8 :  -0.3333 0.1667 0.0000  plane waves:    7723
 k-point   9 :  -0.1667 0.1667 0.0000  plane waves:    7694
 k-point  10 :   0.3333 0.3333 0.0000  plane waves:    7690
 k-point  11 :   0.5000 0.3333 0.0000  plane waves:    7697
 k-point  12 :  -0.3333 0.3333 0.0000  plane waves:    7736
 k-point  13 :   0.5000 0.5000 0.0000  plane waves:    7690
 k-point  14 :   0.0000 0.0000 0.1250  plane waves:    7702
 k-point  15 :   0.1667 0.0000 0.1250  plane waves:    7713
 k-point  16 :   0.3333 0.0000 0.1250  plane waves:    7717
 k-point  17 :   0.5000-0.0000 0.1250  plane waves:    7711
 k-point  18 :  -0.3333 0.0000 0.1250  plane waves:    7700
 k-point  19 :  -0.1667 0.0000 0.1250  plane waves:    7711
 k-point  20 :   0.1667 0.1667 0.1250  plane waves:    7709
 k-point  21 :   0.3333 0.1667 0.1250  plane waves:    7702
 k-point  22 :   0.5000 0.1667 0.1250  plane waves:    7708
 k-point  23 :  -0.3333 0.1667 0.1250  plane waves:    7722
 k-point  24 :  -0.1667 0.1667 0.1250  plane waves:    7710
 k-point  25 :   0.3333 0.3333 0.1250  plane waves:    7694
 k-point  26 :   0.5000 0.3333 0.1250  plane waves:    7712
 k-point  27 :  -0.3333 0.3333 0.1250  plane waves:    7720
 k-point  28 :  -0.1667 0.3333 0.1250  plane waves:    7726
 k-point  29 :   0.5000 0.5000 0.1250  plane waves:    7690
 k-point  30 :  -0.3333 0.5000 0.1250  plane waves:    7705
 k-point  31 :  -0.1667 0.5000 0.1250  plane waves:    7690
 k-point  32 :  -0.3333-0.3333 0.1250  plane waves:    7684
 k-point  33 :  -0.1667-0.3333 0.1250  plane waves:    7712
 k-point  34 :  -0.1667-0.1667 0.1250  plane waves:    7710
 k-point  35 :   0.0000 0.0000 0.2500  plane waves:    7722
 k-point  36 :   0.1667-0.0000 0.2500  plane waves:    7720
 k-point  37 :   0.3333 0.0000 0.2500  plane waves:    7694
 k-point  38 :   0.5000-0.0000 0.2500  plane waves:    7704
 k-point  39 :  -0.3333 0.0000 0.2500  plane waves:    7715
 k-point  40 :  -0.1667 0.0000 0.2500  plane waves:    7715
 k-point  41 :   0.1667 0.1667 0.2500  plane waves:    7711
 k-point  42 :   0.3333 0.1667 0.2500  plane waves:    7694
 k-point  43 :   0.5000 0.1667 0.2500  plane waves:    7711
 k-point  44 :  -0.3333 0.1667 0.2500  plane waves:    7723
 k-point  45 :  -0.1667 0.1667 0.2500  plane waves:    7721
 k-point  46 :   0.3333 0.3333 0.2500  plane waves:    7692
 k-point  47 :   0.5000 0.3333 0.2500  plane waves:    7705
 k-point  48 :  -0.3333 0.3333 0.2500  plane waves:    7711
 k-point  49 :  -0.1667 0.3333 0.2500  plane waves:    7704
 k-point  50 :   0.5000 0.5000 0.2500  plane waves:    7684
 k-point  51 :  -0.3333 0.5000 0.2500  plane waves:    7686
 k-point  52 :  -0.1667 0.5000 0.2500  plane waves:    7695
 k-point  53 :  -0.3333-0.3333 0.2500  plane waves:    7708
 k-point  54 :  -0.1667-0.3333 0.2500  plane waves:    7707
 k-point  55 :  -0.1667-0.1667 0.2500  plane waves:    7711
 k-point  56 :  -0.0000 0.0000 0.3750  plane waves:    7740
 k-point  57 :   0.1667-0.0000 0.3750  plane waves:    7698
 k-point  58 :   0.3333-0.0000 0.3750  plane waves:    7689
 k-point  59 :  -0.3333 0.0000 0.3750  plane waves:    7722
 k-point  60 :  -0.1667 0.0000 0.3750  plane waves:    7719
 k-point  61 :   0.1667 0.1667 0.3750  plane waves:    7713
 k-point  62 :   0.5000 0.1667 0.3750  plane waves:    7715
 k-point  63 :  -0.3333 0.1667 0.3750  plane waves:    7712
 k-point  64 :  -0.1667 0.1667 0.3750  plane waves:    7725
 k-point  65 :   0.3333 0.3333 0.3750  plane waves:    7685
 k-point  66 :   0.5000 0.3333 0.3750  plane waves:    7696
 k-point  67 :  -0.3333 0.3333 0.3750  plane waves:    7685
 k-point  68 :  -0.1667 0.3333 0.3750  plane waves:    7698
 k-point  69 :   0.5000 0.5000 0.3750  plane waves:    7692
 k-point  70 :  -0.3333 0.5000 0.3750  plane waves:    7685
 k-point  71 :  -0.1667 0.5000 0.3750  plane waves:    7699
 k-point  72 :  -0.3333-0.3333 0.3750  plane waves:    7705
 k-point  73 :  -0.1667-0.1667 0.3750  plane waves:    7691
 k-point  74 :   0.1667 0.1667 0.5000  plane waves:    7699
 k-point  75 :   0.5000 0.1667 0.5000  plane waves:    7692
 k-point  76 :  -0.3333 0.1667 0.5000  plane waves:    7703
 k-point  77 :  -0.1667 0.1667 0.5000  plane waves:    7702
 k-point  78 :   0.3333 0.3333 0.5000  plane waves:    7689
 k-point  79 :   0.5000 0.3333 0.5000  plane waves:    7691
 k-point  80 :  -0.3333 0.3333 0.5000  plane waves:    7678
 k-point  81 :   0.5000 0.5000 0.5000  plane waves:    7670

 maximum and minimum number of plane-waves per node :      3891     3808

 maximum number of plane-waves:      7740
 maximum index in each direction: 
   IXMAX=   14   IYMAX=   14   IZMAX=   14
   IXMIN=  -14   IYMIN=  -14   IZMIN=  -14


 parallel 3D FFT for wavefunctions:
    minimum data exchange during FFTs selected (reduces bandwidth)
 parallel 3D FFT for charge:
    minimum data exchange during FFTs selected (reduces bandwidth)


 total amount of memory used by VASP MPI-rank0   506966. kBytes
=======================================================================

   base      :      30000. kBytes
   nonl-proj :     137255. kBytes
   fftplans  :      24316. kBytes
   grid      :      18307. kBytes
   one-center:        124. kBytes
   wavefun   :     296964. kBytes
 
     INWAV:  cpu time    0.0001: real time    0.0001
 Broyden mixing: mesh for mixing (old mesh)
   NGX = 29   NGY = 29   NGZ = 29
  (NGX  =120   NGY  =120   NGZ  =120)
  gives a total of  24389 points

 initial charge density was supplied:
 charge density of overlapping atoms calculated
 number of electron     182.0000000 magnetization 
 keeping initial charge density in first step


--------------------------------------------------------------------------------------------------------


 Maximum index for augmentation-charges        26634 (set IRDMAX)


--------------------------------------------------------------------------------------------------------


 First call to EWALD:  gamma=   0.289
 Maximum number of real-space cells 3x 3x 4
 Maximum number of reciprocal cells 3x 3x 3

    FEWALD:  cpu time    0.0027: real time    0.0028


--------------------------------------- Iteration      1(   1)  ---------------------------------------


    POTLOK:  cpu time    0.3244: real time    0.3278
    SETDIJ:  cpu time    0.8271: real time    0.8326
    TRIAL :  cpu time   66.0206: real time   66.6200
    CORREC:  cpu time    0.0029: real time    0.0029
    --------------------------------------------
      LOOP:  cpu time   67.2862: real time   67.9007

 eigenvalue-minimisations  : 19452
 total energy-change (2. order) : 0.2969643E+04  (-0.1386098E+05)
 number of electron     182.0000000 magnetization 
 augmentation part      182.0000000 magnetization 

 Free energy of the ion-electron system (eV)
  ---------------------------------------------------
  alpha Z        PSCENC =      1294.45375542
  Ewald energy   TEWEN  =    -11566.80951975
  -Hartree energ DENC   =     -9824.47902757
  -exchange      EXHF   =         0.00000000
  -V(xc)+E(xc)   XCENC  =       983.42946470
  PAW double counting   =     18083.93410283   -18023.21004892
  entropy T*S    EENTRO =        -0.00125990
  eigenvalues    EBANDS =      -673.53667357
  atomic energy  EATOM  =     22695.86256981
  ---------------------------------------------------
  free energy    TOTEN  =      2969.64336306 eV

  energy without entropy =     2969.64462296  energy(sigma->0) =     2969.64399301


--------------------------------------------------------------------------------------------------------




--------------------------------------- Iteration      1(   2)  ---------------------------------------


    TRIAL :  cpu time   71.5777: real time   72.9425
    CORREC:  cpu time    0.0026: real time    0.0026
    --------------------------------------------
      LOOP:  cpu time   71.5817: real time   72.9480

 eigenvalue-minimisations  : 19926
 total energy-change (2. order) :-0.2759032E+04  (-0.2688835E+04)
 number of electron     182.0000000 magnetization 
 augmentation part      182.0000000 magnetization 

 Free energy of the ion-electron system (eV)
  ---------------------------------------------------
  alpha Z        PSCENC =      1294.45375542
  Ewald energy   TEWEN  =    -11566.80951975
  -Hartree energ DENC   =     -9824.47902757
  -exchange      EXHF   =         0.00000000
  -V(xc)+E(xc)   XCENC  =       983.42946470
  PAW double counting   =     18083.93410283   -18023.21004892
  entropy T*S    EENTRO =        -0.00128829
  eigenvalues    EBANDS =     -3432.56819423
  atomic energy  EATOM  =     22695.86256981
  ---------------------------------------------------
  free energy    TOTEN  =       210.61181401 eV

  energy without entropy =      210.61310230  energy(sigma->0) =      210.61245816


--------------------------------------------------------------------------------------------------------




--------------------------------------- Iteration      1(   3)  ---------------------------------------


    TRIAL :  cpu time   75.6179: real time   76.6073
    CORREC:  cpu time    0.0026: real time    0.0026
    --------------------------------------------
      LOOP:  cpu time   75.6232: real time   76.6130

 eigenvalue-minimisations  : 21912
 total energy-change (2. order) :-0.1171903E+03  (-0.1143397E+03)
 number of electron     182.0000000 magnetization 
 augmentation part      182.0000000 magnetization 

 Free energy of the ion-electron system (eV)
  ---------------------------------------------------
  alpha Z        PSCENC =      1294.45375542
  Ewald energy   TEWEN  =    -11566.80951975
  -Hartree energ DENC   =     -9824.47902757
  -exchange      EXHF   =         0.00000000
  -V(xc)+E(xc)   XCENC  =       983.42946470
  PAW double counting   =     18083.93410283   -18023.21004892
  entropy T*S    EENTRO =        -0.00383747
  eigenvalues    EBANDS =     -3549.75590053
  atomic energy  EATOM  =     22695.86256981
  ---------------------------------------------------
  free energy    TOTEN  =        93.42155853 eV

  energy without entropy =       93.42539600  energy(sigma->0) =       93.42347727


--------------------------------------------------------------------------------------------------------




--------------------------------------- Iteration      1(   4)  ---------------------------------------


    TRIAL :  cpu time   75.6704: real time   76.6833
    CORREC:  cpu time    0.0026: real time    0.0026
    --------------------------------------------
      LOOP:  cpu time   75.6742: real time   76.6890

 eigenvalue-minimisations  : 21924
 total energy-change (2. order) :-0.2399035E+01  (-0.2377985E+01)
 number of electron     182.0000000 magnetization 
 augmentation part      182.0000000 magnetization 

 Free energy of the ion-electron system (eV)
  ---------------------------------------------------
  alpha Z        PSCENC =      1294.45375542
  Ewald energy   TEWEN  =    -11566.80951975
  -Hartree energ DENC   =     -9824.47902757
  -exchange      EXHF   =         0.00000000
  -V(xc)+E(xc)   XCENC  =       983.42946470
  PAW double counting   =     18083.93410283   -18023.21004892
  entropy T*S    EENTRO =        -0.00333941
  eigenvalues    EBANDS =     -3552.15543329
  atomic energy  EATOM  =     22695.86256981
  ---------------------------------------------------
  free energy    TOTEN  =        91.02252383 eV

  energy without entropy =       91.02586324  energy(sigma->0) =       91.02419353


--------------------------------------------------------------------------------------------------------




--------------------------------------- Iteration      1(   5)  ---------------------------------------


    TRIAL :  cpu time   74.8621: real time   75.8923
    CORREC:  cpu time    0.0026: real time    0.0026
    CHARGE:  cpu time    4.1750: real time    4.2190
    --------------------------------------------
      LOOP:  cpu time   79.0419: real time   80.1169

 eigenvalue-minimisations  : 21582
 total energy-change (2. order) :-0.5138286E-01  (-0.5131017E-01)
 number of electron     182.0000006 magnetization 
 augmentation part       39.4828019 magnetization 

 Free energy of the ion-electron system (eV)
  ---------------------------------------------------
  alpha Z        PSCENC =      1294.45375542
  Ewald energy   TEWEN  =    -11566.80951975
  -Hartree energ DENC   =     -9824.47902757
  -exchange      EXHF   =         0.00000000
  -V(xc)+E(xc)   XCENC  =       983.42946470
  PAW double counting   =     18083.93410283   -18023.21004892
  entropy T*S    EENTRO =        -0.00330411
  eigenvalues    EBANDS =     -3552.20685145
  atomic energy  EATOM  =     22695.86256981
  ---------------------------------------------------
  free energy    TOTEN  =        90.97114097 eV

  energy without entropy =       90.97444508  energy(sigma->0) =       90.97279302


--------------------------------------------------------------------------------------------------------




--------------------------------------- Iteration      1(   6)  ---------------------------------------


    POTLOK:  cpu time    0.2402: real time    0.2417
    SETDIJ:  cpu time    0.8371: real time    0.8425
    TRIAL :  cpu time   57.6183: real time   58.2946
    CORREC:  cpu time   24.4208: real time   24.6288
    CHARGE:  cpu time    4.1731: real time    4.2162
    --------------------------------------------
      LOOP:  cpu time   87.3172: real time   88.2522

 eigenvalue-minimisations  :     0
 total energy-change (2. order) : 0.1721218E+03  (-0.6801964E+02)
 number of electron     182.0000004 magnetization 
 augmentation part       35.8968048 magnetization 

 Free energy of the ion-electron system (eV)
  ---------------------------------------------------
  alpha Z        PSCENC =      1294.45375542
  Ewald energy   TEWEN  =    -11566.80951975
  -Hartree energ DENC   =    -11824.15681412
  -exchange      EXHF   =         0.00000000
  -V(xc)+E(xc)   XCENC  =      1069.13115670
  PAW double counting   =    228271.82912031  -228159.39134216
  entropy T*S    EENTRO =        -0.00261117
  eigenvalues    EBANDS =     -1517.82269789
  atomic energy  EATOM  =     22695.86256981
  ---------------------------------------------------
  free energy    TOTEN  =       263.09292420 eV

  energy without entropy =      263.09553538  energy(sigma->0) =      263.09422979


--------------------------------------------------------------------------------------------------------




--------------------------------------- Iteration      1(   7)  ---------------------------------------


    POTLOK:  cpu time    0.2098: real time    0.2114
    SETDIJ:  cpu time    0.8186: real time    0.8238
    TRIAL :  cpu time   65.2444: real time   65.8195
    CORREC:  cpu time   18.7572: real time   18.9298
    CHARGE:  cpu time    5.0817: real time    5.1299
    --------------------------------------------
      LOOP:  cpu time   90.1176: real time   90.9215

 eigenvalue-minimisations  :     0
 total energy-change (2. order) :-0.6969904E+02  (-0.5192774E+01)
 number of electron     182.0000004 magnetization 
 augmentation part       36.7230649 magnetization 

 Free energy of the ion-electron system (eV)
  ---------------------------------------------------
  alpha Z        PSCENC =      1294.45375542
  Ewald energy   TEWEN  =    -11566.80951975
  -Hartree energ DENC   =    -10495.15519365
  -exchange      EXHF   =         0.00000000
  -V(xc)+E(xc)   XCENC  =      1038.97240770
  PAW double counting   =    180624.65595146  -180542.15791491
  entropy T*S    EENTRO =        -0.00262801
  eigenvalues    EBANDS =     -2856.42556173
  atomic energy  EATOM  =     22695.86256981
  ---------------------------------------------------
  free energy    TOTEN  =       193.39388317 eV

  energy without entropy =      193.39651118  energy(sigma->0) =      193.39519718


--------------------------------------------------------------------------------------------------------




--------------------------------------- Iteration      1(   8)  ---------------------------------------


    POTLOK:  cpu time    0.2771: real time    0.2784
    SETDIJ:  cpu time    0.7611: real time    0.7658
    TRIAL :  cpu time   67.5822: real time   68.5054
    CORREC:  cpu time   19.3833: real time   19.5527
    CHARGE:  cpu time    4.7944: real time    4.8390
    --------------------------------------------
      LOOP:  cpu time   92.8018: real time   93.9459

 eigenvalue-minimisations  :     0
 total energy-change (2. order) :-0.5192556E+01  (-0.1826820E+01)
 number of electron     182.0000004 magnetization 
 augmentation part       36.6154621 magnetization 

 Free energy of the ion-electron system (eV)
  ---------------------------------------------------
  alpha Z        PSCENC =      1294.45375542
  Ewald energy   TEWEN  =    -11566.80951975
  -Hartree energ DENC   =    -10455.95022420
  -exchange      EXHF   =         0.00000000
  -V(xc)+E(xc)   XCENC  =      1039.26031019
  PAW double counting   =    171715.81587320  -171625.02978549
  entropy T*S    EENTRO =        -0.00263029
  eigenvalues    EBANDS =     -2909.39902437
  atomic energy  EATOM  =     22695.86256981
  ---------------------------------------------------
  free energy    TOTEN  =       188.20132681 eV

  energy without entropy =      188.20395709  energy(sigma->0) =      188.20264195


--------------------------------------------------------------------------------------------------------




--------------------------------------- Iteration      1(   9)  ---------------------------------------


    POTLOK:  cpu time    0.2071: real time    0.2083
    SETDIJ:  cpu time    0.8201: real time    0.8253
    TRIAL :  cpu time   63.8938: real time   64.4637
    CORREC:  cpu time   19.4880: real time   19.6612
    CHARGE:  cpu time    4.1626: real time    4.2056
    --------------------------------------------
      LOOP:  cpu time   88.5734: real time   89.3664

 eigenvalue-minimisations  :     0
 total energy-change (2. order) :-0.1828347E+01  (-0.8510891E+00)
 number of electron     182.0000004 magnetization 
 augmentation part       36.5671960 magnetization 

 Free energy of the ion-electron system (eV)
  ---------------------------------------------------
  alpha Z        PSCENC =      1294.45375542
  Ewald energy   TEWEN  =    -11566.80951975
  -Hartree energ DENC   =    -10427.64304230
  -exchange      EXHF   =         0.00000000
  -V(xc)+E(xc)   XCENC  =      1038.36369496
  PAW double counting   =    168901.29741094  -168810.85865443
  entropy T*S    EENTRO =        -0.00231607
  eigenvalues    EBANDS =     -2938.29060468
  atomic energy  EATOM  =     22695.86256981
  ---------------------------------------------------
  free energy    TOTEN  =       186.37297969 eV

  energy without entropy =      186.37529576  energy(sigma->0) =      186.37413773


--------------------------------------------------------------------------------------------------------




--------------------------------------- Iteration      1(  10)  ---------------------------------------


    POTLOK:  cpu time    0.2139: real time    0.2158
    SETDIJ:  cpu time    0.8159: real time    0.8216
    TRIAL :  cpu time   66.0891: real time   66.7741
    CORREC:  cpu time   19.9637: real time   20.1435
    CHARGE:  cpu time    5.1185: real time    5.1659
    --------------------------------------------
      LOOP:  cpu time   92.2027: real time   93.1237

 eigenvalue-minimisations  :     0
 total energy-change (2. order) :-0.8509633E+00  (-0.3406094E+00)
 number of electron     182.0000005 magnetization 
 augmentation part       36.6002816 magnetization 

 Free energy of the ion-electron system (eV)
  ---------------------------------------------------
  alpha Z        PSCENC =      1294.45375542
  Ewald energy   TEWEN  =    -11566.80951975
  -Hartree energ DENC   =    -10409.67579886
  -exchange      EXHF   =         0.00000000
  -V(xc)+E(xc)   XCENC  =      1037.75482999
  PAW double counting   =    167941.88552930  -167851.20363971
  entropy T*S    EENTRO =        -0.00251874
  eigenvalues    EBANDS =     -2956.74339375
  atomic energy  EATOM  =     22695.86256981
  ---------------------------------------------------
  free energy    TOTEN  =       185.52201638 eV

  energy without entropy =      185.52453512  energy(sigma->0) =      185.52327575


--------------------------------------------------------------------------------------------------------




--------------------------------------- Iteration      1(  11)  ---------------------------------------


    POTLOK:  cpu time    0.2419: real time    0.2434
    SETDIJ:  cpu time    0.7877: real time    0.7929
    TRIAL :  cpu time   65.9065: real time   66.5901
    CORREC:  cpu time   18.9645: real time   19.1358
    CHARGE:  cpu time    5.0839: real time    5.1328
    --------------------------------------------
      LOOP:  cpu time   90.9861: real time   91.8972

 eigenvalue-minimisations  :     0
 total energy-change (2. order) :-0.3407177E+00  (-0.1485131E+00)
 number of electron     182.0000005 magnetization 
 augmentation part       36.6084928 magnetization 

 Free energy of the ion-electron system (eV)
  ---------------------------------------------------
  alpha Z        PSCENC =      1294.45375542
  Ewald energy   TEWEN  =    -11566.80951975
  -Hartree energ DENC   =    -10401.60595941
  -exchange      EXHF   =         0.00000000
  -V(xc)+E(xc)   XCENC  =      1037.64851993
  PAW double counting   =    168067.67894651  -167976.31163488
  entropy T*S    EENTRO =        -0.00257238
  eigenvalues    EBANDS =     -2965.73286024
  atomic energy  EATOM  =     22695.86256981
  ---------------------------------------------------
  free energy    TOTEN  =       185.18129865 eV

  energy without entropy =      185.18387103  energy(sigma->0) =      185.18258484


--------------------------------------------------------------------------------------------------------




--------------------------------------- Iteration      1(  12)  ---------------------------------------


    POTLOK:  cpu time    0.2206: real time    0.2221
    SETDIJ:  cpu time    1.9764: real time    1.9882
    TRIAL :  cpu time   75.0729: real time   76.2409
    CORREC:  cpu time   20.4898: real time   20.6585
    CHARGE:  cpu time    5.0524: real time    5.1002
    --------------------------------------------
      LOOP:  cpu time  102.8140: real time  104.2121

 eigenvalue-minimisations  :     0
 total energy-change (2. order) :-0.1485105E+00  (-0.5818550E-01)
 number of electron     182.0000005 magnetization 
 augmentation part       36.6029419 magnetization 

 Free energy of the ion-electron system (eV)
  ---------------------------------------------------
  alpha Z        PSCENC =      1294.45375542
  Ewald energy   TEWEN  =    -11566.80951975
  -Hartree energ DENC   =    -10398.00347153
  -exchange      EXHF   =         0.00000000
  -V(xc)+E(xc)   XCENC  =      1037.62013941
  PAW double counting   =    168743.77517887  -168652.16094050
  entropy T*S    EENTRO =        -0.00261534
  eigenvalues    EBANDS =     -2969.70235122
  atomic energy  EATOM  =     22695.86256981
  ---------------------------------------------------
  free energy    TOTEN  =       185.03278813 eV

  energy without entropy =      185.03540347  energy(sigma->0) =      185.03409580


--------------------------------------------------------------------------------------------------------




--------------------------------------- Iteration      1(  13)  ---------------------------------------


    POTLOK:  cpu time    0.3092: real time    0.3117
    SETDIJ:  cpu time    0.7704: real time    0.7774
    TRIAL :  cpu time   71.8488: real time   72.4719
    CORREC:  cpu time   21.6593: real time   21.8430
    CHARGE:  cpu time    4.9221: real time    4.9698
    --------------------------------------------
      LOOP:  cpu time   99.5105: real time  100.3759

 eigenvalue-minimisations  :     0
 total energy-change (2. order) :-0.5818613E-01  (-0.2304380E-01)
 number of electron     182.0000005 magnetization 
 augmentation part       36.5992059 magnetization 

 Free energy of the ion-electron system (eV)
  ---------------------------------------------------
  alpha Z        PSCENC =      1294.45375542
  Ewald energy   TEWEN  =    -11566.80951975
  -Hartree energ DENC   =    -10397.72111668
  -exchange      EXHF   =         0.00000000
  -V(xc)+E(xc)   XCENC  =      1037.57353277
  PAW double counting   =    169472.83324328  -169381.21076487
  entropy T*S    EENTRO =        -0.00260176
  eigenvalues    EBANDS =     -2970.00448265
  atomic energy  EATOM  =     22695.86256981
  ---------------------------------------------------
  free energy    TOTEN  =       184.97460200 eV

  energy without entropy =      184.97720375  energy(sigma->0) =      184.97590288


--------------------------------------------------------------------------------------------------------




--------------------------------------- Iteration      1(  14)  ---------------------------------------


    POTLOK:  cpu time    0.2198: real time    0.2214
    SETDIJ:  cpu time    0.8008: real time    0.8070
    TRIAL :  cpu time   75.0809: real time   76.2116
    CORREC:  cpu time   21.0490: real time   21.2350
    CHARGE:  cpu time    4.7606: real time    4.8023
    --------------------------------------------
      LOOP:  cpu time  101.9219: real time  103.2886

 eigenvalue-minimisations  :     0
 total energy-change (2. order) :-0.2304689E-01  (-0.8361767E-02)
 number of electron     182.0000005 magnetization 
 augmentation part       36.5962473 magnetization 

 Free energy of the ion-electron system (eV)
  ---------------------------------------------------
  alpha Z        PSCENC =      1294.45375542
  Ewald energy   TEWEN  =    -11566.80951975
  -Hartree energ DENC   =    -10397.34448391
  -exchange      EXHF   =         0.00000000
  -V(xc)+E(xc)   XCENC  =      1037.53034906
  PAW double counting   =    169852.42509978  -169760.79571430
  entropy T*S    EENTRO =        -0.00259318
  eigenvalues    EBANDS =     -2970.36789924
  atomic energy  EATOM  =     22695.86256981
  ---------------------------------------------------
  free energy    TOTEN  =       184.95155511 eV

  energy without entropy =      184.95414828  energy(sigma->0) =      184.95285169


--------------------------------------------------------------------------------------------------------




--------------------------------------- Iteration      1(  15)  ---------------------------------------


    POTLOK:  cpu time    0.8729: real time    0.8796
    SETDIJ:  cpu time    0.7720: real time    0.7787
    TRIAL :  cpu time   74.5063: real time   75.7186
    CORREC:  cpu time   20.8698: real time   21.0497
    CHARGE:  cpu time    5.4759: real time    5.5182
    --------------------------------------------
      LOOP:  cpu time  102.4984: real time  103.9470

 eigenvalue-minimisations  :     0
 total energy-change (2. order) :-0.8365375E-02  (-0.2672561E-02)
 number of electron     182.0000005 magnetization 
 augmentation part       36.5957259 magnetization 

 Free energy of the ion-electron system (eV)
  ---------------------------------------------------
  alpha Z        PSCENC =      1294.45375542
  Ewald energy   TEWEN  =    -11566.80951975
  -Hartree energ DENC   =    -10396.56593294
  -exchange      EXHF   =         0.00000000
  -V(xc)+E(xc)   XCENC  =      1037.51212633
  PAW double counting   =    169945.90160205  -169854.24580174
  entropy T*S    EENTRO =        -0.00260057
  eigenvalues    EBANDS =     -2971.16301627
  atomic energy  EATOM  =     22695.86256981
  ---------------------------------------------------
  free energy    TOTEN  =       184.94318973 eV

  energy without entropy =      184.94579030  energy(sigma->0) =      184.94449002


--------------------------------------------------------------------------------------------------------




--------------------------------------- Iteration      1(  16)  ---------------------------------------


    POTLOK:  cpu time    0.2238: real time    0.2254
    SETDIJ:  cpu time    0.8769: real time    0.8829
    TRIAL :  cpu time   73.5732: real time   74.6803
    CORREC:  cpu time   19.6349: real time   19.8036
    CHARGE:  cpu time    4.9024: real time    4.9451
    --------------------------------------------
      LOOP:  cpu time   99.2124: real time  100.5395

 eigenvalue-minimisations  :     0
 total energy-change (2. order) :-0.2676883E-02  (-0.8928642E-03)
 number of electron     182.0000005 magnetization 
 augmentation part       36.5958788 magnetization 

 Free energy of the ion-electron system (eV)
  ---------------------------------------------------
  alpha Z        PSCENC =      1294.45375542
  Ewald energy   TEWEN  =    -11566.80951975
  -Hartree energ DENC   =    -10396.77564242
  -exchange      EXHF   =         0.00000000
  -V(xc)+E(xc)   XCENC  =      1037.51955051
  PAW double counting   =    169964.98085454  -169873.27405749
  entropy T*S    EENTRO =        -0.00261002
  eigenvalues    EBANDS =     -2971.01439720
  atomic energy  EATOM  =     22695.86256981
  ---------------------------------------------------
  free energy    TOTEN  =       184.94051285 eV

  energy without entropy =      184.94312287  energy(sigma->0) =      184.94181786


--------------------------------------------------------------------------------------------------------




--------------------------------------- Iteration      1(  17)  ---------------------------------------


    POTLOK:  cpu time    0.3048: real time    0.3072
    SETDIJ:  cpu time    0.7656: real time    0.7713
    TRIAL :  cpu time   75.5698: real time   76.2165
    CORREC:  cpu time   21.3876: real time   21.5697
    CHARGE:  cpu time    4.6107: real time    4.6521
    --------------------------------------------
      LOOP:  cpu time  102.6395: real time  103.5186

 eigenvalue-minimisations  :     0
 total energy-change (2. order) :-0.8956318E-03  (-0.2828209E-03)
 number of electron     182.0000005 magnetization 
 augmentation part       36.5956455 magnetization 

 Free energy of the ion-electron system (eV)
  ---------------------------------------------------
  alpha Z        PSCENC =      1294.45375542
  Ewald energy   TEWEN  =    -11566.80951975
  -Hartree energ DENC   =    -10397.19101601
  -exchange      EXHF   =         0.00000000
  -V(xc)+E(xc)   XCENC  =      1037.52770060
  PAW double counting   =    169958.65998685  -169866.91067019
  entropy T*S    EENTRO =        -0.00261915
  eigenvalues    EBANDS =     -2970.65057950
  atomic energy  EATOM  =     22695.86256981
  ---------------------------------------------------
  free energy    TOTEN  =       184.93961722 eV

  energy without entropy =      184.94223637  energy(sigma->0) =      184.94092679


--------------------------------------------------------------------------------------------------------




--------------------------------------- Iteration      1(  18)  ---------------------------------------


    POTLOK:  cpu time    0.2212: real time    0.2225
    SETDIJ:  cpu time    0.8118: real time    0.8168
    TRIAL :  cpu time   69.7008: real time   70.3489
    CORREC:  cpu time   20.8060: real time   20.9800
    CHARGE:  cpu time    4.2837: real time    4.3210
    --------------------------------------------
      LOOP:  cpu time   95.8243: real time   96.6913

 eigenvalue-minimisations  :     0
 total energy-change (2. order) :-0.2844668E-03  (-0.9384111E-04)
 number of electron     182.0000005 magnetization 
 augmentation part       36.5960091 magnetization 

 Free energy of the ion-electron system (eV)
  ---------------------------------------------------
  alpha Z        PSCENC =      1294.45375542
  Ewald energy   TEWEN  =    -11566.80951975
  -Hartree energ DENC   =    -10397.21325037
  -exchange      EXHF   =         0.00000000
  -V(xc)+E(xc)   XCENC  =      1037.52974275
  PAW double counting   =    169927.79029212  -169836.01856089
  entropy T*S    EENTRO =        -0.00262496
  eigenvalues    EBANDS =     -2970.65307718
  atomic energy  EATOM  =     22695.86256981
  ---------------------------------------------------
  free energy    TOTEN  =       184.93933275 eV

  energy without entropy =      184.94195771  energy(sigma->0) =      184.94064523


--------------------------------------------------------------------------------------------------------




--------------------------------------- Iteration      1(  19)  ---------------------------------------


    POTLOK:  cpu time    0.2250: real time    0.2265
    SETDIJ:  cpu time    0.8046: real time    0.8106
    TRIAL :  cpu time   68.6906: real time   69.3229
    CORREC:  cpu time   19.9445: real time   20.1115
    CHARGE:  cpu time    4.6474: real time    4.6907
    --------------------------------------------
      LOOP:  cpu time   94.3140: real time   95.1645

 eigenvalue-minimisations  :     0
 total energy-change (2. order) :-0.9446769E-04  (-0.2747911E-04)
 number of electron     182.0000005 magnetization 
 augmentation part       36.5961794 magnetization 

 Free energy of the ion-electron system (eV)
  ---------------------------------------------------
  alpha Z        PSCENC =      1294.45375542
  Ewald energy   TEWEN  =    -11566.80951975
  -Hartree energ DENC   =    -10397.30576311
  -exchange      EXHF   =         0.00000000
  -V(xc)+E(xc)   XCENC  =      1037.53411274
  PAW double counting   =    169902.27492435  -169810.48699811
  entropy T*S    EENTRO =        -0.00262713
  eigenvalues    EBANDS =     -2970.58121812
  atomic energy  EATOM  =     22695.86256981
  ---------------------------------------------------
  free energy    TOTEN  =       184.93923828 eV

  energy without entropy =      184.94186541  energy(sigma->0) =      184.94055184


--------------------------------------------------------------------------------------------------------




--------------------------------------- Iteration      1(  20)  ---------------------------------------


    POTLOK:  cpu time    0.2128: real time    0.2143
    SETDIJ:  cpu time    0.8101: real time    0.8161
    TRIAL :  cpu time   71.7680: real time   72.5152
    CORREC:  cpu time   20.6246: real time   20.8007
    CHARGE:  cpu time    5.6725: real time    5.7238
    --------------------------------------------
      LOOP:  cpu time   99.0894: real time  100.0726

 eigenvalue-minimisations  :     0
 total energy-change (2. order) :-0.2775757E-04  (-0.7862400E-05)
 number of electron     182.0000005 magnetization 
 augmentation part       36.5960521 magnetization 

 Free energy of the ion-electron system (eV)
  ---------------------------------------------------
  alpha Z        PSCENC =      1294.45375542
  Ewald energy   TEWEN  =    -11566.80951975
  -Hartree energ DENC   =    -10397.38580035
  -exchange      EXHF   =         0.00000000
  -V(xc)+E(xc)   XCENC  =      1037.53575831
  PAW double counting   =    169893.12827571  -169801.33462567
  entropy T*S    EENTRO =        -0.00262847
  eigenvalues    EBANDS =     -2970.50857582
  atomic energy  EATOM  =     22695.86256981
  ---------------------------------------------------
  free energy    TOTEN  =       184.93921052 eV

  energy without entropy =      184.94183900  energy(sigma->0) =      184.94052476


--------------------------------------------------------------------------------------------------------




--------------------------------------- Iteration      1(  21)  ---------------------------------------


    POTLOK:  cpu time    0.2155: real time    0.2168
    SETDIJ:  cpu time    1.3506: real time    1.3588
    TRIAL :  cpu time   75.0687: real time   76.2352
    CORREC:  cpu time   20.0551: real time   20.2358
    CHARGE:  cpu time    6.5023: real time    6.5512
    --------------------------------------------
      LOOP:  cpu time  103.1989: real time  104.6049

 eigenvalue-minimisations  :     0
 total energy-change (2. order) :-0.8073926E-05  (-0.2617137E-05)
 number of electron     182.0000005 magnetization 
 augmentation part       36.5960959 magnetization 

 Free energy of the ion-electron system (eV)
  ---------------------------------------------------
  alpha Z        PSCENC =      1294.45375542
  Ewald energy   TEWEN  =    -11566.80951975
  -Hartree energ DENC   =    -10397.34932470
  -exchange      EXHF   =         0.00000000
  -V(xc)+E(xc)   XCENC  =      1037.53446653
  PAW double counting   =    169889.50144327  -169797.70779209
  entropy T*S    EENTRO =        -0.00262927
  eigenvalues    EBANDS =     -2970.54376756
  atomic energy  EATOM  =     22695.86256981
  ---------------------------------------------------
  free energy    TOTEN  =       184.93920245 eV

  energy without entropy =      184.94183172  energy(sigma->0) =      184.94051709


--------------------------------------------------------------------------------------------------------




--------------------------------------- Iteration      1(  22)  ---------------------------------------


    POTLOK:  cpu time    0.2172: real time    0.2186
    SETDIJ:  cpu time    0.8160: real time    0.8222
    TRIAL :  cpu time   65.9985: real time   66.5878
    CORREC:  cpu time   22.3070: real time   22.4982
    CHARGE:  cpu time    5.1935: real time    5.2404
    --------------------------------------------
      LOOP:  cpu time   94.6162: real time   95.4528

 eigenvalue-minimisations  :     0
 total energy-change (2. order) :-0.2659537E-05  (-0.8740829E-06)
 number of electron     182.0000005 magnetization 
 augmentation part       36.5961536 magnetization 

 Free energy of the ion-electron system (eV)
  ---------------------------------------------------
  alpha Z        PSCENC =      1294.45375542
  Ewald energy   TEWEN  =    -11566.80951975
  -Hartree energ DENC   =    -10397.35409183
  -exchange      EXHF   =         0.00000000
  -V(xc)+E(xc)   XCENC  =      1037.53465324
  PAW double counting   =    169888.60556678  -169796.81096456
  entropy T*S    EENTRO =        -0.00262952
  eigenvalues    EBANDS =     -2970.54014005
  atomic energy  EATOM  =     22695.86256981
  ---------------------------------------------------
  free energy    TOTEN  =       184.93919979 eV

  energy without entropy =      184.94182932  energy(sigma->0) =      184.94051455


--------------------------------------------------------------------------------------------------------




--------------------------------------- Iteration      1(  23)  ---------------------------------------


    POTLOK:  cpu time    0.2205: real time    0.2221
    SETDIJ:  cpu time    1.4582: real time    1.4681
    TRIAL :  cpu time   68.6325: real time   69.2300
    CORREC:  cpu time   19.9581: real time   20.1301
    CHARGE:  cpu time    4.3496: real time    4.3847
    --------------------------------------------
      LOOP:  cpu time   94.6201: real time   95.4368

 eigenvalue-minimisations  :     0
 total energy-change (2. order) :-0.8385978E-06  (-0.1619997E-06)
 number of electron     182.0000005 magnetization 
 augmentation part       36.5961244 magnetization 

 Free energy of the ion-electron system (eV)
  ---------------------------------------------------
  alpha Z        PSCENC =      1294.45375542
  Ewald energy   TEWEN  =    -11566.80951975
  -Hartree energ DENC   =    -10397.37187954
  -exchange      EXHF   =         0.00000000
  -V(xc)+E(xc)   XCENC  =      1037.53513754
  PAW double counting   =    169888.76962890  -169796.97445001
  entropy T*S    EENTRO =        -0.00262961
  eigenvalues    EBANDS =     -2970.52341389
  atomic energy  EATOM  =     22695.86256981
  ---------------------------------------------------
  free energy    TOTEN  =       184.93919895 eV

  energy without entropy =      184.94182857  energy(sigma->0) =      184.94051376


--------------------------------------------------------------------------------------------------------




--------------------------------------- Iteration      1(  24)  ---------------------------------------


    POTLOK:  cpu time    0.2177: real time    0.2191
    SETDIJ:  cpu time    0.8121: real time    0.8179
    TRIAL :  cpu time   69.4640: real time   70.0803
    CORREC:  cpu time   21.0014: real time   21.1843
    CHARGE:  cpu time    4.6303: real time    4.6693
    --------------------------------------------
      LOOP:  cpu time   96.7624: real time   97.6116

 eigenvalue-minimisations  :     0
 total energy-change (2. order) :-0.1620210E-06  (-0.9074265E-07)
 number of electron     182.0000005 magnetization 
 augmentation part       36.5961195 magnetization 

 Free energy of the ion-electron system (eV)
  ---------------------------------------------------
  alpha Z        PSCENC =      1294.45375542
  Ewald energy   TEWEN  =    -11566.80951975
  -Hartree energ DENC   =    -10397.36143006
  -exchange      EXHF   =         0.00000000
  -V(xc)+E(xc)   XCENC  =      1037.53484707
  PAW double counting   =    169888.73332618  -169796.93856695
  entropy T*S    EENTRO =        -0.00262969
  eigenvalues    EBANDS =     -2970.53315331
  atomic energy  EATOM  =     22695.86256981
  ---------------------------------------------------
  free energy    TOTEN  =       184.93919879 eV

  energy without entropy =      184.94182848  energy(sigma->0) =      184.94051363


--------------------------------------------------------------------------------------------------------




--------------------------------------- Iteration      1(  25)  ---------------------------------------


    POTLOK:  cpu time    0.2205: real time    0.2222
    SETDIJ:  cpu time    0.8132: real time    0.8196
    TRIAL :  cpu time   73.8824: real time   74.9629
    CORREC:  cpu time   19.0751: real time   19.2352
    CHARGE:  cpu time    5.5574: real time    5.6059
    --------------------------------------------
      LOOP:  cpu time   99.5495: real time  100.8476

 eigenvalue-minimisations  :     0
 total energy-change (2. order) :-0.9092037E-07  ( 0.1549090E-07)
 number of electron     182.0000005 magnetization 
 augmentation part       36.5961374 magnetization 

 Free energy of the ion-electron system (eV)
  ---------------------------------------------------
  alpha Z        PSCENC =      1294.45375542
  Ewald energy   TEWEN  =    -11566.80951975
  -Hartree energ DENC   =    -10397.35873389
  -exchange      EXHF   =         0.00000000
  -V(xc)+E(xc)   XCENC  =      1037.53475195
  PAW double counting   =    169888.87677271  -169797.08219008
  entropy T*S    EENTRO =        -0.00262973
  eigenvalues    EBANDS =     -2970.53557780
  atomic energy  EATOM  =     22695.86256981
  ---------------------------------------------------
  free energy    TOTEN  =       184.93919870 eV

  energy without entropy =      184.94182843  energy(sigma->0) =      184.94051357


--------------------------------------------------------------------------------------------------------




--------------------------------------- Iteration      1(  26)  ---------------------------------------


    POTLOK:  cpu time    0.2804: real time    0.2822
    SETDIJ:  cpu time    0.7769: real time    0.7827
