<?xml version="1.0" encoding="ISO-8859-1"?>
<modeling>
 <generator>
  <i name="program" type="string">vasp </i>
  <i name="version" type="string">6.2.0  </i>
  <i name="subversion" type="string">18Jan21 (build Jan 05 2022 15:41:44) complex                          parallel </i>
  <i name="platform" type="string">LinuxIFC </i>
  <i name="date" type="string">2025 05 07 </i>
  <i name="time" type="string">19:37:48 </i>
 </generator>
 <incar>
  <i type="string" name="SYSTEM">routine with relax: pwdword</i>
  <i type="string" name="PREC">Acc</i>
  <i type="int" name="IALGO">    38</i>
  <i type="string" name="ALGO">A</i>
  <i type="logical" name="ADDGRID"> T  </i>
  <i type="int" name="ICHARG">     2</i>
  <i type="int" name="NELM">   100</i>
  <i type="int" name="NELMIN">     6</i>
  <i name="EDIFF">      0.00000000</i>
  <i type="int" name="NSW">     0</i>
  <i type="int" name="ISIF">    -1</i>
  <i name="SYMPREC">      0.00010000</i>
  <i name="ENCUT">    600.00000000</i>
  <i type="logical" name="LREAL"> F  </i>
  <i type="int" name="ISMEAR">     0</i>
  <i name="SIGMA">      0.02000000</i>
  <i type="logical" name="LASPH"> T  </i>
  <i type="string" name="METAGGA">R2SCAN</i>
  <i type="logical" name="LMIXTAU"> F  </i>
 </incar>
 <primitive_cell>
  <structure name="primitive_cell" >
   <crystal>
    <varray name="basis" >
     <v>       3.51766414      -2.85158392       0.00000000 </v>
     <v>       2.31162797       2.85158392       2.65134124 </v>
     <v>      -2.31162797      -2.85158392       5.08252876 </v>
    </varray>
    <i name="volume">    128.55792182 </i>
    <varray name="rec_basis" >
     <v>       0.17154742      -0.13906440       0.00000000 </v>
     <v>       0.11273718       0.13907061       0.12930137 </v>
     <v>      -0.05881024      -0.07254728       0.12930137 </v>
    </varray>
   </crystal>
   <varray name="positions" >
    <v>       0.50000000       0.00000000       0.50000000 </v>
    <v>       0.00000000       0.50000000       0.50000000 </v>
    <v>       0.00000000       0.00000000       0.50000000 </v>
    <v>       0.00000000       0.00000000       0.00000000 </v>
    <v>       0.50000000       0.50000000       0.28220000 </v>
    <v>       0.50000000       0.50000000       0.71780000 </v>
   </varray>
  </structure>
  <varray name="primitive_index" >
   <v type="int" >        1 </v>
   <v type="int" >        2 </v>
   <v type="int" >        5 </v>
   <v type="int" >        6 </v>
   <v type="int" >       11 </v>
   <v type="int" >       12 </v>
  </varray>
 </primitive_cell>
 <kpoints>
  <generation param="Gamma">
   <v type="int" name="divisions">       6        6        8 </v>
   <v name="usershift">      0.00000000       0.00000000       0.00000000 </v>
   <v name="genvec1">      0.16666667       0.00000000       0.00000000 </v>
   <v name="genvec2">      0.00000000       0.16666667       0.00000000 </v>
   <v name="genvec3">      0.00000000       0.00000000       0.12500000 </v>
   <v name="shift">      0.00000000       0.00000000       0.00000000 </v>
  </generation>
  <varray name="kpointlist" >
   <v>       0.00000000       0.00000000       0.00000000 </v>
   <v>       0.16666667       0.00000000       0.00000000 </v>
   <v>       0.33333333       0.00000000       0.00000000 </v>
   <v>       0.50000000       0.00000000       0.00000000 </v>
   <v>       0.16666667       0.16666667       0.00000000 </v>
   <v>       0.33333333       0.16666667       0.00000000 </v>
   <v>       0.50000000       0.16666667       0.00000000 </v>
   <v>      -0.33333333       0.16666667       0.00000000 </v>
   <v>      -0.16666667       0.16666667       0.00000000 </v>
   <v>       0.33333333       0.33333333       0.00000000 </v>
   <v>       0.50000000       0.33333333       0.00000000 </v>
   <v>      -0.33333333       0.33333333       0.00000000 </v>
   <v>       0.50000000       0.50000000       0.00000000 </v>
   <v>       0.00000000       0.00000000       0.12500000 </v>
   <v>       0.16666667       0.00000000       0.12500000 </v>
   <v>       0.33333333       0.00000000       0.12500000 </v>
   <v>       0.50000000       0.00000000       0.12500000 </v>
   <v>      -0.33333333      -0.00000000       0.12500000 </v>
   <v>      -0.16666667       0.00000000       0.12500000 </v>
   <v>       0.16666667       0.16666667       0.12500000 </v>
   <v>       0.33333333       0.16666667       0.12500000 </v>
   <v>       0.50000000       0.16666667       0.12500000 </v>
   <v>      -0.33333333       0.16666667       0.12500000 </v>
   <v>      -0.16666667       0.16666667       0.12500000 </v>
   <v>       0.33333333       0.33333333       0.12500000 </v>
   <v>       0.50000000       0.33333333       0.12500000 </v>
   <v>      -0.33333333       0.33333333       0.12500000 </v>
   <v>      -0.16666667       0.33333333       0.12500000 </v>
   <v>       0.50000000       0.50000000       0.12500000 </v>
   <v>      -0.33333333       0.50000000       0.12500000 </v>
   <v>      -0.16666667       0.50000000       0.12500000 </v>
   <v>      -0.33333333      -0.33333333       0.12500000 </v>
   <v>      -0.16666667      -0.33333333       0.12500000 </v>
   <v>      -0.16666667      -0.16666667       0.12500000 </v>
   <v>       0.00000000       0.00000000       0.25000000 </v>
   <v>       0.16666667       0.00000000       0.25000000 </v>
   <v>       0.33333333       0.00000000       0.25000000 </v>
   <v>       0.50000000       0.00000000       0.25000000 </v>
   <v>      -0.33333333       0.00000000       0.25000000 </v>
   <v>      -0.16666667      -0.00000000       0.25000000 </v>
   <v>       0.16666667       0.16666667       0.25000000 </v>
   <v>       0.33333333       0.16666667       0.25000000 </v>
   <v>       0.50000000       0.16666667       0.25000000 </v>
   <v>      -0.33333333       0.16666667       0.25000000 </v>
   <v>      -0.16666667       0.16666667       0.25000000 </v>
   <v>       0.33333333       0.33333333       0.25000000 </v>
   <v>       0.50000000       0.33333333       0.25000000 </v>
   <v>      -0.33333333       0.33333333       0.25000000 </v>
   <v>      -0.16666667       0.33333333       0.25000000 </v>
   <v>       0.50000000       0.50000000       0.25000000 </v>
   <v>      -0.33333333       0.50000000       0.25000000 </v>
   <v>      -0.16666667       0.50000000       0.25000000 </v>
   <v>      -0.33333333      -0.33333333       0.25000000 </v>
   <v>      -0.16666667      -0.33333333       0.25000000 </v>
   <v>      -0.16666667      -0.16666667       0.25000000 </v>
   <v>      -0.00000000      -0.00000000       0.37500000 </v>
   <v>       0.16666667      -0.00000000       0.37500000 </v>
   <v>       0.33333333      -0.00000000       0.37500000 </v>
   <v>      -0.33333333      -0.00000000       0.37500000 </v>
   <v>      -0.16666667      -0.00000000       0.37500000 </v>
   <v>       0.16666667       0.16666667       0.37500000 </v>
   <v>       0.50000000       0.16666667       0.37500000 </v>
   <v>      -0.33333333       0.16666667       0.37500000 </v>
   <v>      -0.16666667       0.16666667       0.37500000 </v>
   <v>       0.33333333       0.33333333       0.37500000 </v>
   <v>       0.50000000       0.33333333       0.37500000 </v>
   <v>      -0.33333333       0.33333333       0.37500000 </v>
   <v>      -0.16666667       0.33333333       0.37500000 </v>
   <v>       0.50000000       0.50000000       0.37500000 </v>
   <v>      -0.33333333       0.50000000       0.37500000 </v>
   <v>      -0.16666667       0.50000000       0.37500000 </v>
   <v>      -0.33333333      -0.33333333       0.37500000 </v>
   <v>      -0.16666667      -0.16666667       0.37500000 </v>
   <v>       0.16666667       0.16666667       0.50000000 </v>
   <v>       0.50000000       0.16666667       0.50000000 </v>
   <v>      -0.33333333       0.16666667       0.50000000 </v>
   <v>      -0.16666667       0.16666667       0.50000000 </v>
   <v>       0.33333333       0.33333333       0.50000000 </v>
   <v>       0.50000000       0.33333333       0.50000000 </v>
   <v>      -0.33333333       0.33333333       0.50000000 </v>
   <v>       0.50000000       0.50000000       0.50000000 </v>
  </varray>
  <varray name="weights" >
   <v>       0.00347222 </v>
   <v>       0.01388889 </v>
   <v>       0.01388889 </v>
   <v>       0.01388889 </v>
   <v>       0.00694444 </v>
   <v>       0.02777778 </v>
   <v>       0.02777778 </v>
   <v>       0.01388889 </v>
   <v>       0.00694444 </v>
   <v>       0.00694444 </v>
   <v>       0.02777778 </v>
   <v>       0.00694444 </v>
   <v>       0.00694444 </v>
   <v>       0.00694444 </v>
   <v>       0.01388889 </v>
   <v>       0.01388889 </v>
   <v>       0.02777778 </v>
   <v>       0.01388889 </v>
   <v>       0.01388889 </v>
   <v>       0.00694444 </v>
   <v>       0.02777778 </v>
   <v>       0.01388889 </v>
   <v>       0.01388889 </v>
   <v>       0.01388889 </v>
   <v>       0.00694444 </v>
   <v>       0.01388889 </v>
   <v>       0.01388889 </v>
   <v>       0.01388889 </v>
   <v>       0.00694444 </v>
   <v>       0.01388889 </v>
   <v>       0.01388889 </v>
   <v>       0.00694444 </v>
   <v>       0.02777778 </v>
   <v>       0.00694444 </v>
   <v>       0.00694444 </v>
   <v>       0.01388889 </v>
   <v>       0.01388889 </v>
   <v>       0.01388889 </v>
   <v>       0.01388889 </v>
   <v>       0.01388889 </v>
   <v>       0.00694444 </v>
   <v>       0.01388889 </v>
   <v>       0.01388889 </v>
   <v>       0.01388889 </v>
   <v>       0.01388889 </v>
   <v>       0.00694444 </v>
   <v>       0.01388889 </v>
   <v>       0.01388889 </v>
   <v>       0.01388889 </v>
   <v>       0.00694444 </v>
   <v>       0.01388889 </v>
   <v>       0.01388889 </v>
   <v>       0.00694444 </v>
   <v>       0.01388889 </v>
   <v>       0.00694444 </v>
   <v>       0.00694444 </v>
   <v>       0.01388889 </v>
   <v>       0.01388889 </v>
   <v>       0.01388889 </v>
   <v>       0.01388889 </v>
   <v>       0.00694444 </v>
   <v>       0.01388889 </v>
   <v>       0.01388889 </v>
   <v>       0.01388889 </v>
   <v>       0.00694444 </v>
   <v>       0.01388889 </v>
   <v>       0.01388889 </v>
   <v>       0.01388889 </v>
   <v>       0.00694444 </v>
   <v>       0.01388889 </v>
   <v>       0.01388889 </v>
   <v>       0.00694444 </v>
   <v>       0.00694444 </v>
   <v>       0.00694444 </v>
   <v>       0.01388889 </v>
   <v>       0.01388889 </v>
   <v>       0.00694444 </v>
   <v>       0.00694444 </v>
   <v>       0.01388889 </v>
   <v>       0.00694444 </v>
   <v>       0.00347222 </v>
  </varray>
 </kpoints>
 <parameters>
  <separator name="general" >
   <i type="string" name="SYSTEM">routine with relax: pwdword</i>
   <i type="logical" name="LCOMPAT"> F  </i>
  </separator>
  <separator name="electronic" >
   <i type="string" name="PREC">acc</i>
   <i name="ENMAX">    600.00000000</i>
   <i name="ENAUG">    535.51400000</i>
   <i name="EDIFF">      0.00000000</i>
   <i type="int" name="IALGO">    58</i>
   <i type="int" name="IWAVPR">    10</i>
   <i type="int" name="NBANDS">    54</i>
   <i type="int" name="NBANDSLOW">    -1</i>
   <i type="int" name="NBANDSHIGH">    -1</i>
   <i name="NELECT">     84.00000000</i>
   <i type="int" name="TURBO">     0</i>
   <i type="int" name="IRESTART">     0</i>
   <i type="int" name="NREBOOT">     0</i>
   <i type="int" name="NMIN">     0</i>
   <i name="EREF">      0.00000000</i>
   <separator name="electronic smearing" >
    <i type="int" name="ISMEAR">     0</i>
    <i name="SIGMA">      0.02000000</i>
    <i name="KSPACING">      0.50000000</i>
    <i type="logical" name="KGAMMA"> T  </i>
    <i type="logical" name="KBLOWUP"> F  </i>
   </separator>
   <separator name="electronic projectors" >
    <i type="logical" name="LREAL"> F  </i>
    <v name="ROPT">      0.00000000      0.00000000      0.00000000</v>
    <i type="int" name="LMAXPAW">  -100</i>
    <i type="int" name="LMAXMIX">     2</i>
    <i type="logical" name="NLSPLINE"> F  </i>
   </separator>
   <separator name="electronic startup" >
    <i type="int" name="ISTART">     0</i>
    <i type="int" name="ICHARG">     2</i>
    <i type="int" name="INIWAV">     1</i>
   </separator>
   <separator name="electronic spin" >
    <i type="int" name="ISPIN">     1</i>
    <i type="logical" name="LNONCOLLINEAR"> F  </i>
    <v name="MAGMOM">      1.00000000      1.00000000      1.00000000      1.00000000      1.00000000      1.00000000      1.00000000      1.00000000      1.00000000      1.00000000      1.00000000      1.00000000</v>
    <i name="NUPDOWN">     -1.00000000</i>
    <i type="logical" name="LSORBIT"> F  </i>
    <v name="SAXIS">      0.00000000      0.00000000      1.00000000</v>
    <i type="logical" name="LSPIRAL"> F  </i>
    <v name="QSPIRAL">      0.00000000      0.00000000      0.00000000</v>
    <i type="logical" name="LZEROZ"> F  </i>
   </separator>
   <separator name="electronic exchange-correlation" >
    <i type="logical" name="LASPH"> T  </i>
    <i type="logical" name="LMETAGGA"> F  </i>
   </separator>
   <separator name="electronic convergence" >
    <i type="int" name="NELM">   100</i>
    <i type="int" name="NELMDL">    -5</i>
    <i type="int" name="NELMIN">     6</i>
    <i name="ENINI">    600.00000000</i>
    <separator name="electronic convergence detail" >
     <i type="logical" name="LDIAG"> T  </i>
     <i type="logical" name="LSUBROT"> F  </i>
     <i name="WEIMIN">      0.00000000</i>
     <i name="EBREAK">      0.00000000</i>
     <i name="DEPER">      0.30000000</i>
     <i type="int" name="NRMM">     4</i>
     <i name="TIME">      0.40000000</i>
    </separator>
   </separator>
   <separator name="electronic mixer" >
    <i name="AMIX">      0.40000000</i>
    <i name="BMIX">      1.00000000</i>
    <i name="AMIN">      0.10000000</i>
    <i name="AMIX_MAG">      1.60000000</i>
    <i name="BMIX_MAG">      1.00000000</i>
    <separator name="electronic mixer details" >
     <i type="int" name="IMIX">     4</i>
     <i type="logical" name="MIXFIRST"> F  </i>
     <i type="int" name="MAXMIX">   -45</i>
     <i name="WC">    100.00000000</i>
     <i type="int" name="INIMIX">     1</i>
     <i type="int" name="MIXPRE">     1</i>
     <i type="int" name="MREMOVE">     5</i>
    </separator>
   </separator>
   <separator name="electronic dipolcorrection" >
    <i type="logical" name="LDIPOL"> F  </i>
    <i type="logical" name="LMONO"> F  </i>
    <i type="int" name="IDIPOL">     0</i>
    <i name="EPSILON">      1.00000000</i>
    <v name="DIPOL">   -100.00000000   -100.00000000   -100.00000000</v>
    <i name="EFIELD">      0.00000000</i>
   </separator>
  </separator>
  <separator name="grids" >
   <i type="int" name="NGX">    64</i>
   <i type="int" name="NGY">    64</i>
   <i type="int" name="NGZ">    64</i>
   <i type="int" name="NGXF">   128</i>
   <i type="int" name="NGYF">   128</i>
   <i type="int" name="NGZF">   128</i>
   <i type="logical" name="ADDGRID"> T  </i>
  </separator>
  <separator name="ionic" >
   <i type="int" name="NSW">     0</i>
   <i type="int" name="IBRION">    -1</i>
   <i type="int" name="MDALGO">     0</i>
   <i type="int" name="ISIF">    -1</i>
   <i name="PSTRESS">      0.00000000</i>
   <i name="EDIFFG">      0.00000001</i>
   <i type="int" name="NFREE">     0</i>
   <i name="POTIM">      0.50000000</i>
   <i name="SMASS">     -3.00000000</i>
   <i name="SCALEE">      1.00000000</i>
  </separator>
  <separator name="ionic md" >
   <i name="TEBEG">      0.00010000</i>
   <i name="TEEND">      0.00010000</i>
   <i type="int" name="NBLOCK">     1</i>
   <i type="int" name="KBLOCK">     1</i>
   <i type="int" name="NPACO">   256</i>
   <i name="APACO">     16.00000000</i>
  </separator>
  <separator name="symmetry" >
   <i type="int" name="ISYM">     2</i>
   <i name="SYMPREC">      0.00010000</i>
  </separator>
  <separator name="dos" >
   <i type="int" name="LORBIT">     0</i>
   <v name="RWIGS">     -1.00000000     -1.00000000     -1.00000000</v>
   <i type="int" name="NEDOS">   301</i>
   <i name="EMIN">     10.00000000</i>
   <i name="EMAX">    -10.00000000</i>
   <i name="EFERMI">      0.00000000</i>
  </separator>
  <separator name="writing" >
   <i type="int" name="NWRITE">     2</i>
   <i type="logical" name="LWAVE"> T  </i>
   <i type="logical" name="LDOWNSAMPLE"> F  </i>
   <i type="logical" name="LCHARG"> T  </i>
   <i type="logical" name="LPARD"> F  </i>
   <i type="logical" name="LVTOT"> F  </i>
   <i type="logical" name="LVHAR"> F  </i>
   <i type="logical" name="LELF"> F  </i>
   <i type="logical" name="LOPTICS"> F  </i>
   <v name="STM">      0.00000000      0.00000000      0.00000000      0.00000000      0.00000000      0.00000000      0.00000000</v>
  </separator>
  <separator name="performance" >
   <i type="int" name="NPAR">     6</i>
   <i type="int" name="NSIM">     4</i>
   <i type="int" name="NBLK">    -1</i>
   <i type="logical" name="LPLANE"> T  </i>
   <i type="logical" name="LSCALAPACK"> T  </i>
   <i type="logical" name="LSCAAWARE"> F  </i>
   <i type="logical" name="LSCALU"> F  </i>
   <i type="logical" name="LASYNC"> F  </i>
   <i type="logical" name="LORBITALREAL"> F  </i>
  </separator>
  <separator name="miscellaneous" >
   <i type="int" name="IDIOT">     3</i>
   <i type="int" name="PHON_NSTRUCT">    -1</i>
   <i type="logical" name="LMUSIC"> F  </i>
   <v name="POMASS">     10.81100000     95.94000000     28.08500000</v>
   <v name="DARWINR">      0.00000000      0.00000000      0.00000000</v>
   <v name="DARWINV">      1.00000000      1.00000000      1.00000000</v>
   <i type="logical" name="LCORR"> T  </i>
  </separator>
  <i type="logical" name="GGA_COMPAT"> T  </i>
  <i type="logical" name="LBERRY"> F  </i>
  <i type="int" name="ICORELEVEL">     0</i>
  <i type="logical" name="LDAU"> F  </i>
  <i type="int" name="I_CONSTRAINED_M">     0</i>
  <separator name="electronic exchange-correlation" >
   <i type="string" name="GGA">--</i>
   <i type="int" name="VOSKOWN">     0</i>
   <i type="logical" name="LHFCALC"> F  </i>
   <i type="string" name="PRECFOCK"></i>
   <i type="logical" name="LSYMGRAD"> F  </i>
   <i type="logical" name="LHFONE"> F  </i>
   <i type="logical" name="LRHFCALC"> F  </i>
   <i type="logical" name="LTHOMAS"> F  </i>
   <i type="logical" name="LMODELHF"> F  </i>
   <i type="logical" name="LFOCKACE"> F  </i>
   <i name="ENCUT4O">     -1.00000000</i>
   <i type="int" name="EXXOEP">     0</i>
   <i type="int" name="FOURORBIT">     0</i>
   <i name="AEXX">      0.00000000</i>
   <i name="HFALPHA">      0.00000000</i>
   <i name="MCALPHA">      0.00000000</i>
   <i name="ALDAX">      1.00000000</i>
   <i name="AGGAX">      1.00000000</i>
   <i name="ALDAC">      1.00000000</i>
   <i name="AGGAC">      1.00000000</i>
   <i type="int" name="NKREDX">     1</i>
   <i type="int" name="NKREDY">     1</i>
   <i type="int" name="NKREDZ">     1</i>
   <i type="logical" name="SHIFTRED"> F  </i>
   <i type="logical" name="ODDONLY"> F  </i>
   <i type="logical" name="EVENONLY"> F  </i>
   <i type="int" name="LMAXFOCK">     0</i>
   <i type="int" name="NMAXFOCKAE">     0</i>
   <i type="logical" name="LFOCKAEDFT"> F  </i>
   <i name="HFSCREEN">      0.00000000</i>
   <i name="HFSCREENC">      0.00000000</i>
   <i type="int" name="NBANDSGWLOW">     0</i>
  </separator>
  <separator name="vdW DFT" >
   <i type="logical" name="LUSE_VDW"> F  </i>
   <i name="Zab_VDW">     -0.84910000</i>
   <i name="PARAM1">      0.12340000</i>
   <i name="PARAM2">      1.00000000</i>
   <i name="PARAM3">      0.00000000</i>
  </separator>
  <separator name="model GW" >
   <i type="int" name="MODEL_GW">     0</i>
   <i name="MODEL_EPS0">     12.85579218</i>
   <i name="MODEL_ALPHA">      1.00000000</i>
  </separator>
  <separator name="linear response parameters" >
   <i type="logical" name="LEPSILON"> F  </i>
   <i type="logical" name="LRPA"> F  </i>
   <i type="logical" name="LNABLA"> F  </i>
   <i type="logical" name="LVEL"> F  </i>
   <i type="int" name="KINTER">     0</i>
   <i name="CSHIFT">      0.10000000</i>
   <i name="OMEGAMAX">     -1.00000000</i>
   <i name="DEG_THRESHOLD">      0.00200000</i>
   <i name="RTIME">     -0.10000000</i>
   <i name="WPLASMAI">      0.00000000</i>
   <v name="DFIELD">      0.00000000      0.00000000      0.00000000</v>
   <v name="WPLASMA">      0.00000000      0.00000000      0.00000000      0.00000000      0.00000000      0.00000000      0.00000000      0.00000000      0.00000000</v>
  </separator>
  <separator name="orbital magnetization" >
   <i type="logical" name="NUCIND"> F  </i>
   <v name="MAGPOS">      0.00000000      0.00000000      0.00000000</v>
   <i type="logical" name="LNICSALL"> T  </i>
   <i type="logical" name="ORBITALMAG"> F  </i>
   <i type="logical" name="LMAGBLOCH"> F  </i>
   <i type="logical" name="LCHIMAG"> F  </i>
   <i type="logical" name="LGAUGE"> T  </i>
   <i type="int" name="MAGATOM">     0</i>
   <v name="MAGDIPOL">      0.00000000      0.00000000      0.00000000</v>
   <v name="AVECCONST">      0.00000000      0.00000000      0.00000000</v>
  </separator>
  <separator name="response functions" >
   <i type="logical" name="LFINITE_TEMPERATURE"> F  </i>
   <i type="logical" name="LADDER"> F  </i>
   <i type="logical" name="LRPAFORCE"> F  </i>
   <i type="logical" name="LFXC"> F  </i>
   <i type="logical" name="LHARTREE"> T  </i>
   <i type="int" name="IBSE">     0</i>
   <v type="int" name="KPOINT">    -1     0     0     0</v>
   <i type="logical" name="LTCTC"> F  </i>
   <i type="logical" name="LTCTE"> F  </i>
   <i type="logical" name="LTETE"> F  </i>
   <i type="logical" name="LTRIPLET"> F  </i>
   <i type="logical" name="LFXCEPS"> F  </i>
   <i type="logical" name="LFXHEG"> F  </i>
   <i type="int" name="NATURALO">     2</i>
   <i type="logical" name="LHOLEGF"> F  </i>
   <i type="logical" name="L2ORDER"> F  </i>
   <i type="logical" name="LDMP1"> F  </i>
   <i type="logical" name="LMP2LT"> F  </i>
   <i type="logical" name="LSMP2LT"> F  </i>
   <i type="logical" name="LGWLF"> F  </i>
   <i name="ENCUTGW">     -2.00000000</i>
   <i name="ENCUTGWSOFT">     -2.00000000</i>
   <i name="ENCUTLF">     -1.00000000</i>
   <i type="logical" name="LESF_SPLINES"> F  </i>
   <i type="int" name="LMAXMP2">    -1</i>
   <i name="SCISSOR">      0.00000000</i>
   <i type="int" name="NOMEGA">     0</i>
   <i type="int" name="NOMEGAR">     0</i>
   <i type="int" name="NBANDSGW">    -1</i>
   <i type="int" name="NBANDSO">    -1</i>
   <i type="int" name="NBANDSV">    -1</i>
   <i type="int" name="NELM">   100</i>
   <i type="int" name="NELMHF">     1</i>
   <i type="int" name="DIM">     3</i>
   <i type="int" name="IESPILON">     4</i>
   <i type="int" name="ANTIRES">     0</i>
   <i name="OMEGAMAX">    -30.00000000</i>
   <i name="OMEGAMIN">    -30.00000000</i>
   <i name="OMEGATL">   -200.00000000</i>
   <i type="int" name="OMEGAGRID">     0</i>
   <i name="CSHIFT">     -0.10000000</i>
   <i type="logical" name="LSELFENERGY"> F  </i>
   <i type="logical" name="LSPECTRAL"> F  </i>
   <i type="logical" name="LSPECTRALGW"> F  </i>
   <i type="logical" name="LSINGLES"> F  </i>
   <i type="logical" name="LFERMIGW"> F  </i>
   <i type="logical" name="ODDONLYGW"> F  </i>
   <i type="logical" name="EVENONLYGW"> F  </i>
   <i type="int" name="NKREDLFX">     1</i>
   <i type="int" name="NKREDLFY">     1</i>
   <i type="int" name="NKREDLFZ">     1</i>
   <i type="int" name="MAXMEM">  2800</i>
   <i type="int" name="TELESCOPE">     0</i>
   <i type="int" name="NTAUPAR">    -1</i>
   <i type="int" name="NOMEGAPAR">    -1</i>
   <i name="DAMP_NEWTON">      0.80000001</i>
   <i name="LAMBDA">      1.00000000</i>
  </separator>
  <separator name="External order field" >
   <i name="OFIELD_KAPPA">      0.00000000</i>
   <v name="OFIELD_K">      0.00000000      0.00000000      0.00000000</v>
   <i name="OFIELD_Q6_NEAR">      0.00000000</i>
   <i name="OFIELD_Q6_FAR">      0.00000000</i>
   <i name="OFIELD_A">      0.00000000</i>
  </separator>
 </parameters>
 <atominfo>
  <atoms>      12 </atoms>
  <types>       3 </types>
  <array name="atoms" >
   <dimension dim="1">ion</dimension>
   <field type="string">element</field>
   <field type="int">atomtype</field>
   <set>
    <rc><c>B </c><c>   1</c></rc>
    <rc><c>B </c><c>   1</c></rc>
    <rc><c>B </c><c>   1</c></rc>
    <rc><c>B </c><c>   1</c></rc>
    <rc><c>Mo</c><c>   2</c></rc>
    <rc><c>Mo</c><c>   2</c></rc>
    <rc><c>Mo</c><c>   2</c></rc>
    <rc><c>Mo</c><c>   2</c></rc>
    <rc><c>Si</c><c>   3</c></rc>
    <rc><c>Si</c><c>   3</c></rc>
    <rc><c>Si</c><c>   3</c></rc>
    <rc><c>Si</c><c>   3</c></rc>
   </set>
  </array>
  <array name="atomtypes" >
   <dimension dim="1">type</dimension>
   <field type="int">atomspertype</field>
   <field type="string">element</field>
   <field>mass</field>
   <field>valence</field>
   <field type="string">pseudopotential</field>
   <set>
    <rc><c>   4</c><c>B </c><c>     10.81100000</c><c>      3.00000000</c><c>  PAW_PBE B 06Sep2000                   </c></rc>
    <rc><c>   4</c><c>Mo</c><c>     95.94000000</c><c>     14.00000000</c><c>  PAW_PBE Mo_sv 02Feb2006               </c></rc>
    <rc><c>   4</c><c>Si</c><c>     28.08500000</c><c>      4.00000000</c><c>  PAW_PBE Si 05Jan2001                  </c></rc>
   </set>
  </array>
 </atominfo>
 <structure name="initialpos" >
  <crystal>
   <varray name="basis" >
    <v>       5.82929212       0.00000000      -5.08252876 </v>
    <v>      -1.20603617       5.70316783      -5.08252876 </v>
    <v>       0.00000000       0.00000000       7.73387000 </v>
   </varray>
   <i name="volume">    257.11584364 </i>
   <varray name="rec_basis" >
    <v>       0.17154742       0.03627675       0.00000000 </v>
    <v>       0.00000000       0.17534115       0.00000000 </v>
    <v>       0.11273718       0.13907061       0.12930137 </v>
   </varray>
  </crystal>
  <varray name="positions" >
   <v>       0.50000000       0.00000000       0.00000000 </v>
   <v>       0.00000000       0.00000000       0.50000000 </v>
   <v>       0.00000000       0.50000000       0.00000000 </v>
   <v>       0.50000000       0.50000000       0.50000000 </v>
   <v>       0.25000000       0.25000000       0.00000000 </v>
   <v>       0.50000000       0.50000000       0.00000000 </v>
   <v>       0.75000000       0.75000000       0.00000000 </v>
   <v>       0.00000000       0.00000000       0.00000000 </v>
   <v>       0.85890000       0.35890000       0.50000000 </v>
   <v>       0.14110000       0.64110000       0.50000000 </v>
   <v>       0.35890000       0.85890000       0.50000000 </v>
   <v>       0.64110000       0.14110000       0.50000000 </v>
  </varray>
 </structure>
 <calculation>
  <scstep>
   <time name="total">   45.58   45.92</time>
   <energy>
    <i name="alphaZ">    212.98383778 </i>
    <i name="ewald">  -5275.67939308 </i>
    <i name="hartreedc">  -2491.09698610 </i>
    <i name="XCdc">    306.82225203 </i>
    <i name="pawpsdc">   6444.67582193 </i>
    <i name="pawaedc">  -6389.50304870 </i>
    <i name="eentropy">     -0.00068396 </i>
    <i name="bandstr">   -391.62956750 </i>
    <i name="atom">   8146.07472429 </i>
    <i name="e_fr_energy">    562.64695668 </i>
    <i name="e_wo_entrp">    562.64764064 </i>
    <i name="e_0_energy">    562.64729866 </i>
   </energy>
  </scstep>
  <scstep>
   <time name="total">   45.01   45.61</time>
   <energy>
    <i name="e_fr_energy">   -143.97791184 </i>
    <i name="e_wo_entrp">   -143.97548461 </i>
    <i name="e_0_energy">   -143.97669822 </i>
   </energy>
  </scstep>
  <scstep>
   <time name="total">   50.86   51.41</time>
   <energy>
    <i name="e_fr_energy">   -179.43129562 </i>
    <i name="e_wo_entrp">   -179.42797045 </i>
    <i name="e_0_energy">   -179.42963304 </i>
   </energy>
  </scstep>
  <scstep>
   <time name="total">   49.65   50.23</time>
   <energy>
    <i name="e_fr_energy">   -180.66356292 </i>
    <i name="e_wo_entrp">   -180.66048258 </i>
    <i name="e_0_energy">   -180.66202275 </i>
   </energy>
  </scstep>
  <scstep>
   <time name="total">   54.24   54.86</time>
   <energy>
    <i name="e_fr_energy">   -180.70260941 </i>
    <i name="e_wo_entrp">   -180.69954192 </i>
    <i name="e_0_energy">   -180.70107567 </i>
   </energy>
  </scstep>
  <scstep>
   <time name="total">   56.42   56.89</time>
   <energy>
    <i name="e_fr_energy">    -37.57086912 </i>
    <i name="e_wo_entrp">    -37.56801232 </i>
    <i name="e_0_energy">    -37.56944072 </i>
   </energy>
  </scstep>
  <scstep>
   <time name="total">   58.58   59.27</time>
   <energy>
    <i name="e_fr_energy">   -133.38330043 </i>
    <i name="e_wo_entrp">   -133.37983638 </i>
    <i name="e_0_energy">   -133.38156841 </i>
   </energy>
  </scstep>
  <scstep>
   <time name="total">   59.50   60.21</time>
   <energy>
    <i name="e_fr_energy">   -138.84252786 </i>
    <i name="e_wo_entrp">   -138.83905187 </i>
    <i name="e_0_energy">   -138.84078986 </i>
   </energy>
  </scstep>
  <scstep>
   <time name="total">   58.60   59.18</time>
   <energy>
    <i name="e_fr_energy">   -141.09355267 </i>
    <i name="e_wo_entrp">   -141.09060201 </i>
    <i name="e_0_energy">   -141.09207734 </i>
   </energy>
  </scstep>
  <scstep>
   <time name="total">   60.24   60.81</time>
   <energy>
    <i name="e_fr_energy">   -141.73772345 </i>
    <i name="e_wo_entrp">   -141.73459969 </i>
    <i name="e_0_energy">   -141.73616157 </i>
   </energy>
  </scstep>
  <scstep>
   <time name="total">   59.68   60.33</time>
   <energy>
    <i name="e_fr_energy">   -142.22470461 </i>
    <i name="e_wo_entrp">   -142.22158597 </i>
    <i name="e_0_energy">   -142.22314529 </i>
   </energy>
  </scstep>
  <scstep>
   <time name="total">   59.60   60.22</time>
   <energy>
    <i name="e_fr_energy">   -142.39896258 </i>
    <i name="e_wo_entrp">   -142.39591514 </i>
    <i name="e_0_energy">   -142.39743886 </i>
   </energy>
  </scstep>
  <scstep>
   <time name="total">   59.42   60.03</time>
   <energy>
    <i name="e_fr_energy">   -142.48523427 </i>
    <i name="e_wo_entrp">   -142.48225298 </i>
    <i name="e_0_energy">   -142.48374362 </i>
   </energy>
  </scstep>
  <scstep>
   <time name="total">   59.81   60.41</time>
   <energy>
    <i name="e_fr_energy">   -142.58166761 </i>
    <i name="e_wo_entrp">   -142.57854314 </i>
    <i name="e_0_energy">   -142.58010537 </i>
   </energy>
  </scstep>
  <scstep>
   <time name="total">   59.08   59.73</time>
   <energy>
    <i name="e_fr_energy">   -142.61745711 </i>
    <i name="e_wo_entrp">   -142.61444528 </i>
    <i name="e_0_energy">   -142.61595119 </i>
   </energy>
  </scstep>
  <scstep>
   <time name="total">   60.44   61.02</time>
   <energy>
    <i name="e_fr_energy">   -142.66439929 </i>
    <i name="e_wo_entrp">   -142.66141746 </i>
    <i name="e_0_energy">   -142.66290838 </i>
   </energy>
  </scstep>
  <scstep>
   <time name="total">   60.28   60.90</time>
   <energy>
    <i name="e_fr_energy">   -142.69304515 </i>
    <i name="e_wo_entrp">   -142.68993208 </i>
    <i name="e_0_energy">   -142.69148861 </i>
   </energy>
  </scstep>
  <scstep>
   <time name="total">   60.54   61.25</time>
   <energy>
    <i name="e_fr_energy">   -142.71307718 </i>
    <i name="e_wo_entrp">   -142.70986953 </i>
    <i name="e_0_energy">   -142.71147335 </i>
   </energy>
  </scstep>
  <scstep>
   <time name="total">   59.14   59.81</time>
   <energy>
    <i name="e_fr_energy">   -142.72793726 </i>
    <i name="e_wo_entrp">   -142.72470128 </i>
    <i name="e_0_energy">   -142.72631927 </i>
   </energy>
  </scstep>
  <scstep>
   <time name="total">   59.49   60.05</time>
   <energy>
    <i name="e_fr_energy">   -142.73248833 </i>
    <i name="e_wo_entrp">   -142.72905755 </i>
    <i name="e_0_energy">   -142.73077294 </i>
   </energy>
  </scstep>
  <scstep>
   <time name="total">   59.58   60.23</time>
   <energy>
    <i name="e_fr_energy">   -142.73901739 </i>
    <i name="e_wo_entrp">   -142.73545670 </i>
    <i name="e_0_energy">   -142.73723704 </i>
   </energy>
  </scstep>
  <scstep>
   <time name="total">   59.35   60.01</time>
   <energy>
    <i name="e_fr_energy">   -142.74143511 </i>
    <i name="e_wo_entrp">   -142.73775024 </i>
    <i name="e_0_energy">   -142.73959268 </i>
   </energy>
  </scstep>
  <scstep>
   <time name="total">   59.58   60.20</time>
   <energy>
    <i name="e_fr_energy">   -142.74373719 </i>
    <i name="e_wo_entrp">   -142.73997720 </i>
    <i name="e_0_energy">   -142.74185719 </i>
   </energy>
  </scstep>
  <scstep>
   <time name="total">   58.93   59.45</time>
   <energy>
    <i name="e_fr_energy">   -142.74557307 </i>
    <i name="e_wo_entrp">   -142.74181113 </i>
    <i name="e_0_energy">   -142.74369210 </i>
   </energy>
  </scstep>
  <scstep>
   <time name="total">   58.93   59.41</time>
   <energy>
    <i name="e_fr_energy">   -142.74631551 </i>
    <i name="e_wo_entrp">   -142.74256320 </i>
    <i name="e_0_energy">   -142.74443935 </i>
   </energy>
  </scstep>
  <scstep>
   <time name="total">   58.78   59.29</time>
   <energy>
    <i name="e_fr_energy">   -142.74725455 </i>
    <i name="e_wo_entrp">   -142.74349633 </i>
    <i name="e_0_energy">   -142.74537544 </i>
   </energy>
  </scstep>
  <scstep>
   <time name="total">   59.71   60.37</time>
   <energy>
    <i name="e_fr_energy">   -142.74754944 </i>
    <i name="e_wo_entrp">   -142.74378329 </i>
    <i name="e_0_energy">   -142.74566636 </i>
   </energy>
  </scstep>
  <scstep>
   <time name="total">   59.01   59.46</time>
   <energy>
    <i name="e_fr_energy">   -142.74797214 </i>
    <i name="e_wo_entrp">   -142.74419522 </i>
    <i name="e_0_energy">   -142.74608368 </i>
   </energy>
  </scstep>
  <scstep>
   <time name="total">   58.73   59.34</time>
   <energy>
    <i name="e_fr_energy">   -142.74817083 </i>
    <i name="e_wo_entrp">   -142.74436679 </i>
    <i name="e_0_energy">   -142.74626881 </i>
   </energy>
  </scstep>
  <scstep>
   <time name="total">   59.29   59.88</time>
   <energy>
    <i name="e_fr_energy">   -142.74834906 </i>
    <i name="e_wo_entrp">   -142.74450156 </i>
    <i name="e_0_energy">   -142.74642531 </i>
   </energy>
  </scstep>
  <scstep>
   <time name="total">   59.47   59.98</time>
   <energy>
    <i name="e_fr_energy">   -142.74851382 </i>
    <i name="e_wo_entrp">   -142.74464735 </i>
    <i name="e_0_energy">   -142.74658058 </i>
   </energy>
  </scstep>
  <scstep>
   <time name="total">   59.57   60.13</time>
   <energy>
    <i name="e_fr_energy">   -142.74857809 </i>
    <i name="e_wo_entrp">   -142.74466444 </i>
    <i name="e_0_energy">   -142.74662127 </i>
   </energy>
  </scstep>
  <scstep>
   <time name="total">   59.76   60.38</time>
   <energy>
    <i name="e_fr_energy">   -142.74866897 </i>
    <i name="e_wo_entrp">   -142.74472267 </i>
    <i name="e_0_energy">   -142.74669582 </i>
   </energy>
  </scstep>
  <scstep>
   <time name="total">   59.78   60.37</time>
   <energy>
    <i name="e_fr_energy">   -142.74871553 </i>
    <i name="e_wo_entrp">   -142.74475364 </i>
    <i name="e_0_energy">   -142.74673459 </i>
   </energy>
  </scstep>
  <scstep>
   <time name="total">   59.87   60.36</time>
   <energy>
    <i name="e_fr_energy">   -142.74874164 </i>
    <i name="e_wo_entrp">   -142.74475344 </i>
    <i name="e_0_energy">   -142.74674754 </i>
   </energy>
  </scstep>
  <scstep>
   <time name="total">   60.25   60.86</time>
   <energy>
    <i name="e_fr_energy">   -142.74877406 </i>
    <i name="e_wo_entrp">   -142.74477221 </i>
    <i name="e_0_energy">   -142.74677314 </i>
   </energy>
  </scstep>
  <scstep>
   <time name="total">   59.92   60.49</time>
   <energy>
    <i name="e_fr_energy">   -142.74878662 </i>
    <i name="e_wo_entrp">   -142.74478659 </i>
    <i name="e_0_energy">   -142.74678660 </i>
   </energy>
  </scstep>
  <scstep>
   <time name="total">   60.17   60.83</time>
   <energy>
    <i name="e_fr_energy">   -142.74879479 </i>
    <i name="e_wo_entrp">   -142.74479038 </i>
    <i name="e_0_energy">   -142.74679258 </i>
   </energy>
  </scstep>
  <scstep>
   <time name="total">   59.87   60.49</time>
   <energy>
    <i name="e_fr_energy">   -142.74881329 </i>
    <i name="e_wo_entrp">   -142.74480425 </i>
    <i name="e_0_energy">   -142.74680877 </i>
   </energy>
  </scstep>
  <scstep>
   <time name="total">   59.85   60.32</time>
   <energy>
    <i name="e_fr_energy">   -142.74882289 </i>
    <i name="e_wo_entrp">   -142.74481122 </i>
    <i name="e_0_energy">   -142.74681706 </i>
   </energy>
  </scstep>
  <scstep>
