 vasp.6.2.0 18Jan21 (build Jan 05 2022 15:41:44) complex                        
  
 executed on             LinuxIFC date 2025.05.07  17:22:20
 running on   24 total cores
 distrk:  each k-point on   12 cores,    2 groups
 distr:  one band on NCORE=   2 cores,    6 groups


--------------------------------------------------------------------------------------------------------


 INCAR:
   SYSTEM = routine with relax: pwdword
   ICHARG = 2
   NPAR = 6
   KPAR = 2
   NCORE = 2
   ADDGRID = T
   PREC = Acc
   ENCUT = 600
   METAGGA = R2SCAN
   LASPH = .TRUE.
   LMIXTAU = .FALSE.
   ALGO = A
   EDIFF = 1E-9
   NELM = 100
   NELMIN = 6
   IALGO = 38
   LREAL = F
   NSW = 0
   ISIF = -1
   ISMEAR = 0
   SIGMA = 0.02

 POTCAR:    PAW_PBE B 06Sep2000                   
 POTCAR:    PAW_PBE Mo_sv 02Feb2006               
 POTCAR:    PAW_PBE Si 05Jan2001                  
 -----------------------------------------------------------------------------
|                                                                             |
|           W    W    AA    RRRRR   N    N  II  N    N   GGGG   !!!           |
|           W    W   A  A   R    R  NN   N  II  NN   N  G    G  !!!           |
|           W    W  A    A  R    R  N N  N  II  N N  N  G       !!!           |
|           W WW W  AAAAAA  RRRRR   N  N N  II  N  N N  G  GGG   !            |
|           WW  WW  A    A  R   R   N   NN  II  N   NN  G    G                |
|           W    W  A    A  R    R  N    N  II  N    N   GGGG   !!!           |
|                                                                             |
|     For optimal performance we recommend to set                             |
|       NCORE = 2 up to number-of-cores-per-socket                            |
|     NCORE specifies how many cores store one orbital (NPAR=cpu/NCORE).      |
|     This setting can greatly improve the performance of VASP for DFT.       |
|     The default, NCORE=1 might be grossly inefficient on modern             |
|     multi-core architectures or massively parallel machines. Do your        |
|     own testing! More info at https://www.vasp.at/wiki/index.php/NCORE      |
|     Unfortunately you need to use the default for GW and RPA                |
|     calculations (for HF NCORE is supported but not extensively tested      |
|     yet).                                                                   |
|                                                                             |
 -----------------------------------------------------------------------------

 POTCAR:    PAW_PBE B 06Sep2000                   
   VRHFIN =B: s2p1                                                                                  
   LEXCH  = PE                                                                                      
   EATOM  =    71.1703 eV,    5.2309 Ry                                                             
                                                                                                    
   TITEL  = PAW_PBE B 06Sep2000                                                                     
   LULTRA =        F    use ultrasoft PP ?                                                          
   IUNSCR =        1    unscreen: 0-lin 1-nonlin 2-no                                               
   RPACOR =    1.200    partial core radius                                                         
   POMASS =   10.811; ZVAL   =    3.000    mass and valenz                                          
   RCORE  =    1.700    outmost cutoff radius                                                       
   RWIGS  =    1.710; RWIGS  =    0.905    wigner-seitz radius (au A)                               
   ENMAX  =  318.614; ENMIN  =  238.960 eV                                                          
   ICORE  =        2    local potential                                                             
   LCOR   =        T    correct aug charges                                                         
   LPAW   =        T    paw PP                                                                      
   EAUG   =  535.514                                                                                
   DEXC   =    0.000                                                                                
   RMAX   =    1.732    core radius for proj-oper                                                   
   RAUG   =    1.300    factor for augmentation sphere                                              
   RDEP   =    1.757    radius for radial grids                                                     
   RDEPT  =    1.436    core radius for aug-charge                                                  
                                                                                                    
   Atomic configuration                                                                             
    4 entries                                                                                       
     n  l   j            E        occ.                                                              
     1  0  0.50      -180.5896   2.0000                                                             
     2  0  0.50        -9.4431   2.0000                                                             
     2  1  0.50        -3.6068   1.0000                                                             
     3  2  1.50        -4.0817   0.0000                                                             
   Description                                                                                      
     l       E           TYP  RCUT    TYP  RCUT                                                     
     0     -9.4430752     23  1.500                                                                 
     0      0.8675899     23  1.500                                                                 
     1     -3.6067955     23  1.700                                                                 
     1      6.1086146     23  1.700                                                                 
     2     -4.0817478      7  1.700                                                                 
  local pseudopotential read in
  partial core-charges read in
  partial kinetic energy density read in
  atomic valenz-charges read in
  non local Contribution for L=           0  read in
    real space projection operators read in
  non local Contribution for L=           0  read in
    real space projection operators read in
  non local Contribution for L=           1  read in
    real space projection operators read in
  non local Contribution for L=           1  read in
    real space projection operators read in
    PAW grid and wavefunctions read in
 
   number of l-projection  operators is LMAX  =           4
   number of lm-projection operators is LMMAX =           8
 
 POTCAR:    PAW_PBE Mo_sv 02Feb2006               
   VRHFIN =Mo: 4p5s4d                                                                               
   LEXCH  = PE                                                                                      
   EATOM  =  1862.2866 eV,  136.8742 Ry                                                             
                                                                                                    
   TITEL  = PAW_PBE Mo_sv 02Feb2006                                                                 
   LULTRA =        F    use ultrasoft PP ?                                                          
   IUNSCR =        1    unscreen: 0-lin 1-nonlin 2-no                                               
   RPACOR =    2.200    partial core radius                                                         
   POMASS =   95.940; ZVAL   =   14.000    mass and valenz                                          
   RCORE  =    2.500    outmost cutoff radius                                                       
   RWIGS  =    2.750; RWIGS  =    1.455    wigner-seitz radius (au A)                               
   ENMAX  =  242.676; ENMIN  =  182.007 eV                                                          
   ICORE  =        3    local potential                                                             
   LCOR   =        T    correct aug charges                                                         
   LPAW   =        T    paw PP                                                                      
   EAUG   =  446.014                                                                                
   DEXC   =    0.000                                                                                
   RMAX   =    2.563    core radius for proj-oper                                                   
   RAUG   =    1.300    factor for augmentation sphere                                              
   RDEP   =    2.641    radius for radial grids                                                     
   RDEPT  =    2.031    core radius for aug-charge                                                  
                                                                                                    
   Atomic configuration                                                                             
   11 entries                                                                                       
     n  l   j            E        occ.                                                              
     1  0  0.50    -19819.0341   2.0000                                                             
     2  0  0.50     -2799.0127   2.0000                                                             
     2  1  1.50     -2502.0276   6.0000                                                             
     3  0  0.50      -476.4449   2.0000                                                             
     3  1  1.50      -379.1496   6.0000                                                             
     3  2  2.50      -220.9367  10.0000                                                             
     4  0  0.50       -64.3378   2.0000                                                             
     5  0  0.50        -4.0862   1.0000                                                             
     4  1  1.50       -38.4773   6.0000                                                             
     4  2  2.50        -3.7535   5.0000                                                             
     4  3  2.50        -1.3606   0.0000                                                             
   Description                                                                                      
     l       E           TYP  RCUT    TYP  RCUT                                                     
     0    -64.3377829     23  2.100                                                                 
     0     -4.0861640     23  2.400                                                                 
     1    -38.4772993     23  2.100                                                                 
     1     13.6058260     23  2.100                                                                 
     2     -3.7534941     23  2.400                                                                 
     2     -5.1140767     23  2.400                                                                 
     3     -4.0817478     23  2.500                                                                 
  local pseudopotential read in
  partial core-charges read in
  partial kinetic energy density read in
  atomic valenz-charges read in
  non local Contribution for L=           0  read in
    real space projection operators read in
  non local Contribution for L=           0  read in
    real space projection operators read in
  non local Contribution for L=           1  read in
    real space projection operators read in
  non local Contribution for L=           1  read in
    real space projection operators read in
  non local Contribution for L=           2  read in
    real space projection operators read in
  non local Contribution for L=           2  read in
    real space projection operators read in
    PAW grid and wavefunctions read in
 
   number of l-projection  operators is LMAX  =           6
   number of lm-projection operators is LMMAX =          18
 
 POTCAR:    PAW_PBE Si 05Jan2001                  
   VRHFIN =Si: s2p2                                                                                 
   LEXCH  = PE                                                                                      
   EATOM  =   103.0669 eV,    7.5752 Ry                                                             
                                                                                                    
   TITEL  = PAW_PBE Si 05Jan2001                                                                    
   LULTRA =        F    use ultrasoft PP ?                                                          
   IUNSCR =        1    unscreen: 0-lin 1-nonlin 2-no                                               
   RPACOR =    1.500    partial core radius                                                         
   POMASS =   28.085; ZVAL   =    4.000    mass and valenz                                          
   RCORE  =    1.900    outmost cutoff radius                                                       
   RWIGS  =    2.480; RWIGS  =    1.312    wigner-seitz radius (au A)                               
   ENMAX  =  245.345; ENMIN  =  184.009 eV                                                          
   ICORE  =        2    local potential                                                             
   LCOR   =        T    correct aug charges                                                         
   LPAW   =        T    paw PP                                                                      
   EAUG   =  322.069                                                                                
   DEXC   =    0.000                                                                                
   RMAX   =    1.950    core radius for proj-oper                                                   
   RAUG   =    1.300    factor for augmentation sphere                                              
   RDEP   =    1.993    radius for radial grids                                                     
   RDEPT  =    1.837    core radius for aug-charge                                                  
                                                                                                    
   Atomic configuration                                                                             
    6 entries                                                                                       
     n  l   j            E        occ.                                                              
     1  0  0.50     -1785.8828   2.0000                                                             
     2  0  0.50      -139.4969   2.0000                                                             
     2  1  1.50       -95.5546   6.0000                                                             
     3  0  0.50       -10.8127   2.0000                                                             
     3  1  0.50        -4.0811   2.0000                                                             
     3  2  1.50        -4.0817   0.0000                                                             
   Description                                                                                      
     l       E           TYP  RCUT    TYP  RCUT                                                     
     0    -10.8127223     23  1.900                                                                 
     0     -7.6451159     23  1.900                                                                 
     1     -4.0811372     23  1.900                                                                 
     1      2.4879257     23  1.900                                                                 
     2     -4.0817478      7  1.900                                                                 
  local pseudopotential read in
  partial core-charges read in
  partial kinetic energy density read in
  atomic valenz-charges read in
  non local Contribution for L=           0  read in
    real space projection operators read in
  non local Contribution for L=           0  read in
    real space projection operators read in
  non local Contribution for L=           1  read in
    real space projection operators read in
  non local Contribution for L=           1  read in
    real space projection operators read in
    PAW grid and wavefunctions read in
 
   number of l-projection  operators is LMAX  =           4
   number of lm-projection operators is LMMAX =           8
 
  PAW_PBE B 06Sep2000                   :
 energy of atom  1       EATOM=  -71.1703
 kinetic energy error for atom=    0.0007 (will be added to EATOM!!)
  PAW_PBE Mo_sv 02Feb2006               :
 energy of atom  2       EATOM=-1862.2866
 kinetic energy error for atom=    0.0041 (will be added to EATOM!!)
  PAW_PBE Si 05Jan2001                  :
 energy of atom  3       EATOM= -103.0669
 kinetic energy error for atom=    0.0003 (will be added to EATOM!!)
 
 
 POSCAR: EA117
  positions in direct lattice
  No initial velocities read in

 METAGGA = R2SCA    LMAXTAU =  6    LMIXTAU =  F

 exchange correlation table for  LEXCH =        8
   RHO(1)=    0.500       N(1)  =     2000
   RHO(2)=  100.500       N(2)  =     4000
 


--------------------------------------------------------------------------------------------------------


 ion  position               nearest neighbor table
   1  0.250  0.250  0.000-   3 2.18   8 2.18   6 2.33   4 2.33   7 2.33   5 2.33
   2  0.750  0.750  0.000-   3 2.18   8 2.18   6 2.33   4 2.33   5 2.33   7 2.33
   3  0.500  0.500  0.000-   1 2.18   2 2.18   4 3.19   6 3.19   7 3.19   7 3.19   4 3.19   6 3.19
                             5 3.19   5 3.19
   4  0.500  0.000  0.000-   1 2.33   2 2.33   9 2.33  10 2.33   3 3.19   8 3.19   3 3.19   8 3.19
                             7 3.29   7 3.29   5 3.29   5 3.29
   5  0.000  0.000  0.500-   9 2.33  10 2.33   1 2.33   2 2.33   8 3.19   8 3.19   3 3.19   3 3.19
                             4 3.29   6 3.29   4 3.29   6 3.29
   6  0.000  0.500  0.000-   1 2.33   2 2.33  10 2.33   9 2.33   3 3.19   8 3.19   8 3.19   3 3.19
                             7 3.29   5 3.29   5 3.29   7 3.29
   7  0.500  0.500  0.500-   9 2.33  10 2.33   2 2.33   1 2.33   3 3.19   3 3.19   8 3.19   8 3.19
                             4 3.29   4 3.29   6 3.29   6 3.29
   8  0.000  0.000  0.000-   1 2.18   2 2.18   4 3.19   5 3.19   6 3.19   5 3.19   6 3.19   4 3.19
                             7 3.19   7 3.19
   9  0.750  0.250  0.500-   5 2.33   7 2.33   6 2.33   4 2.33
  10  0.250  0.750  0.500-   5 2.33   7 2.33   4 2.33   6 2.33
 
  LATTYP: Found a body centered tetragonal cell.
 ALAT       =     6.5770573024
 C/A-ratio  =     1.3265275386
  
  Lattice vectors:
  
 A1 = (   5.6348874301,   0.0000000000,  -2.9844008006)
 A2 = (  -2.0418357239,   5.2519389968,  -2.9844008006)
 A3 = (   0.0000000000,   0.0000000000,   6.3764100000)


Analysis of symmetry for initial positions (statically):
=====================================================================
 Subroutine PRICEL returns following result:
 
  LATTYP: Found a simple tetragonal cell.
 ALAT       =     4.6506704250
 C/A-ratio  =     0.9379989160
  
  Lattice vectors:
  
 A1 = (  -3.8383615770,   2.6259694984,   0.0000000000)
 A2 = (   1.7965258531,   2.6259694984,   3.3920091994)
 A3 = (   1.7965258531,   2.6259694984,  -2.9844008006)
 
   2 primitive cells build up your supercell.
 

 Routine SETGRP: Setting up the symmetry group for a 
 body centered tetragonal supercell.


 Subroutine GETGRP returns: Found 16 space group operations
 (whereof 16 operations were pure point group operations)
 out of a pool of 16 trial point group operations.


The static configuration has the point symmetry D_4h.


Analysis of symmetry for dynamics (positions and initial velocities):
=====================================================================
 Subroutine PRICEL returns following result:
 
  LATTYP: Found a simple tetragonal cell.
 ALAT       =     4.6506704250
 C/A-ratio  =     0.9379989160
  
  Lattice vectors:
  
 A1 = (  -3.8383615770,   2.6259694984,   0.0000000000)
 A2 = (   1.7965258531,   2.6259694984,   3.3920091994)
 A3 = (   1.7965258531,   2.6259694984,  -2.9844008006)
 
   2 primitive cells build up your supercell.
 

 Routine SETGRP: Setting up the symmetry group for a 
 body centered tetragonal supercell.


 Subroutine GETGRP returns: Found 16 space group operations
 (whereof 16 operations were pure point group operations)
 out of a pool of 16 trial point group operations.


The dynamic configuration has the point symmetry D_4h.


 Subroutine INISYM returns: Found 16 space group operations
 (whereof 16 operations are pure point group operations),
 and found     2 'primitive' translations


----------------------------------------------------------------------------------------

                                     Primitive cell                                     

  volume of cell :      94.3520

  direct lattice vectors                    reciprocal lattice vectors
    -3.838361577  2.625969498  0.000000000    -0.177465834  0.121411144  0.000000000
     1.796525853  2.625969498  3.392009199     0.083060716  0.121409278  0.156828058
     1.796525853  2.625969498 -2.984400801     0.094405119  0.137991314 -0.156828058

  length of vectors
     4.650670425  4.650693212  4.362323817     0.215022762  0.215021708  0.229235619

  position of ions in fractional coordinates (direct lattice)
     0.000000000  0.000000000  0.500000000
     0.000000000  0.000000000  1.000000000
     0.500000000  0.000000000  0.500000000
     0.000000000  0.500000000  0.500000000
     0.500000000  0.500000000  0.500000000

  ion indices of the primitive-cell ions
   primitive index   ion index
                 1           1
                 2           3
                 3           4
                 4           5
                 5           9

----------------------------------------------------------------------------------------

 
 
 KPOINTS: EA                                      

Automatic generation of k-mesh.
 Grid dimensions read from file:
 generate k-points for:    7    7    8

 Generating k-lattice:

  Cartesian coordinates                     Fractional coordinates (reciprocal lattice)
     0.025352262  0.009856389  0.000000000     0.142857143  0.000000000  0.000000000
     0.000000000  0.027200838  0.000000000     0.000000000  0.142857143  0.000000000
     0.010382589  0.015176160  0.019603507     0.000000000 -0.000000000  0.125000000

  Length of vectors
     0.027200838  0.027200838  0.026877714

  Shift w.r.t. Gamma in fractional coordinates (k-lattice)
     0.000000000  0.000000000  0.000000000

 -----------------------------------------------------------------------------
|                                                                             |
|           W    W    AA    RRRRR   N    N  II  N    N   GGGG   !!!           |
|           W    W   A  A   R    R  NN   N  II  NN   N  G    G  !!!           |
|           W    W  A    A  R    R  N N  N  II  N N  N  G       !!!           |
|           W WW W  AAAAAA  RRRRR   N  N N  II  N  N N  G  GGG   !            |
|           WW  WW  A    A  R   R   N   NN  II  N   NN  G    G                |
|           W    W  A    A  R    R  N    N  II  N    N   GGGG   !!!           |
|                                                                             |
|     Your reciprocal lattice and k-lattice belong to different lattice       |
|     classes:                                                                |
|                                                                             |
|        The reciprocal lattice is body-centered tetragonal,                  |
|        whereas your k-lattice is base-centered monoclinic.                  |
|                                                                             |
|     Results are often still useful ...                                      |
|                                                                             |
 -----------------------------------------------------------------------------

 WARNING: IBZKPT: internal override: KBLOWUP is changed to .FALSE.
      ... skipping the blow-up phase ...

 
 Subroutine IBZKPT returns following result:
 ===========================================
 
 Found    116 irreducible k-points:
 
 Following reciprocal coordinates:
            Coordinates               Weight
  0.000000  0.000000  0.000000      1.000000
  0.142857  0.000000  0.000000      4.000000
  0.285714  0.000000  0.000000      4.000000
  0.428571  0.000000  0.000000      4.000000
  0.142857  0.142857  0.000000      2.000000
  0.285714  0.142857  0.000000      4.000000
  0.428571  0.142857  0.000000      4.000000
 -0.428571  0.142857  0.000000      4.000000
 -0.285714  0.142857  0.000000      4.000000
 -0.142857  0.142857  0.000000      2.000000
  0.285714  0.285714  0.000000      2.000000
  0.428571  0.285714  0.000000      4.000000
 -0.428571  0.285714  0.000000      4.000000
 -0.285714  0.285714  0.000000      2.000000
  0.428571  0.428571  0.000000      2.000000
 -0.428571  0.428571  0.000000      2.000000
  0.000000  0.000000  0.125000      2.000000
  0.142857  0.000000  0.125000      4.000000
  0.285714 -0.000000  0.125000      4.000000
  0.428571 -0.000000  0.125000      4.000000
 -0.428571  0.000000  0.125000      4.000000
 -0.285714 -0.000000  0.125000      4.000000
 -0.142857 -0.000000  0.125000      4.000000
  0.142857  0.142857  0.125000      2.000000
  0.285714  0.142857  0.125000      4.000000
  0.428571  0.142857  0.125000      4.000000
 -0.428571  0.142857  0.125000      4.000000
 -0.285714  0.142857  0.125000      4.000000
 -0.142857  0.142857  0.125000      4.000000
  0.285714  0.285714  0.125000      2.000000
  0.428571  0.285714  0.125000      4.000000
 -0.428571  0.285714  0.125000      4.000000
 -0.285714  0.285714  0.125000      4.000000
 -0.142857  0.285714  0.125000      4.000000
  0.428571  0.428571  0.125000      2.000000
 -0.428571  0.428571  0.125000      4.000000
 -0.285714  0.428571  0.125000      4.000000
 -0.142857  0.428571  0.125000      4.000000
 -0.428571 -0.428571  0.125000      2.000000
 -0.285714 -0.428571  0.125000      4.000000
 -0.142857 -0.428571  0.125000      4.000000
 -0.285714 -0.285714  0.125000      2.000000
 -0.142857 -0.285714  0.125000      4.000000
 -0.142857 -0.142857  0.125000      2.000000
  0.000000  0.000000  0.250000      2.000000
  0.142857 -0.000000  0.250000      4.000000
  0.285714  0.000000  0.250000      4.000000
  0.428571 -0.000000  0.250000      4.000000
 -0.428571 -0.000000  0.250000      4.000000
 -0.285714  0.000000  0.250000      4.000000
 -0.142857 -0.000000  0.250000      4.000000
  0.142857  0.142857  0.250000      2.000000
  0.285714  0.142857  0.250000      4.000000
  0.428571  0.142857  0.250000      4.000000
 -0.428571  0.142857  0.250000      4.000000
 -0.285714  0.142857  0.250000      4.000000
 -0.142857  0.142857  0.250000      4.000000
  0.285714  0.285714  0.250000      2.000000
  0.428571  0.285714  0.250000      4.000000
 -0.428571  0.285714  0.250000      4.000000
 -0.285714  0.285714  0.250000      4.000000
 -0.142857  0.285714  0.250000      4.000000
  0.428571  0.428571  0.250000      2.000000
 -0.428571  0.428571  0.250000      4.000000
 -0.285714  0.428571  0.250000      4.000000
 -0.142857  0.428571  0.250000      4.000000
 -0.428571 -0.428571  0.250000      2.000000
 -0.285714 -0.428571  0.250000      4.000000
 -0.142857 -0.428571  0.250000      4.000000
 -0.285714 -0.285714  0.250000      2.000000
 -0.142857 -0.285714  0.250000      4.000000
 -0.142857 -0.142857  0.250000      2.000000
 -0.000000 -0.000000  0.375000      2.000000
  0.142857  0.000000  0.375000      4.000000
  0.285714 -0.000000  0.375000      4.000000
  0.428571 -0.000000  0.375000      4.000000
 -0.428571 -0.000000  0.375000      4.000000
 -0.285714 -0.000000  0.375000      4.000000
 -0.142857  0.000000  0.375000      4.000000
  0.142857  0.142857  0.375000      2.000000
  0.285714  0.142857  0.375000      4.000000
  0.428571  0.142857  0.375000      4.000000
 -0.428571  0.142857  0.375000      4.000000
 -0.285714  0.142857  0.375000      4.000000
 -0.142857  0.142857  0.375000      4.000000
  0.285714  0.285714  0.375000      2.000000
  0.428571  0.285714  0.375000      4.000000
 -0.428571  0.285714  0.375000      4.000000
 -0.285714  0.285714  0.375000      4.000000
 -0.142857  0.285714  0.375000      4.000000
  0.428571  0.428571  0.375000      2.000000
 -0.428571  0.428571  0.375000      4.000000
 -0.285714  0.428571  0.375000      4.000000
 -0.142857  0.428571  0.375000      4.000000
 -0.428571 -0.428571  0.375000      2.000000
 -0.285714 -0.428571  0.375000      4.000000
 -0.142857 -0.428571  0.375000      4.000000
 -0.285714 -0.285714  0.375000      2.000000
 -0.142857 -0.285714  0.375000      4.000000
 -0.142857 -0.142857  0.375000      2.000000
  0.000000  0.000000  0.500000      1.000000
  0.142857 -0.000000  0.500000      4.000000
  0.285714 -0.000000  0.500000      4.000000
  0.428571 -0.000000  0.500000      4.000000
  0.142857  0.142857  0.500000      2.000000
  0.285714  0.142857  0.500000      4.000000
  0.428571  0.142857  0.500000      4.000000
 -0.428571  0.142857  0.500000      4.000000
 -0.285714  0.142857  0.500000      4.000000
 -0.142857  0.142857  0.500000      2.000000
  0.285714  0.285714  0.500000      2.000000
  0.428571  0.285714  0.500000      4.000000
 -0.428571  0.285714  0.500000      4.000000
 -0.285714  0.285714  0.500000      2.000000
  0.428571  0.428571  0.500000      2.000000
 -0.428571  0.428571  0.500000      2.000000
 
 Following cartesian coordinates:
            Coordinates               Weight
  0.000000  0.000000  0.000000      1.000000
  0.025352  0.009856  0.000000      4.000000
  0.050705  0.019713  0.000000      4.000000
  0.076057  0.029569  0.000000      4.000000
  0.025352  0.037057  0.000000      2.000000
  0.050705  0.046914  0.000000      4.000000
  0.076057  0.056770  0.000000      4.000000
 -0.076057 -0.002368  0.000000      4.000000
 -0.050705  0.007488  0.000000      4.000000
 -0.025352  0.017344  0.000000      2.000000
  0.050705  0.074114  0.000000      2.000000
  0.076057  0.083971  0.000000      4.000000
 -0.076057  0.024833  0.000000      4.000000
 -0.050705  0.034689  0.000000      2.000000
  0.076057  0.111172  0.000000      2.000000
 -0.076057  0.052033  0.000000      2.000000
  0.010383  0.015176  0.019604      2.000000
  0.035735  0.025033  0.019604      4.000000
  0.061087  0.034889  0.019604      4.000000
  0.086439  0.044745  0.019604      4.000000
 -0.065674 -0.014393  0.019604      4.000000
 -0.040322 -0.004537  0.019604      4.000000
 -0.014970  0.005320  0.019604      4.000000
  0.035735  0.052233  0.019604      2.000000
  0.061087  0.062090  0.019604      4.000000
  0.086439  0.071946  0.019604      4.000000
 -0.065674  0.012808  0.019604      4.000000
 -0.040322  0.022664  0.019604      4.000000
 -0.014970  0.032521  0.019604      4.000000
  0.061087  0.089291  0.019604      2.000000
  0.086439  0.099147  0.019604      4.000000
 -0.065674  0.040009  0.019604      4.000000
 -0.040322  0.049865  0.019604      4.000000
 -0.014970  0.059721  0.019604      4.000000
  0.086439  0.126348  0.019604      2.000000
 -0.065674  0.067210  0.019604      4.000000
 -0.040322  0.077066  0.019604      4.000000
 -0.014970  0.086922  0.019604      4.000000
 -0.065674 -0.095996  0.019604      2.000000
 -0.040322 -0.086139  0.019604      4.000000
 -0.014970 -0.076283  0.019604      4.000000
 -0.040322 -0.058938  0.019604      2.000000
 -0.014970 -0.049082  0.019604      4.000000
 -0.014970 -0.021881  0.019604      2.000000
  0.020765  0.030352  0.039207      2.000000
  0.046117  0.040209  0.039207      4.000000
  0.071470  0.050065  0.039207      4.000000
  0.096822  0.059921  0.039207      4.000000
 -0.055292  0.000783  0.039207      4.000000
 -0.029939  0.010640  0.039207      4.000000
 -0.004587  0.020496  0.039207      4.000000
  0.046117  0.067410  0.039207      2.000000
  0.071470  0.077266  0.039207      4.000000
  0.096822  0.087122  0.039207      4.000000
 -0.055292  0.027984  0.039207      4.000000
 -0.029939  0.037840  0.039207      4.000000
 -0.004587  0.047697  0.039207      4.000000
  0.071470  0.104467  0.039207      2.000000
  0.096822  0.114323  0.039207      4.000000
 -0.055292  0.055185  0.039207      4.000000
 -0.029939  0.065041  0.039207      4.000000
 -0.004587  0.074898  0.039207      4.000000
  0.096822  0.141524  0.039207      2.000000
 -0.055292  0.082386  0.039207      4.000000
 -0.029939  0.092242  0.039207      4.000000
 -0.004587  0.102098  0.039207      4.000000
 -0.055292 -0.080819  0.039207      2.000000
 -0.029939 -0.070963  0.039207      4.000000
 -0.004587 -0.061107  0.039207      4.000000
 -0.029939 -0.043762  0.039207      2.000000
 -0.004587 -0.033906  0.039207      4.000000
 -0.004587 -0.006705  0.039207      2.000000
  0.031148  0.045528  0.058811      2.000000
  0.056500  0.055385  0.058811      4.000000
  0.081852  0.065241  0.058811      4.000000
  0.107205  0.075098  0.058811      4.000000
 -0.044909  0.015959  0.058811      4.000000
 -0.019557  0.025816  0.058811      4.000000
  0.005796  0.035672  0.058811      4.000000
  0.056500  0.082586  0.058811      2.000000
  0.081852  0.092442  0.058811      4.000000
  0.107205  0.102298  0.058811      4.000000
 -0.044909  0.043160  0.058811      4.000000
 -0.019557  0.053017  0.058811      4.000000
  0.005796  0.062873  0.058811      4.000000
  0.081852  0.119643  0.058811      2.000000
  0.107205  0.129499  0.058811      4.000000
 -0.044909  0.070361  0.058811      4.000000
 -0.019557  0.080217  0.058811      4.000000
  0.005796  0.090074  0.058811      4.000000
  0.107205  0.156700  0.058811      2.000000
 -0.044909  0.097562  0.058811      4.000000
 -0.019557  0.107418  0.058811      4.000000
  0.005796  0.117275  0.058811      4.000000
 -0.044909 -0.065643  0.058811      2.000000
 -0.019557 -0.055787  0.058811      4.000000
  0.005796 -0.045930  0.058811      4.000000
 -0.019557 -0.028586  0.058811      2.000000
  0.005796 -0.018730  0.058811      4.000000
  0.005796  0.008471  0.058811      2.000000
  0.041530  0.060705  0.078414      1.000000
  0.066883  0.070561  0.078414      4.000000
  0.092235  0.080417  0.078414      4.000000
  0.117587  0.090274  0.078414      4.000000
  0.066883  0.097762  0.078414      2.000000
  0.092235  0.107618  0.078414      4.000000
  0.117587  0.117475  0.078414      4.000000
 -0.034526  0.058336  0.078414      4.000000
 -0.009174  0.068193  0.078414      4.000000
  0.016178  0.078049  0.078414      2.000000
  0.092235  0.134819  0.078414      2.000000
  0.117587  0.144675  0.078414      4.000000
 -0.034526  0.085537  0.078414      4.000000
 -0.009174  0.095394  0.078414      2.000000
  0.117587  0.171876  0.078414      2.000000
 -0.034526  0.112738  0.078414      2.000000
 


--------------------------------------------------------------------------------------------------------




 Dimension of arrays:
   k-points           NKPTS =    116   k-points in BZ     NKDIM =    116   number of bands    NBANDS=     60
   number of dos      NEDOS =    301   number of ions     NIONS =     10
   non local maximal  LDIM  =      6   non local SUM 2l+1 LMDIM =     18
   total plane-waves  NPLWV = 157464
   max r-space proj   IRMAX =      1   max aug-charges    IRDMAX= 292100
   dimension x,y,z NGX =    54 NGY =   54 NGZ =   54
   dimension x,y,z NGXF=   108 NGYF=  108 NGZF=  108
   support grid    NGXF=   216 NGYF=  216 NGZF=  216
   ions per type =               2   6   2
   NGX,Y,Z   is equivalent  to a cutoff of  14.08, 14.08, 14.08 a.u.
   NGXF,Y,Z  is equivalent  to a cutoff of  28.16, 28.16, 28.16 a.u.

 SYSTEM =  routine with relax: pwdword             
 POSCAR =  EA117                                   

 Startparameter for this run:
   NWRITE =      2    write-flag & timer
   PREC   = acc       normal or accurate (medium, high low for compatibility)
   ISTART =      0    job   : 0-new  1-cont  2-samecut
   ICHARG =      2    charge: 1-file 2-atom 10-const
   ISPIN  =      1    spin polarized calculation?
   LNONCOLLINEAR =      F non collinear calculations
   LSORBIT =      F    spin-orbit coupling
   INIWAV =      1    electr: 0-lowe 1-rand  2-diag
   LASPH  =      T    aspherical Exc in radial PAW
   METAGGA=      F    non-selfconsistent MetaGGA calc.

 Electronic Relaxation 1
   ENCUT  =  600.0 eV  44.10 Ry    6.64 a.u.  12.74 12.74 12.74*2*pi/ulx,y,z
   ENINI  =  600.0     initial cutoff
   ENAUG  =  535.5 eV  augmentation charge cutoff
   NELM   =    100;   NELMIN=  6; NELMDL= -5     # of ELM steps 
   EDIFF  = 0.1E-08   stopping-criterion for ELM
   LREAL  =      F    real-space projection
   NLSPLINE    = F    spline interpolate recip. space projectors
   LCOMPAT=      F    compatible to vasp.4.4
   GGA_COMPAT  = T    GGA compatible to vasp.4.4-vasp.4.6
   LMAXPAW     = -100 max onsite density
   LMAXMIX     =    2 max onsite mixed and CHGCAR
   VOSKOWN=      0    Vosko Wilk Nusair interpolation
   ROPT   =    0.00000   0.00000   0.00000
 Ionic relaxation
   EDIFFG = 0.1E-07   stopping-criterion for IOM
   NSW    =      0    number of steps for IOM
   NBLOCK =      1;   KBLOCK =      1    inner block; outer block 
   IBRION =     -1    ionic relax: 0-MD 1-quasi-New 2-CG
   NFREE  =      0    steps in history (QN), initial steepest desc. (CG)
   ISIF   =     -1    stress and relaxation
   IWAVPR =     10    prediction:  0-non 1-charg 2-wave 3-comb
   ISYM   =      2    0-nonsym 1-usesym 2-fastsym
   LCORR  =      T    Harris-Foulkes like correction to forces

   POTIM  = 0.5000    time-step for ionic-motion
   TEIN   =    0.0    initial temperature
   TEBEG  =    0.0;   TEEND  =   0.0 temperature during run
   SMASS  =  -3.00    Nose mass-parameter (am)
   estimated Nose-frequenzy (Omega)   =  0.10E-29 period in steps = 0.13E+47 mass=  -0.929E-27a.u.
   SCALEE = 1.0000    scale energy and forces
   NPACO  =    256;   APACO  = 16.0  distance and # of slots for P.C.
   PSTRESS=    0.0 pullay stress

  Mass of Ions in am
   POMASS =  10.81 95.94 28.09
  Ionic Valenz
   ZVAL   =   3.00 14.00  4.00
  Atomic Wigner-Seitz radii
   RWIGS  =  -1.00 -1.00 -1.00
  virtual crystal weights 
   VCA    =   1.00  1.00  1.00
   NELECT =      98.0000    total number of electrons
   NUPDOWN=      -1.0000    fix difference up-down

 DOS related values:
   EMIN   =  10.00;   EMAX   =-10.00  energy-range for DOS
   EFERMI =   0.00
   ISMEAR =     0;   SIGMA  =   0.02  broadening in eV -4-tet -1-fermi 0-gaus

 Electronic relaxation 2 (details)
   IALGO  =     58    algorithm
   LDIAG  =      T    sub-space diagonalisation (order eigenvalues)
   LSUBROT=      F    optimize rotation matrix (better conditioning)
   TURBO    =      0    0=normal 1=particle mesh
   IRESTART =      0    0=no restart 2=restart with 2 vectors
   NREBOOT  =      0    no. of reboots
   NMIN     =      0    reboot dimension
   EREF     =   0.00    reference energy to select bands
   IMIX   =      4    mixing-type and parameters
     AMIX     =   0.40;   BMIX     =  1.00
     AMIX_MAG =   1.60;   BMIX_MAG =  1.00
     AMIN     =   0.10
     WC   =   100.;   INIMIX=   1;  MIXPRE=   1;  MAXMIX= -45

 Intra band minimization:
   WEIMIN = 0.0000     energy-eigenvalue tresh-hold
   EBREAK =  0.42E-11  absolut break condition
   DEPER  =   0.30     relativ break condition  

   TIME   =   0.40     timestep for ELM

  volume/ion in A,a.u.               =      18.87       127.34
  Fermi-wavevector in a.u.,A,eV,Ry     =   1.315901  2.486692 23.559778  1.731595
  Thomas-Fermi vector in A             =   2.446051
 
 Write flags
   LWAVE        =      T    write WAVECAR
   LDOWNSAMPLE  =      F    k-point downsampling of WAVECAR
   LCHARG       =      T    write CHGCAR
   LVTOT        =      F    write LOCPOT, total local potential
   LVHAR        =      F    write LOCPOT, Hartree potential only
   LELF         =      F    write electronic localiz. function (ELF)
   LORBIT       =      0    0 simple, 1 ext, 2 COOP (PROOUT), +10 PAW based schemes


 Dipole corrections
   LMONO  =      F    monopole corrections only (constant potential shift)
   LDIPOL =      F    correct potential (dipole corrections)
   IDIPOL =      0    1-x, 2-y, 3-z, 4-all directions 
   EPSILON=  1.0000000 bulk dielectric constant

 Exchange correlation treatment:
   GGA     =    --    GGA type
   LEXCH   =     8    internal setting for exchange type
   VOSKOWN=      0    Vosko Wilk Nusair interpolation
   LHFCALC =     F    Hartree Fock is set to
   LHFONE  =     F    Hartree Fock one center treatment
   AEXX    =    0.0000 exact exchange contribution

 Linear response parameters
   LEPSILON=     F    determine dielectric tensor
   LRPA    =     F    only Hartree local field effects (RPA)
   LNABLA  =     F    use nabla operator in PAW spheres
   LVEL    =     F    velocity operator in full k-point grid
   LINTERFAST=   F  fast interpolation
   KINTER  =     0    interpolate to denser k-point grid
   CSHIFT  =0.1000    complex shift for real part using Kramers Kronig
   OMEGAMAX=  -1.0    maximum frequency
   DEG_THRESHOLD= 0.2000000E-02 threshold for treating states as degnerate
   RTIME   =   -0.100 relaxation time in fs
  (WPLASMAI=    0.000 imaginary part of plasma frequency in eV, 0.658/RTIME)
   DFIELD  = 0.0000000 0.0000000 0.0000000 field for delta impulse in time
 
 Orbital magnetization related:
   ORBITALMAG=     F  switch on orbital magnetization
   LCHIMAG   =     F  perturbation theory with respect to B field
   DQ        =  0.001000  dq finite difference perturbation B field
   LLRAUG    =     F  two centre corrections for induced B field



--------------------------------------------------------------------------------------------------------


 Static calculation
 charge density and potential will be updated during run
 non-spin polarized calculation
 Conjugate gradient for all bands (Freysoldt, et al. PRB 79, 241103 (2009))
 preconditioned conjugated gradient                                        
 perform sub-space diagonalisation
    before iterative eigenvector-optimisation
 modified Broyden-mixing scheme, WC =      100.0
 initial mixing is a Kerker type mixing with AMIX =  0.4000 and BMIX =      1.0000
 Hartree-type preconditioning will be used
 using additional bands           11
 reciprocal scheme for non local part
 use partial core corrections
 no Harris-corrections to forces 
 use gradient corrections 
 use of overlap-Matrix (Vanderbilt PP)
 Gauss-broadening in eV      SIGMA  =   0.02


--------------------------------------------------------------------------------------------------------


  energy-cutoff  :      600.00
  volume of cell :      188.70
      direct lattice vectors                 reciprocal lattice vectors
     5.634887430  0.000000000 -2.984400801     0.177465834  0.068994724  0.000000000
    -2.041835724  5.251938997 -2.984400801     0.000000000  0.190405867  0.000000000
     0.000000000  0.000000000  6.376410000     0.083060716  0.121409278  0.156828058

  length of vectors
     6.376410000  6.376410000  6.376410000     0.190405867  0.190405867  0.215021708


 
 k-points in units of 2pi/SCALE and weight: EA                                      
   0.00000000  0.00000000  0.00000000       0.003
   0.02535226  0.00985639  0.00000000       0.010
   0.05070452  0.01971278  0.00000000       0.010
   0.07605679  0.02956917  0.00000000       0.010
   0.02535226  0.03705723  0.00000000       0.005
   0.05070452  0.04691362  0.00000000       0.010
   0.07605679  0.05677001  0.00000000       0.010
  -0.07605679 -0.00236833  0.00000000       0.010
  -0.05070452  0.00748806  0.00000000       0.010
  -0.02535226  0.01734445  0.00000000       0.005
   0.05070452  0.07411445  0.00000000       0.005
   0.07605679  0.08397084  0.00000000       0.010
  -0.07605679  0.02483251  0.00000000       0.010
  -0.05070452  0.03468890  0.00000000       0.005
   0.07605679  0.11117168  0.00000000       0.005
  -0.07605679  0.05203335  0.00000000       0.005
   0.01038259  0.01517616  0.01960351       0.005
   0.03573485  0.02503255  0.01960351       0.010
   0.06108711  0.03488894  0.01960351       0.010
   0.08643938  0.04474533  0.01960351       0.010
  -0.06567420 -0.01439301  0.01960351       0.010
  -0.04032193 -0.00453662  0.01960351       0.010
  -0.01496967  0.00531977  0.01960351       0.010
   0.03573485  0.05223339  0.01960351       0.005
   0.06108711  0.06208978  0.01960351       0.010
   0.08643938  0.07194617  0.01960351       0.010
  -0.06567420  0.01280783  0.01960351       0.010
  -0.04032193  0.02266422  0.01960351       0.010
  -0.01496967  0.03252061  0.01960351       0.010
   0.06108711  0.08929061  0.01960351       0.005
   0.08643938  0.09914700  0.01960351       0.010
  -0.06567420  0.04000867  0.01960351       0.010
  -0.04032193  0.04986506  0.01960351       0.010
  -0.01496967  0.05972145  0.01960351       0.010
   0.08643938  0.12634784  0.01960351       0.005
  -0.06567420  0.06720951  0.01960351       0.010
  -0.04032193  0.07706590  0.01960351       0.010
  -0.01496967  0.08692229  0.01960351       0.010
  -0.06567420 -0.09599552  0.01960351       0.005
  -0.04032193 -0.08613913  0.01960351       0.010
  -0.01496967 -0.07628274  0.01960351       0.010
  -0.04032193 -0.05893829  0.01960351       0.005
  -0.01496967 -0.04908191  0.01960351       0.010
  -0.01496967 -0.02188107  0.01960351       0.005
   0.02076518  0.03035232  0.03920701       0.005
   0.04611744  0.04020871  0.03920701       0.010
   0.07146970  0.05006510  0.03920701       0.010
   0.09682197  0.05992149  0.03920701       0.010
  -0.05529161  0.00078315  0.03920701       0.010
  -0.02993935  0.01063954  0.03920701       0.010
  -0.00458708  0.02049593  0.03920701       0.010
   0.04611744  0.06740955  0.03920701       0.005
   0.07146970  0.07726594  0.03920701       0.010
   0.09682197  0.08712232  0.03920701       0.010
  -0.05529161  0.02798399  0.03920701       0.010
  -0.02993935  0.03784038  0.03920701       0.010
  -0.00458708  0.04769677  0.03920701       0.010
   0.07146970  0.10446677  0.03920701       0.005
   0.09682197  0.11432316  0.03920701       0.010
  -0.05529161  0.05518483  0.03920701       0.010
  -0.02993935  0.06504122  0.03920701       0.010
  -0.00458708  0.07489761  0.03920701       0.010
   0.09682197  0.14152400  0.03920701       0.005
  -0.05529161  0.08238567  0.03920701       0.010
  -0.02993935  0.09224206  0.03920701       0.010
  -0.00458708  0.10209844  0.03920701       0.010
  -0.05529161 -0.08081936  0.03920701       0.005
  -0.02993935 -0.07096297  0.03920701       0.010
  -0.00458708 -0.06110658  0.03920701       0.010
  -0.02993935 -0.04376214  0.03920701       0.005
  -0.00458708 -0.03390575  0.03920701       0.010
  -0.00458708 -0.00670491  0.03920701       0.005
   0.03114777  0.04552848  0.05881052       0.005
   0.05650003  0.05538487  0.05881052       0.010
   0.08185229  0.06524126  0.05881052       0.010
   0.10720455  0.07509765  0.05881052       0.010
  -0.04490902  0.01595931  0.05881052       0.010
  -0.01955676  0.02581570  0.05881052       0.010
   0.00579551  0.03567209  0.05881052       0.010
   0.05650003  0.08258571  0.05881052       0.005
   0.08185229  0.09244210  0.05881052       0.010
   0.10720455  0.10229848  0.05881052       0.010
  -0.04490902  0.04316015  0.05881052       0.010
  -0.01955676  0.05301654  0.05881052       0.010
   0.00579551  0.06287293  0.05881052       0.010
   0.08185229  0.11964293  0.05881052       0.005
   0.10720455  0.12949932  0.05881052       0.010
  -0.04490902  0.07036099  0.05881052       0.010
  -0.01955676  0.08021738  0.05881052       0.010
   0.00579551  0.09007377  0.05881052       0.010
   0.10720455  0.15670016  0.05881052       0.005
  -0.04490902  0.09756183  0.05881052       0.010
  -0.01955676  0.10741822  0.05881052       0.010
   0.00579551  0.11727460  0.05881052       0.010
  -0.04490902 -0.06564320  0.05881052       0.005
  -0.01955676 -0.05578681  0.05881052       0.010
   0.00579551 -0.04593042  0.05881052       0.010
  -0.01955676 -0.02858598  0.05881052       0.005
   0.00579551 -0.01872959  0.05881052       0.010
   0.00579551  0.00847125  0.05881052       0.005
   0.04153036  0.06070464  0.07841403       0.003
   0.06688262  0.07056103  0.07841403       0.010
   0.09223488  0.08041742  0.07841403       0.010
   0.11758714  0.09027381  0.07841403       0.010
   0.06688262  0.09776187  0.07841403       0.005
   0.09223488  0.10761826  0.07841403       0.010
   0.11758714  0.11747464  0.07841403       0.010
  -0.03452643  0.05833631  0.07841403       0.010
  -0.00917417  0.06819270  0.07841403       0.010
   0.01617810  0.07804909  0.07841403       0.005
   0.09223488  0.13481909  0.07841403       0.005
   0.11758714  0.14467548  0.07841403       0.010
  -0.03452643  0.08553715  0.07841403       0.010
  -0.00917417  0.09539354  0.07841403       0.005
   0.11758714  0.17187632  0.07841403       0.005
  -0.03452643  0.11273799  0.07841403       0.005
 
 k-points in reciprocal lattice and weights: EA                                      
   0.00000000  0.00000000  0.00000000       0.003
   0.14285714  0.00000000  0.00000000       0.010
   0.28571429  0.00000000  0.00000000       0.010
   0.42857143  0.00000000  0.00000000       0.010
   0.14285714  0.14285714  0.00000000       0.005
   0.28571429  0.14285714  0.00000000       0.010
   0.42857143  0.14285714  0.00000000       0.010
  -0.42857143  0.14285714  0.00000000       0.010
  -0.28571429  0.14285714  0.00000000       0.010
  -0.14285714  0.14285714  0.00000000       0.005
   0.28571429  0.28571429  0.00000000       0.005
   0.42857143  0.28571429  0.00000000       0.010
  -0.42857143  0.28571429  0.00000000       0.010
  -0.28571429  0.28571429  0.00000000       0.005
   0.42857143  0.42857143  0.00000000       0.005
  -0.42857143  0.42857143  0.00000000       0.005
   0.00000000  0.00000000  0.12500000       0.005
   0.14285714  0.00000000  0.12500000       0.010
   0.28571429 -0.00000000  0.12500000       0.010
   0.42857143 -0.00000000  0.12500000       0.010
  -0.42857143  0.00000000  0.12500000       0.010
  -0.28571429 -0.00000000  0.12500000       0.010
  -0.14285714 -0.00000000  0.12500000       0.010
   0.14285714  0.14285714  0.12500000       0.005
   0.28571429  0.14285714  0.12500000       0.010
   0.42857143  0.14285714  0.12500000       0.010
  -0.42857143  0.14285714  0.12500000       0.010
  -0.28571429  0.14285714  0.12500000       0.010
  -0.14285714  0.14285714  0.12500000       0.010
   0.28571429  0.28571429  0.12500000       0.005
   0.42857143  0.28571429  0.12500000       0.010
  -0.42857143  0.28571429  0.12500000       0.010
  -0.28571429  0.28571429  0.12500000       0.010
  -0.14285714  0.28571429  0.12500000       0.010
   0.42857143  0.42857143  0.12500000       0.005
  -0.42857143  0.42857143  0.12500000       0.010
  -0.28571429  0.42857143  0.12500000       0.010
  -0.14285714  0.42857143  0.12500000       0.010
  -0.42857143 -0.42857143  0.12500000       0.005
  -0.28571429 -0.42857143  0.12500000       0.010
  -0.14285714 -0.42857143  0.12500000       0.010
  -0.28571429 -0.28571429  0.12500000       0.005
  -0.14285714 -0.28571429  0.12500000       0.010
  -0.14285714 -0.14285714  0.12500000       0.005
   0.00000000  0.00000000  0.25000000       0.005
   0.14285714 -0.00000000  0.25000000       0.010
   0.28571429  0.00000000  0.25000000       0.010
   0.42857143 -0.00000000  0.25000000       0.010
  -0.42857143 -0.00000000  0.25000000       0.010
  -0.28571429  0.00000000  0.25000000       0.010
  -0.14285714 -0.00000000  0.25000000       0.010
   0.14285714  0.14285714  0.25000000       0.005
   0.28571429  0.14285714  0.25000000       0.010
   0.42857143  0.14285714  0.25000000       0.010
  -0.42857143  0.14285714  0.25000000       0.010
  -0.28571429  0.14285714  0.25000000       0.010
  -0.14285714  0.14285714  0.25000000       0.010
   0.28571429  0.28571429  0.25000000       0.005
   0.42857143  0.28571429  0.25000000       0.010
  -0.42857143  0.28571429  0.25000000       0.010
  -0.28571429  0.28571429  0.25000000       0.010
  -0.14285714  0.28571429  0.25000000       0.010
   0.42857143  0.42857143  0.25000000       0.005
  -0.42857143  0.42857143  0.25000000       0.010
  -0.28571429  0.42857143  0.25000000       0.010
  -0.14285714  0.42857143  0.25000000       0.010
  -0.42857143 -0.42857143  0.25000000       0.005
  -0.28571429 -0.42857143  0.25000000       0.010
  -0.14285714 -0.42857143  0.25000000       0.010
  -0.28571429 -0.28571429  0.25000000       0.005
  -0.14285714 -0.28571429  0.25000000       0.010
  -0.14285714 -0.14285714  0.25000000       0.005
  -0.00000000 -0.00000000  0.37500000       0.005
   0.14285714  0.00000000  0.37500000       0.010
   0.28571429 -0.00000000  0.37500000       0.010
   0.42857143 -0.00000000  0.37500000       0.010
  -0.42857143 -0.00000000  0.37500000       0.010
  -0.28571429 -0.00000000  0.37500000       0.010
  -0.14285714  0.00000000  0.37500000       0.010
   0.14285714  0.14285714  0.37500000       0.005
   0.28571429  0.14285714  0.37500000       0.010
   0.42857143  0.14285714  0.37500000       0.010
  -0.42857143  0.14285714  0.37500000       0.010
  -0.28571429  0.14285714  0.37500000       0.010
  -0.14285714  0.14285714  0.37500000       0.010
   0.28571429  0.28571429  0.37500000       0.005
   0.42857143  0.28571429  0.37500000       0.010
  -0.42857143  0.28571429  0.37500000       0.010
  -0.28571429  0.28571429  0.37500000       0.010
  -0.14285714  0.28571429  0.37500000       0.010
   0.42857143  0.42857143  0.37500000       0.005
  -0.42857143  0.42857143  0.37500000       0.010
  -0.28571429  0.42857143  0.37500000       0.010
  -0.14285714  0.42857143  0.37500000       0.010
  -0.42857143 -0.42857143  0.37500000       0.005
  -0.28571429 -0.42857143  0.37500000       0.010
  -0.14285714 -0.42857143  0.37500000       0.010
  -0.28571429 -0.28571429  0.37500000       0.005
  -0.14285714 -0.28571429  0.37500000       0.010
  -0.14285714 -0.14285714  0.37500000       0.005
   0.00000000  0.00000000  0.50000000       0.003
   0.14285714 -0.00000000  0.50000000       0.010
   0.28571429 -0.00000000  0.50000000       0.010
   0.42857143 -0.00000000  0.50000000       0.010
   0.14285714  0.14285714  0.50000000       0.005
   0.28571429  0.14285714  0.50000000       0.010
   0.42857143  0.14285714  0.50000000       0.010
  -0.42857143  0.14285714  0.50000000       0.010
  -0.28571429  0.14285714  0.50000000       0.010
  -0.14285714  0.14285714  0.50000000       0.005
   0.28571429  0.28571429  0.50000000       0.005
   0.42857143  0.28571429  0.50000000       0.010
  -0.42857143  0.28571429  0.50000000       0.010
  -0.28571429  0.28571429  0.50000000       0.005
   0.42857143  0.42857143  0.50000000       0.005
  -0.42857143  0.42857143  0.50000000       0.005
 
 position of ions in fractional coordinates (direct lattice) 
   0.25000000  0.25000000  0.00000000
   0.75000000  0.75000000  0.00000000
   0.50000000  0.50000000  0.00000000
   0.50000000  0.00000000  0.00000000
   0.00000000  0.00000000  0.50000000
   0.00000000  0.50000000  0.00000000
   0.50000000  0.50000000  0.50000000
   0.00000000  0.00000000  0.00000000
   0.75000000  0.25000000  0.50000000
   0.25000000  0.75000000  0.50000000
 
 position of ions in cartesian coordinates  (Angst):
   0.89826293  1.31298475 -1.49220040
   2.69478878  3.93895425 -4.47660120
   1.79652585  2.62596950 -2.98440080
   2.81744372  0.00000000 -1.49220040
   0.00000000  0.00000000  3.18820500
  -1.02091786  2.62596950 -1.49220040
   1.79652585  2.62596950  0.20380420
   0.00000000  0.00000000  0.00000000
   3.71570664  1.31298475  0.20380420
  -0.12265494  3.93895425  0.20380420
 


--------------------------------------------------------------------------------------------------------


 k-point   1 :   0.0000 0.0000 0.0000  plane waves:    6325
 k-point   2 :   0.1429 0.0000 0.0000  plane waves:    6304
 k-point   3 :   0.2857 0.0000 0.0000  plane waves:    6294
 k-point   4 :   0.4286 0.0000 0.0000  plane waves:    6287
 k-point   5 :   0.1429 0.1429 0.0000  plane waves:    6297
 k-point   6 :   0.2857 0.1429 0.0000  plane waves:    6286
 k-point   7 :   0.4286 0.1429 0.0000  plane waves:    6299
 k-point   8 :  -0.4286 0.1429 0.0000  plane waves:    6293
 k-point   9 :  -0.2857 0.1429 0.0000  plane waves:    6296
 k-point  10 :  -0.1429 0.1429 0.0000  plane waves:    6301
 k-point  11 :   0.2857 0.2857 0.0000  plane waves:    6301
 k-point  12 :   0.4286 0.2857 0.0000  plane waves:    6304
 k-point  13 :  -0.4286 0.2857 0.0000  plane waves:    6301
 k-point  14 :  -0.2857 0.2857 0.0000  plane waves:    6297
 k-point  15 :   0.4286 0.4286 0.0000  plane waves:    6308
 k-point  16 :  -0.4286 0.4286 0.0000  plane waves:    6328
 k-point  17 :   0.0000 0.0000 0.1250  plane waves:    6309
 k-point  18 :   0.1429 0.0000 0.1250  plane waves:    6292
 k-point  19 :   0.2857-0.0000 0.1250  plane waves:    6296
 k-point  20 :   0.4286-0.0000 0.1250  plane waves:    6298
 k-point  21 :  -0.4286 0.0000 0.1250  plane waves:    6286
 k-point  22 :  -0.2857-0.0000 0.1250  plane waves:    6294
 k-point  23 :  -0.1429-0.0000 0.1250  plane waves:    6309
 k-point  24 :   0.1429 0.1429 0.1250  plane waves:    6297
 k-point  25 :   0.2857 0.1429 0.1250  plane waves:    6304
 k-point  26 :   0.4286 0.1429 0.1250  plane waves:    6298
 k-point  27 :  -0.4286 0.1429 0.1250  plane waves:    6295
 k-point  28 :  -0.2857 0.1429 0.1250  plane waves:    6295
 k-point  29 :  -0.1429 0.1429 0.1250  plane waves:    6299
 k-point  30 :   0.2857 0.2857 0.1250  plane waves:    6293
 k-point  31 :   0.4286 0.2857 0.1250  plane waves:    6301
 k-point  32 :  -0.4286 0.2857 0.1250  plane waves:    6298
 k-point  33 :  -0.2857 0.2857 0.1250  plane waves:    6298
 k-point  34 :  -0.1429 0.2857 0.1250  plane waves:    6294
 k-point  35 :   0.4286 0.4286 0.1250  plane waves:    6308
 k-point  36 :  -0.4286 0.4286 0.1250  plane waves:    6322
 k-point  37 :  -0.2857 0.4286 0.1250  plane waves:    6300
 k-point  38 :  -0.1429 0.4286 0.1250  plane waves:    6298
 k-point  39 :  -0.4286-0.4286 0.1250  plane waves:    6309
 k-point  40 :  -0.2857-0.4286 0.1250  plane waves:    6310
 k-point  41 :  -0.1429-0.4286 0.1250  plane waves:    6297
 k-point  42 :  -0.2857-0.2857 0.1250  plane waves:    6282
 k-point  43 :  -0.1429-0.2857 0.1250  plane waves:    6290
 k-point  44 :  -0.1429-0.1429 0.1250  plane waves:    6293
 k-point  45 :   0.0000 0.0000 0.2500  plane waves:    6277
 k-point  46 :   0.1429-0.0000 0.2500  plane waves:    6300
 k-point  47 :   0.2857 0.0000 0.2500  plane waves:    6307
 k-point  48 :   0.4286-0.0000 0.2500  plane waves:    6298
 k-point  49 :  -0.4286-0.0000 0.2500  plane waves:    6293
 k-point  50 :  -0.2857 0.0000 0.2500  plane waves:    6296
 k-point  51 :  -0.1429-0.0000 0.2500  plane waves:    6288
 k-point  52 :   0.1429 0.1429 0.2500  plane waves:    6294
 k-point  53 :   0.2857 0.1429 0.2500  plane waves:    6294
 k-point  54 :   0.4286 0.1429 0.2500  plane waves:    6296
 k-point  55 :  -0.4286 0.1429 0.2500  plane waves:    6294
 k-point  56 :  -0.2857 0.1429 0.2500  plane waves:    6294
 k-point  57 :  -0.1429 0.1429 0.2500  plane waves:    6290
 k-point  58 :   0.2857 0.2857 0.2500  plane waves:    6290
 k-point  59 :   0.4286 0.2857 0.2500  plane waves:    6301
 k-point  60 :  -0.4286 0.2857 0.2500  plane waves:    6307
 k-point  61 :  -0.2857 0.2857 0.2500  plane waves:    6287
 k-point  62 :  -0.1429 0.2857 0.2500  plane waves:    6288
 k-point  63 :   0.4286 0.4286 0.2500  plane waves:    6299
 k-point  64 :  -0.4286 0.4286 0.2500  plane waves:    6293
 k-point  65 :  -0.2857 0.4286 0.2500  plane waves:    6294
 k-point  66 :  -0.1429 0.4286 0.2500  plane waves:    6293
 k-point  67 :  -0.4286-0.4286 0.2500  plane waves:    6299
 k-point  68 :  -0.2857-0.4286 0.2500  plane waves:    6287
 k-point  69 :  -0.1429-0.4286 0.2500  plane waves:    6271
 k-point  70 :  -0.2857-0.2857 0.2500  plane waves:    6312
 k-point  71 :  -0.1429-0.2857 0.2500  plane waves:    6290
 k-point  72 :  -0.1429-0.1429 0.2500  plane waves:    6300
 k-point  73 :  -0.0000-0.0000 0.3750  plane waves:    6316
 k-point  74 :   0.1429 0.0000 0.3750  plane waves:    6315
 k-point  75 :   0.2857-0.0000 0.3750  plane waves:    6304
 k-point  76 :   0.4286-0.0000 0.3750  plane waves:    6297
 k-point  77 :  -0.4286-0.0000 0.3750  plane waves:    6289
 k-point  78 :  -0.2857-0.0000 0.3750  plane waves:    6296
 k-point  79 :  -0.1429 0.0000 0.3750  plane waves:    6296
 k-point  80 :   0.1429 0.1429 0.3750  plane waves:    6307
 k-point  81 :   0.2857 0.1429 0.3750  plane waves:    6294
 k-point  82 :   0.4286 0.1429 0.3750  plane waves:    6292
 k-point  83 :  -0.4286 0.1429 0.3750  plane waves:    6298
 k-point  84 :  -0.2857 0.1429 0.3750  plane waves:    6282
 k-point  85 :  -0.1429 0.1429 0.3750  plane waves:    6316
 k-point  86 :   0.2857 0.2857 0.3750  plane waves:    6306
 k-point  87 :   0.4286 0.2857 0.3750  plane waves:    6303
 k-point  88 :  -0.4286 0.2857 0.3750  plane waves:    6295
 k-point  89 :  -0.2857 0.2857 0.3750  plane waves:    6290
 k-point  90 :  -0.1429 0.2857 0.3750  plane waves:    6309
 k-point  91 :   0.4286 0.4286 0.3750  plane waves:    6309
 k-point  92 :  -0.4286 0.4286 0.3750  plane waves:    6291
 k-point  93 :  -0.2857 0.4286 0.3750  plane waves:    6294
 k-point  94 :  -0.1429 0.4286 0.3750  plane waves:    6295
 k-point  95 :  -0.4286-0.4286 0.3750  plane waves:    6279
 k-point  96 :  -0.2857-0.4286 0.3750  plane waves:    6283
 k-point  97 :  -0.1429-0.4286 0.3750  plane waves:    6290
 k-point  98 :  -0.2857-0.2857 0.3750  plane waves:    6297
 k-point  99 :  -0.1429-0.2857 0.3750  plane waves:    6292
 k-point 100 :  -0.1429-0.1429 0.3750  plane waves:    6306
 k-point 101 :   0.0000 0.0000 0.5000  plane waves:    6334
 k-point 102 :   0.1429-0.0000 0.5000  plane waves:    6310
 k-point 103 :   0.2857-0.0000 0.5000  plane waves:    6303
 k-point 104 :   0.4286-0.0000 0.5000  plane waves:    6288
 k-point 105 :   0.1429 0.1429 0.5000  plane waves:    6294
 k-point 106 :   0.2857 0.1429 0.5000  plane waves:    6309
 k-point 107 :   0.4286 0.1429 0.5000  plane waves:    6297
 k-point 108 :  -0.4286 0.1429 0.5000  plane waves:    6291
 k-point 109 :  -0.2857 0.1429 0.5000  plane waves:    6301
 k-point 110 :  -0.1429 0.1429 0.5000  plane waves:    6336
 k-point 111 :   0.2857 0.2857 0.5000  plane waves:    6277
 k-point 112 :   0.4286 0.2857 0.5000  plane waves:    6297
 k-point 113 :  -0.4286 0.2857 0.5000  plane waves:    6301
 k-point 114 :  -0.2857 0.2857 0.5000  plane waves:    6294
 k-point 115 :   0.4286 0.4286 0.5000  plane waves:    6279
 k-point 116 :  -0.4286 0.4286 0.5000  plane waves:    6286

 maximum and minimum number of plane-waves per node :      3189     3115

 maximum number of plane-waves:      6336
 maximum index in each direction: 
   IXMAX=   13   IYMAX=   13   IZMAX=   12
   IXMIN=  -13   IYMIN=  -13   IZMIN=  -13


 parallel 3D FFT for wavefunctions:
    minimum data exchange during FFTs selected (reduces bandwidth)
 parallel 3D FFT for charge:
    minimum data exchange during FFTs selected (reduces bandwidth)


 total amount of memory used by VASP MPI-rank0   403406. kBytes
=======================================================================

   base      :      30000. kBytes
   nonl-proj :     160468. kBytes
   fftplans  :      17766. kBytes
   grid      :      13358. kBytes
   one-center:         77. kBytes
   wavefun   :     181737. kBytes
 
     INWAV:  cpu time    0.0001: real time    0.0001
 Broyden mixing: mesh for mixing (old mesh)
   NGX = 25   NGY = 25   NGZ = 25
  (NGX  =108   NGY  =108   NGZ  =108)
  gives a total of  15625 points

 initial charge density was supplied:
 charge density of overlapping atoms calculated
 number of electron      98.0000000 magnetization 
 keeping initial charge density in first step


--------------------------------------------------------------------------------------------------------


 Maximum index for augmentation-charges        23725 (set IRDMAX)


--------------------------------------------------------------------------------------------------------


 First call to EWALD:  gamma=   0.309
 Maximum number of real-space cells 3x 3x 3
 Maximum number of reciprocal cells 3x 3x 3

    FEWALD:  cpu time    0.0025: real time    0.0025


--------------------------------------- Iteration      1(   1)  ---------------------------------------


    POTLOK:  cpu time    0.2119: real time    0.2141
    SETDIJ:  cpu time    0.6329: real time    0.6375
    TRIAL :  cpu time   29.6561: real time   29.9498
    CORREC:  cpu time    0.0018: real time    0.0018
    --------------------------------------------
      LOOP:  cpu time   30.5863: real time   30.9029

 eigenvalue-minimisations  : 14652
 total energy-change (2. order) : 0.9958818E+03  (-0.6492046E+04)
 number of electron      98.0000000 magnetization 
 augmentation part       98.0000000 magnetization 

 Free energy of the ion-electron system (eV)
  ---------------------------------------------------
  alpha Z        PSCENC =       442.72742974
  Ewald energy   TEWEN  =     -8184.62693863
  -Hartree energ DENC   =     -3032.65849754
  -exchange      EXHF   =         0.00000000
  -V(xc)+E(xc)   XCENC  =       460.17119863
  PAW double counting   =      9166.97638771    -9126.13493418
  entropy T*S    EENTRO =        -0.00075737
  eigenvalues    EBANDS =      -252.73954016
  atomic energy  EATOM  =     11522.16744521
  ---------------------------------------------------
  free energy    TOTEN  =       995.88179342 eV

  energy without entropy =      995.88255079  energy(sigma->0) =      995.88217210


--------------------------------------------------------------------------------------------------------




--------------------------------------- Iteration      1(   2)  ---------------------------------------


    TRIAL :  cpu time   33.3621: real time   34.0407
    CORREC:  cpu time    0.0019: real time    0.0019
    --------------------------------------------
      LOOP:  cpu time   33.3669: real time   34.0464

 eigenvalue-minimisations  : 15396
 total energy-change (2. order) :-0.1170355E+04  (-0.1139748E+04)
 number of electron      98.0000000 magnetization 
 augmentation part       98.0000000 magnetization 

 Free energy of the ion-electron system (eV)
  ---------------------------------------------------
  alpha Z        PSCENC =       442.72742974
  Ewald energy   TEWEN  =     -8184.62693863
  -Hartree energ DENC   =     -3032.65849754
  -exchange      EXHF   =         0.00000000
  -V(xc)+E(xc)   XCENC  =       460.17119863
  PAW double counting   =      9166.97638771    -9126.13493418
  entropy T*S    EENTRO =        -0.00154722
  eigenvalues    EBANDS =     -1423.09380276
  atomic energy  EATOM  =     11522.16744521
  ---------------------------------------------------
  free energy    TOTEN  =      -174.47325903 eV

  energy without entropy =     -174.47171181  energy(sigma->0) =     -174.47248542


--------------------------------------------------------------------------------------------------------




--------------------------------------- Iteration      1(   3)  ---------------------------------------


    TRIAL :  cpu time   38.8365: real time   39.6682
    CORREC:  cpu time    0.0019: real time    0.0019
    --------------------------------------------
      LOOP:  cpu time   38.8409: real time   39.6730

 eigenvalue-minimisations  : 18396
 total energy-change (2. order) :-0.4862956E+02  (-0.4646982E+02)
 number of electron      98.0000000 magnetization 
 augmentation part       98.0000000 magnetization 

 Free energy of the ion-electron system (eV)
  ---------------------------------------------------
  alpha Z        PSCENC =       442.72742974
  Ewald energy   TEWEN  =     -8184.62693863
  -Hartree energ DENC   =     -3032.65849754
  -exchange      EXHF   =         0.00000000
  -V(xc)+E(xc)   XCENC  =       460.17119863
  PAW double counting   =      9166.97638771    -9126.13493418
  entropy T*S    EENTRO =        -0.00277142
  eigenvalues    EBANDS =     -1471.72213594
  atomic energy  EATOM  =     11522.16744521
  ---------------------------------------------------
  free energy    TOTEN  =      -223.10281641 eV

  energy without entropy =     -223.10004499  energy(sigma->0) =     -223.10143070


--------------------------------------------------------------------------------------------------------




--------------------------------------- Iteration      1(   4)  ---------------------------------------


    TRIAL :  cpu time   36.7601: real time   37.5652
    CORREC:  cpu time    0.0019: real time    0.0019
    --------------------------------------------
      LOOP:  cpu time   36.7635: real time   37.5698

 eigenvalue-minimisations  : 17676
 total energy-change (2. order) :-0.1385638E+01  (-0.1345444E+01)
 number of electron      98.0000000 magnetization 
 augmentation part       98.0000000 magnetization 

 Free energy of the ion-electron system (eV)
  ---------------------------------------------------
  alpha Z        PSCENC =       442.72742974
  Ewald energy   TEWEN  =     -8184.62693863
  -Hartree energ DENC   =     -3032.65849754
  -exchange      EXHF   =         0.00000000
  -V(xc)+E(xc)   XCENC  =       460.17119863
  PAW double counting   =      9166.97638771    -9126.13493418
  entropy T*S    EENTRO =        -0.00297540
  eigenvalues    EBANDS =     -1473.10757022
  atomic energy  EATOM  =     11522.16744521
  ---------------------------------------------------
  free energy    TOTEN  =      -224.48845467 eV

  energy without entropy =     -224.48547927  energy(sigma->0) =     -224.48696697


--------------------------------------------------------------------------------------------------------




--------------------------------------- Iteration      1(   5)  ---------------------------------------


    TRIAL :  cpu time   36.8319: real time   37.6062
    CORREC:  cpu time    0.0017: real time    0.0017
    CHARGE:  cpu time    2.5214: real time    2.5406
    --------------------------------------------
      LOOP:  cpu time   39.3564: real time   40.1514

 eigenvalue-minimisations  : 17892
 total energy-change (2. order) :-0.4042105E-01  (-0.4015786E-01)
 number of electron      98.0000001 magnetization 
 augmentation part       12.0640941 magnetization 

 Free energy of the ion-electron system (eV)
  ---------------------------------------------------
  alpha Z        PSCENC =       442.72742974
  Ewald energy   TEWEN  =     -8184.62693863
  -Hartree energ DENC   =     -3032.65849754
  -exchange      EXHF   =         0.00000000
  -V(xc)+E(xc)   XCENC  =       460.17119863
  PAW double counting   =      9166.97638771    -9126.13493418
  entropy T*S    EENTRO =        -0.00294805
  eigenvalues    EBANDS =     -1473.14801861
  atomic energy  EATOM  =     11522.16744521
  ---------------------------------------------------
  free energy    TOTEN  =      -224.52887571 eV

  energy without entropy =     -224.52592766  energy(sigma->0) =     -224.52740169


--------------------------------------------------------------------------------------------------------




--------------------------------------- Iteration      1(   6)  ---------------------------------------


    POTLOK:  cpu time    0.1730: real time    0.1741
    SETDIJ:  cpu time    0.6605: real time    0.6649
    TRIAL :  cpu time   25.6200: real time   25.9546
    CORREC:  cpu time    8.2328: real time    8.3110
    CHARGE:  cpu time    2.4396: real time    2.4580
    --------------------------------------------
      LOOP:  cpu time   37.1274: real time   37.5647

 eigenvalue-minimisations  :     0
 total energy-change (2. order) : 0.7162884E+02  (-0.1910323E+02)
 number of electron      98.0000001 magnetization 
 augmentation part       14.2322258 magnetization 

 Free energy of the ion-electron system (eV)
  ---------------------------------------------------
  alpha Z        PSCENC =       442.72742974
  Ewald energy   TEWEN  =     -8184.62693863
  -Hartree energ DENC   =     -2609.11576373
  -exchange      EXHF   =         0.00000000
  -V(xc)+E(xc)   XCENC  =       453.29108308
  PAW double counting   =     11774.68190544   -11776.40880117
  entropy T*S    EENTRO =        -0.00248765
  eigenvalues    EBANDS =     -1775.61344269
  atomic energy  EATOM  =     11522.16744521
  ---------------------------------------------------
  free energy    TOTEN  =      -152.90003080 eV

  energy without entropy =     -152.89754315  energy(sigma->0) =     -152.89878697


--------------------------------------------------------------------------------------------------------




--------------------------------------- Iteration      1(   7)  ---------------------------------------


    POTLOK:  cpu time    0.1498: real time    0.1510
    SETDIJ:  cpu time    0.6249: real time    0.6293
    TRIAL :  cpu time   31.3121: real time   31.6327
    CORREC:  cpu time    9.4325: real time    9.5256
    CHARGE:  cpu time    3.2361: real time    3.2590
    --------------------------------------------
      LOOP:  cpu time   44.7563: real time   45.1997

 eigenvalue-minimisations  :     0
 total energy-change (2. order) :-0.1924997E+02  (-0.4474592E+01)
 number of electron      98.0000001 magnetization 
 augmentation part       14.2972719 magnetization 

 Free energy of the ion-electron system (eV)
  ---------------------------------------------------
  alpha Z        PSCENC =       442.72742974
  Ewald energy   TEWEN  =     -8184.62693863
  -Hartree energ DENC   =     -2834.61508762
  -exchange      EXHF   =         0.00000000
  -V(xc)+E(xc)   XCENC  =       464.19301149
  PAW double counting   =     11387.57630627   -11374.45268999
  entropy T*S    EENTRO =        -0.00314759
  eigenvalues    EBANDS =     -1595.11699322
  atomic energy  EATOM  =     11522.16744521
  ---------------------------------------------------
  free energy    TOTEN  =      -172.15000439 eV

  energy without entropy =     -172.14685680  energy(sigma->0) =     -172.14843060


--------------------------------------------------------------------------------------------------------




--------------------------------------- Iteration      1(   8)  ---------------------------------------


    POTLOK:  cpu time    0.1480: real time    0.1490
    SETDIJ:  cpu time    0.6366: real time    0.6408
    TRIAL :  cpu time   29.9271: real time   30.2364
    CORREC:  cpu time   10.7732: real time   10.9770
    CHARGE:  cpu time    3.0375: real time    3.0587
    --------------------------------------------
      LOOP:  cpu time   44.5228: real time   45.0635

 eigenvalue-minimisations  :     0
 total energy-change (2. order) :-0.4434341E+01  (-0.1172796E+01)
 number of electron      98.0000001 magnetization 
 augmentation part       14.2383742 magnetization 

 Free energy of the ion-electron system (eV)
  ---------------------------------------------------
  alpha Z        PSCENC =       442.72742974
  Ewald energy   TEWEN  =     -8184.62693863
  -Hartree energ DENC   =     -2876.90846820
  -exchange      EXHF   =         0.00000000
  -V(xc)+E(xc)   XCENC  =       466.53042199
  PAW double counting   =     11265.30181940   -11247.59916772
  entropy T*S    EENTRO =        -0.00316801
  eigenvalues    EBANDS =     -1564.17373952
  atomic energy  EATOM  =     11522.16744521
  ---------------------------------------------------
  free energy    TOTEN  =      -176.58434531 eV

  energy without entropy =     -176.58117730  energy(sigma->0) =     -176.58276131


--------------------------------------------------------------------------------------------------------




--------------------------------------- Iteration      1(   9)  ---------------------------------------


    POTLOK:  cpu time    0.4999: real time    0.5029
    SETDIJ:  cpu time    0.2322: real time    0.2338
    TRIAL :  cpu time   31.8792: real time   32.3142
    CORREC:  cpu time    9.6965: real time    9.7804
    CHARGE:  cpu time    3.3273: real time    3.3501
    --------------------------------------------
      LOOP:  cpu time   45.6355: real time   46.1832

 eigenvalue-minimisations  :     0
 total energy-change (2. order) :-0.1175265E+01  (-0.4454489E+00)
 number of electron      98.0000001 magnetization 
 augmentation part       14.1908687 magnetization 

 Free energy of the ion-electron system (eV)
  ---------------------------------------------------
  alpha Z        PSCENC =       442.72742974
  Ewald energy   TEWEN  =     -8184.62693863
  -Hartree energ DENC   =     -2879.74297098
  -exchange      EXHF   =         0.00000000
  -V(xc)+E(xc)   XCENC  =       466.84364330
  PAW double counting   =     11248.17533572   -11227.90519955
  entropy T*S    EENTRO =        -0.00285567
  eigenvalues    EBANDS =     -1565.39518673
  atomic energy  EATOM  =     11522.16744521
  ---------------------------------------------------
  free energy    TOTEN  =      -177.75960994 eV

  energy without entropy =     -177.75675427  energy(sigma->0) =     -177.75818210


--------------------------------------------------------------------------------------------------------




--------------------------------------- Iteration      1(  10)  ---------------------------------------


    POTLOK:  cpu time    0.1500: real time    0.1510
    SETDIJ:  cpu time    1.3956: real time    1.4035
    TRIAL :  cpu time   32.2914: real time   32.9837
    CORREC:  cpu time    9.9874: real time   10.0717
    CHARGE:  cpu time    2.3000: real time    2.3179
    --------------------------------------------
      LOOP:  cpu time   46.1257: real time   46.9300

 eigenvalue-minimisations  :     0
 total energy-change (2. order) :-0.4454005E+00  (-0.2115902E+00)
 number of electron      98.0000001 magnetization 
 augmentation part       14.1933066 magnetization 

 Free energy of the ion-electron system (eV)
  ---------------------------------------------------
  alpha Z        PSCENC =       442.72742974
  Ewald energy   TEWEN  =     -8184.62693863
  -Hartree energ DENC   =     -2882.94617679
  -exchange      EXHF   =         0.00000000
  -V(xc)+E(xc)   XCENC  =       467.04633148
  PAW double counting   =     11261.84705366   -11239.97986267
  entropy T*S    EENTRO =        -0.00267158
  eigenvalues    EBANDS =     -1564.43743675
  atomic energy  EATOM  =     11522.16744521
  ---------------------------------------------------
  free energy    TOTEN  =      -178.20501042 eV

  energy without entropy =     -178.20233884  energy(sigma->0) =     -178.20367463


--------------------------------------------------------------------------------------------------------




--------------------------------------- Iteration      1(  11)  ---------------------------------------


    POTLOK:  cpu time    0.1460: real time    0.1472
    SETDIJ:  cpu time    0.6280: real time    0.6319
    TRIAL :  cpu time   30.7547: real time   31.1803
    CORREC:  cpu time    9.8984: real time    9.9818
    CHARGE:  cpu time    3.8872: real time    3.9133
    --------------------------------------------
      LOOP:  cpu time   45.3158: real time   45.8561

 eigenvalue-minimisations  :     0
[...]
     10     -29.6253      2.00000
     11     -29.6150      2.00000
     12     -29.6123      2.00000
     13     -29.5847      2.00000
     14     -29.5653      2.00000
     15     -29.5569      2.00000
     16     -29.5075      2.00000
     17     -29.4241      2.00000
     18     -29.3620      2.00000
     19     -29.3149      2.00000
     20     -29.3005      2.00000
     21     -29.2403      2.00000
     22     -29.2330      2.00000
     23     -29.2155      2.00000
     24     -29.2133      2.00000
     25      -2.1700      2.00000
     26      -1.6900      2.00000
     27      -1.1852      2.00000
     28      -0.5906      2.00000
     29       2.1298      2.00000
     30       2.4628      2.00000
     31       2.6870      2.00000
     32       2.7582      2.00000
     33       3.3336      2.00000
     34       3.7255      2.00000
     35       3.8121      2.00000
     36       3.8930      2.00000
     37       4.0753      2.00000
     38       4.1343      2.00000
     39       4.2513      2.00000
     40       4.3269      2.00000
     41       4.8331      2.00000
     42       5.2268      2.00000
     43       5.3705      2.00000
     44       5.4127      2.00000
     45       5.6394      2.00000
     46       5.7731      2.00000
     47       6.2182      2.00000
     48       6.4036      2.00000
     49       6.9672      0.00162
     50       6.9924      0.00000
     51       7.2493      0.00000
     52       7.3490      0.00000
     53       7.4212      0.00000
     54       7.6058      0.00000
     55       7.6316      0.00000
     56       7.6960      0.00000
     57       7.9369      0.00000
     58       8.7219      0.00000
     59       8.7484      0.00000
     60       8.9356      0.00000

 k-point   110 :      -0.1429    0.1429    0.5000
  band No.  band energies     occupation 
      1     -56.2600      2.00000
      2     -56.2590      2.00000
      3     -56.0072      2.00000
      4     -56.0012      2.00000
      5     -55.9996      2.00000
      6     -55.9947      2.00000
      7     -29.6527      2.00000
      8     -29.6452      2.00000
      9     -29.6416      2.00000
     10     -29.6226      2.00000
     11     -29.6102      2.00000
     12     -29.6074      2.00000
     13     -29.5838      2.00000
     14     -29.5780      2.00000
     15     -29.5550      2.00000
     16     -29.5268      2.00000
     17     -29.4142      2.00000
     18     -29.3769      2.00000
     19     -29.3138      2.00000
     20     -29.2998      2.00000
     21     -29.2434      2.00000
     22     -29.2361      2.00000
     23     -29.2099      2.00000
     24     -29.2084      2.00000
     25      -1.8886      2.00000
     26      -1.6781      2.00000
     27      -1.5285      2.00000
     28      -0.4477      2.00000
     29       2.2701      2.00000
     30       2.3345      2.00000
     31       2.4989      2.00000
     32       2.9023      2.00000
     33       3.2978      2.00000
     34       3.5138      2.00000
     35       3.6612      2.00000
     36       3.8802      2.00000
     37       4.0300      2.00000
     38       4.2897      2.00000
     39       4.2990      2.00000
     40       4.4425      2.00000
     41       4.6025      2.00000
     42       5.2037      2.00000
     43       5.2411      2.00000
     44       5.4528      2.00000
     45       5.6516      2.00000
     46       5.8411      2.00000
     47       6.1514      2.00000
     48       6.2264      2.00000
     49       6.8496      2.00000
     50       6.9748      0.00023
     51       7.0867      0.00000
     52       7.3345      0.00000
     53       7.4082      0.00000
     54       7.6528      0.00000
     55       7.7260      0.00000
     56       7.8148      0.00000
     57       8.3156      0.00000
     58       8.9825      0.00000
     59       9.1538      0.00000
     60       9.2231      0.00000

 k-point   111 :       0.2857    0.2857    0.5000
  band No.  band energies     occupation 
      1     -56.2599      2.00000
      2     -56.2592      2.00000
      3     -56.0114      2.00000
      4     -56.0009      2.00000
      5     -56.0004      2.00000
      6     -55.9898      2.00000
      7     -29.6827      2.00000
      8     -29.6569      2.00000
      9     -29.6543      2.00000
     10     -29.6477      2.00000
     11     -29.6266      2.00000
     12     -29.5995      2.00000
     13     -29.5847      2.00000
     14     -29.5782      2.00000
     15     -29.5614      2.00000
     16     -29.4877      2.00000
     17     -29.3852      2.00000
     18     -29.3446      2.00000
     19     -29.3380      2.00000
     20     -29.2908      2.00000
     21     -29.2250      2.00000
     22     -29.2227      2.00000
     23     -29.2182      2.00000
     24     -29.2177      2.00000
     25      -2.6612      2.00000
     26      -1.1532      2.00000
     27      -0.9324      2.00000
     28      -0.9317      2.00000
     29       1.7964      2.00000
     30       2.0598      2.00000
     31       3.3515      2.00000
     32       3.4206      2.00000
     33       3.4648      2.00000
     34       3.4674      2.00000
     35       3.5778      2.00000
     36       3.6383      2.00000
     37       3.7370      2.00000
     38       4.1274      2.00000
     39       4.1496      2.00000
     40       4.6587      2.00000
     41       5.0813      2.00000
     42       5.1068      2.00000
     43       5.3570      2.00000
     44       5.6082      2.00000
     45       6.0077      2.00000
     46       6.0708      2.00000
     47       6.4339      2.00000
     48       6.4997      2.00000
     49       6.5275      2.00000
     50       6.8917      1.97163
     51       7.2435      0.00000
     52       7.4396      0.00000
     53       7.4429      0.00000
     54       7.5461      0.00000
     55       7.5577      0.00000
     56       7.9965      0.00000
     57       8.0260      0.00000
     58       8.4761      0.00000
     59       8.8725      0.00000
     60       8.9959      0.00000

 k-point   112 :       0.4286    0.2857    0.5000
  band No.  band energies     occupation 
      1     -56.2595      2.00000
      2     -56.2592      2.00000
      3     -56.0132      2.00000
      4     -56.0020      2.00000
      5     -55.9994      2.00000
      6     -55.9884      2.00000
      7     -29.6957      2.00000
      8     -29.6498      2.00000
      9     -29.6373      2.00000
     10     -29.6349      2.00000
     11     -29.6219      2.00000
     12     -29.5957      2.00000
     13     -29.5829      2.00000
     14     -29.5798      2.00000
     15     -29.5529      2.00000
     16     -29.4769      2.00000
     17     -29.4194      2.00000
     18     -29.3476      2.00000
     19     -29.3361      2.00000
     20     -29.2817      2.00000
     21     -29.2389      2.00000
     22     -29.2284      2.00000
     23     -29.2241      2.00000
     24     -29.2198      2.00000
     25      -2.7189      2.00000
     26      -1.0784      2.00000
     27      -1.0144      2.00000
     28      -0.6181      2.00000
     29       1.5215      2.00000
     30       1.9249      2.00000
     31       2.9793      2.00000
     32       3.4475      2.00000
     33       3.4729      2.00000
     34       3.5497      2.00000
     35       3.5876      2.00000
     36       3.8009      2.00000
     37       3.9205      2.00000
     38       4.0719      2.00000
     39       4.1119      2.00000
     40       5.0441      2.00000
     41       5.1030      2.00000
     42       5.3711      2.00000
     43       5.4965      2.00000
     44       5.7019      2.00000
     45       5.7677      2.00000
     46       5.9926      2.00000
     47       6.3839      2.00000
     48       6.6921      2.00000
     49       6.7699      2.00000
     50       7.0234      0.00000
     51       7.1667      0.00000
     52       7.2324      0.00000
     53       7.3007      0.00000
     54       7.5114      0.00000
     55       7.5198      0.00000
     56       7.7570      0.00000
     57       7.8529      0.00000
     58       8.4025      0.00000
     59       8.4835      0.00000
     60       8.8243      0.00000

 k-point   113 :      -0.4286    0.2857    0.5000
  band No.  band energies     occupation 
      1     -56.2592      2.00000
      2     -56.2592      2.00000
      3     -56.0135      2.00000
      4     -56.0020      2.00000
      5     -55.9994      2.00000
      6     -55.9884      2.00000
      7     -29.6958      2.00000
      8     -29.6359      2.00000
      9     -29.6280      2.00000
     10     -29.6219      2.00000
     11     -29.6173      2.00000
     12     -29.6062      2.00000
     13     -29.5887      2.00000
     14     -29.5550      2.00000
     15     -29.5497      2.00000
     16     -29.4768      2.00000
     17     -29.4538      2.00000
     18     -29.3492      2.00000
     19     -29.3369      2.00000
     20     -29.2808      2.00000
     21     -29.2492      2.00000
     22     -29.2330      2.00000
     23     -29.2277      2.00000
     24     -29.2200      2.00000
     25      -2.6454      2.00000
     26      -1.1856      2.00000
     27      -0.8287      2.00000
     28      -0.6747      2.00000
     29       1.5480      2.00000
     30       1.9507      2.00000
     31       2.5911      2.00000
     32       3.4866      2.00000
     33       3.5329      2.00000
     34       3.5630      2.00000
     35       3.5674      2.00000
     36       3.9536      2.00000
     37       3.9799      2.00000
     38       4.1245      2.00000
     39       4.1464      2.00000
     40       5.1154      2.00000
     41       5.1476      2.00000
     42       5.3758      2.00000
     43       5.3906      2.00000
     44       5.6772      2.00000
     45       5.7729      2.00000
     46       5.7975      2.00000
     47       6.2148      2.00000
     48       6.7414      2.00000
     49       6.9275      0.73391
     50       7.0953      0.00000
     51       7.1197      0.00000
     52       7.2972      0.00000
     53       7.3412      0.00000
     54       7.5080      0.00000
     55       7.5106      0.00000
     56       7.6531      0.00000
     57       7.7089      0.00000
     58       8.1173      0.00000
     59       8.3354      0.00000
     60       8.8768      0.00000

 k-point   114 :      -0.2857    0.2857    0.5000
  band No.  band energies     occupation 
      1     -56.2594      2.00000
      2     -56.2590      2.00000
      3     -56.0122      2.00000
      4     -56.0010      2.00000
      5     -56.0003      2.00000
      6     -55.9898      2.00000
      7     -29.6833      2.00000
      8     -29.6356      2.00000
      9     -29.6260      2.00000
     10     -29.6177      2.00000
     11     -29.6123      2.00000
     12     -29.6103      2.00000
     13     -29.5992      2.00000
     14     -29.5555      2.00000
     15     -29.5424      2.00000
     16     -29.4874      2.00000
     17     -29.4583      2.00000
     18     -29.3611      2.00000
     19     -29.3228      2.00000
     20     -29.2881      2.00000
     21     -29.2502      2.00000
     22     -29.2360      2.00000
     23     -29.2229      2.00000
     24     -29.2173      2.00000
     25      -2.4567      2.00000
     26      -1.3114      2.00000
     27      -1.0201      2.00000
     28      -0.6619      2.00000
     29       1.8171      2.00000
     30       2.2072      2.00000
     31       2.3967      2.00000
     32       3.1805      2.00000
     33       3.4760      2.00000
     34       3.6550      2.00000
     35       3.7495      2.00000
     36       3.8704      2.00000
     37       4.0915      2.00000
     38       4.2031      2.00000
     39       4.2586      2.00000
     40       4.7746      2.00000
     41       5.0607      2.00000
     42       5.1296      2.00000
     43       5.2911      2.00000
     44       5.6262      2.00000
     45       5.7446      2.00000
     46       5.8073      2.00000
     47       6.0762      2.00000
     48       6.5420      2.00000
     49       6.9149      1.41856
     50       7.0906      0.00000
     51       7.1473      0.00000
     52       7.4278      0.00000
     53       7.5003      0.00000
     54       7.5487      0.00000
     55       7.6144      0.00000
     56       7.6182      0.00000
     57       7.6504      0.00000
     58       8.2550      0.00000
     59       8.5514      0.00000
     60       8.8589      0.00000

 k-point   115 :       0.4286    0.4286    0.5000
  band No.  band energies     occupation 
      1     -56.2592      2.00000
      2     -56.2589      2.00000
      3     -56.0149      2.00000
      4     -56.0008      2.00000
      5     -56.0007      2.00000
      6     -55.9871      2.00000
      7     -29.7071      2.00000
      8     -29.6275      2.00000
      9     -29.6252      2.00000
     10     -29.6189      2.00000
     11     -29.6149      2.00000
     12     -29.5990      2.00000
     13     -29.5973      2.00000
     14     -29.5606      2.00000
     15     -29.5381      2.00000
     16     -29.4658      2.00000
     17     -29.4626      2.00000
     18     -29.3479      2.00000
     19     -29.3436      2.00000
     20     -29.2739      2.00000
     21     -29.2549      2.00000
     22     -29.2342      2.00000
     23     -29.2325      2.00000
     24     -29.2220      2.00000
     25      -2.8177      2.00000
     26      -0.9358      2.00000
     27      -0.8578      2.00000
     28      -0.3460      2.00000
     29       1.3113      2.00000
     30       1.3990      2.00000
     31       2.6490      2.00000
     32       3.3961      2.00000
     33       3.4067      2.00000
     34       3.7365      2.00000
     35       3.8192      2.00000
     36       3.8795      2.00000
     37       4.0072      2.00000
     38       4.0868      2.00000
     39       4.1403      2.00000
     40       5.0623      2.00000
     41       5.0855      2.00000
     42       5.6964      2.00000
     43       5.7098      2.00000
     44       5.8364      2.00000
     45       6.0706      2.00000
     46       6.0736      2.00000
     47       6.1435      2.00000
     48       6.6972      2.00000
     49       6.9256      0.83580
     50       7.0128      0.00000
     51       7.0758      0.00000
     52       7.2214      0.00000
     53       7.2249      0.00000
     54       7.2982      0.00000
     55       7.6028      0.00000
     56       7.8136      0.00000
     57       7.8351      0.00000
     58       7.8530      0.00000
     59       8.0589      0.00000
     60       8.9922      0.00000

 k-point   116 :      -0.4286    0.4286    0.5000
  band No.  band energies     occupation 
      1     -56.2591      2.00000
      2     -56.2589      2.00000
      3     -56.0151      2.00000
      4     -56.0008      2.00000
      5     -56.0008      2.00000
      6     -55.9870      2.00000
      7     -29.7071      2.00000
      8     -29.6166      2.00000
      9     -29.6129      2.00000
     10     -29.6126      2.00000
     11     -29.6125      2.00000
     12     -29.6103      2.00000
     13     -29.6102      2.00000
     14     -29.5353      2.00000
     15     -29.5316      2.00000
     16     -29.4925      2.00000
     17     -29.4658      2.00000
     18     -29.3497      2.00000
     19     -29.3447      2.00000
     20     -29.2738      2.00000
     21     -29.2589      2.00000
     22     -29.2359      2.00000
     23     -29.2342      2.00000
     24     -29.2222      2.00000
     25      -2.7915      2.00000
     26      -0.9028      2.00000
     27      -0.8610      2.00000
     28      -0.3594      2.00000
     29       1.3194      2.00000
     30       1.4084      2.00000
     31       2.5003      2.00000
     32       3.4289      2.00000
     33       3.4421      2.00000
     34       3.7340      2.00000
     35       3.8021      2.00000
     36       3.9447      2.00000
     37       4.0075      2.00000
     38       4.1104      2.00000
     39       4.1633      2.00000
     40       5.0605      2.00000
     41       5.0898      2.00000
     42       5.6617      2.00000
     43       5.7998      2.00000
     44       5.8257      2.00000
     45       5.9965      2.00000
     46       6.0153      2.00000
     47       6.0622      2.00000
     48       6.7920      2.00000
     49       6.9247      0.88661
     50       6.9622      0.00525
     51       7.1726      0.00000
     52       7.1790      0.00000
     53       7.2830      0.00000
     54       7.3026      0.00000
     55       7.6078      0.00000
     56       7.7312      0.00000
     57       7.7635      0.00000
     58       7.8030      0.00000
     59       8.0020      0.00000
     60       8.9784      0.00000


--------------------------------------------------------------------------------------------------------


 soft charge-density along one line, spin component           1
         0         1         2         3         4         5         6         7         8         9
 total charge-density along one line
 
 pseudopotential strength for first ion, spin component:           1
  6.066   9.199   0.000  -0.000   0.000   0.000  -0.000   0.000
  9.199  13.940   0.000  -0.000   0.000   0.000  -0.000   0.000
  0.000   0.000  -2.015   0.005  -0.003  -3.375   0.009  -0.005
 -0.000  -0.000   0.005  -2.016   0.003   0.009  -3.377   0.006
  0.000   0.000  -0.003   0.003  -2.013  -0.005   0.006  -3.371
  0.000   0.000  -3.375   0.009  -0.005  -5.443   0.016  -0.010
 -0.000  -0.000   0.009  -3.377   0.006   0.016  -5.447   0.011
  0.000   0.000  -0.005   0.006  -3.371  -0.010   0.011  -5.435
 total augmentation occupancy for first ion, spin component:           1
  3.507  -0.844  -0.000   0.000   0.000   0.000  -0.000   0.000
 -0.844   0.212  -0.000   0.000   0.000   0.000   0.000   0.000
  0.000   0.000   2.502  -0.151   0.091  -0.640   0.031  -0.018
 -0.000  -0.000  -0.151   2.541  -0.103   0.031  -0.648   0.021
 -0.000   0.000   0.091  -0.103   2.432  -0.018   0.021  -0.626
  0.000   0.000  -0.640   0.031  -0.018   0.168  -0.007   0.004
  0.000   0.000   0.031  -0.648   0.021  -0.007   0.170  -0.005
 -0.000  -0.000  -0.018   0.021  -0.626   0.004  -0.005   0.164


------------------------ aborting loop because EDIFF is reached ----------------------------------------




--------------------------------------------------------------------------------------------------------



  FREE ENERGIE OF THE ION-ELECTRON SYSTEM (eV)
  ---------------------------------------------------
  free  energy   TOTEN  =      -178.62255731 eV

  energy  without entropy=     -178.62023717  energy(sigma->0) =     -178.62139724
 


--------------------------------------------------------------------------------------------------------


    POTLOK:  cpu time    0.8409: real time    0.8470


--------------------------------------------------------------------------------------------------------


 writing wavefunctions
     LOOP+:  cpu time 1990.2684: real time 2017.7126
    4ORBIT:  cpu time    0.0000: real time    0.0000

 total amount of memory used by VASP MPI-rank0   403406. kBytes
=======================================================================

   base      :      30000. kBytes
   nonl-proj :     160468. kBytes
   fftplans  :      17766. kBytes
   grid      :      13358. kBytes
   one-center:         77. kBytes
   wavefun   :     181737. kBytes
 
  
  
 General timing and accounting informations for this job:
 ========================================================
  
                  Total CPU time used (sec):     1996.863
                            User time (sec):     1929.752
                          System time (sec):       67.111
                         Elapsed time (sec):     2026.017
  
                   Maximum memory used (kb):      593632.
                   Average memory used (kb):          N/A
  
                          Minor page faults:      7902822
                          Major page faults:           24
                 Voluntary context switches:        13729
