 vasp.6.2.0 18Jan21 (build Jan 05 2022 15:41:44) complex                        
  
 executed on             LinuxIFC date 2025.05.07  17:28:04
 running on   24 total cores
 distrk:  each k-point on   12 cores,    2 groups
 distr:  one band on NCORE=   2 cores,    6 groups


--------------------------------------------------------------------------------------------------------


 INCAR:
   SYSTEM = routine with relax: pwdword
   ICHARG = 2
   NPAR = 6
   KPAR = 2
   NCORE = 2
   ADDGRID = T
   PREC = Acc
   ENCUT = 600
   METAGGA = R2SCAN
   LASPH = .TRUE.
   LMIXTAU = .FALSE.
   ALGO = A
   EDIFF = 1E-9
   NELM = 100
   NELMIN = 6
   IALGO = 38
   LREAL = F
   NSW = 0
   ISIF = -1
   ISMEAR = 0
   SIGMA = 0.02

 POTCAR:    PAW_PBE B 06Sep2000                   
 POTCAR:    PAW_PBE Mo_sv 02Feb2006               
 POTCAR:    PAW_PBE Si 05Jan2001                  
 -----------------------------------------------------------------------------
|                                                                             |
|           W    W    AA    RRRRR   N    N  II  N    N   GGGG   !!!           |
|           W    W   A  A   R    R  NN   N  II  NN   N  G    G  !!!           |
|           W    W  A    A  R    R  N N  N  II  N N  N  G       !!!           |
|           W WW W  AAAAAA  RRRRR   N  N N  II  N  N N  G  GGG   !            |
|           WW  WW  A    A  R   R   N   NN  II  N   NN  G    G                |
|           W    W  A    A  R    R  N    N  II  N    N   GGGG   !!!           |
|                                                                             |
|     For optimal performance we recommend to set                             |
|       NCORE = 2 up to number-of-cores-per-socket                            |
|     NCORE specifies how many cores store one orbital (NPAR=cpu/NCORE).      |
|     This setting can greatly improve the performance of VASP for DFT.       |
|     The default, NCORE=1 might be grossly inefficient on modern             |
|     multi-core architectures or massively parallel machines. Do your        |
|     own testing! More info at https://www.vasp.at/wiki/index.php/NCORE      |
|     Unfortunately you need to use the default for GW and RPA                |
|     calculations (for HF NCORE is supported but not extensively tested      |
|     yet).                                                                   |
|                                                                             |
 -----------------------------------------------------------------------------

 POTCAR:    PAW_PBE B 06Sep2000                   
   VRHFIN =B: s2p1                                                                                  
   LEXCH  = PE                                                                                      
   EATOM  =    71.1703 eV,    5.2309 Ry                                                             
                                                                                                    
   TITEL  = PAW_PBE B 06Sep2000                                                                     
   LULTRA =        F    use ultrasoft PP ?                                                          
   IUNSCR =        1    unscreen: 0-lin 1-nonlin 2-no                                               
   RPACOR =    1.200    partial core radius                                                         
   POMASS =   10.811; ZVAL   =    3.000    mass and valenz                                          
   RCORE  =    1.700    outmost cutoff radius                                                       
   RWIGS  =    1.710; RWIGS  =    0.905    wigner-seitz radius (au A)                               
   ENMAX  =  318.614; ENMIN  =  238.960 eV                                                          
   ICORE  =        2    local potential                                                             
   LCOR   =        T    correct aug charges                                                         
   LPAW   =        T    paw PP                                                                      
   EAUG   =  535.514                                                                                
   DEXC   =    0.000                                                                                
   RMAX   =    1.732    core radius for proj-oper                                                   
   RAUG   =    1.300    factor for augmentation sphere                                              
   RDEP   =    1.757    radius for radial grids                                                     
   RDEPT  =    1.436    core radius for aug-charge                                                  
                                                                                                    
   Atomic configuration                                                                             
    4 entries                                                                                       
     n  l   j            E        occ.                                                              
     1  0  0.50      -180.5896   2.0000                                                             
     2  0  0.50        -9.4431   2.0000                                                             
     2  1  0.50        -3.6068   1.0000                                                             
     3  2  1.50        -4.0817   0.0000                                                             
   Description                                                                                      
     l       E           TYP  RCUT    TYP  RCUT                                                     
     0     -9.4430752     23  1.500                                                                 
     0      0.8675899     23  1.500                                                                 
     1     -3.6067955     23  1.700                                                                 
     1      6.1086146     23  1.700                                                                 
     2     -4.0817478      7  1.700                                                                 
  local pseudopotential read in
  partial core-charges read in
  partial kinetic energy density read in
  atomic valenz-charges read in
  non local Contribution for L=           0  read in
    real space projection operators read in
  non local Contribution for L=           0  read in
    real space projection operators read in
  non local Contribution for L=           1  read in
    real space projection operators read in
  non local Contribution for L=           1  read in
    real space projection operators read in
    PAW grid and wavefunctions read in
 
   number of l-projection  operators is LMAX  =           4
   number of lm-projection operators is LMMAX =           8
 
 POTCAR:    PAW_PBE Mo_sv 02Feb2006               
   VRHFIN =Mo: 4p5s4d                                                                               
   LEXCH  = PE                                                                                      
   EATOM  =  1862.2866 eV,  136.8742 Ry                                                             
                                                                                                    
   TITEL  = PAW_PBE Mo_sv 02Feb2006                                                                 
   LULTRA =        F    use ultrasoft PP ?                                                          
   IUNSCR =        1    unscreen: 0-lin 1-nonlin 2-no                                               
   RPACOR =    2.200    partial core radius                                                         
   POMASS =   95.940; ZVAL   =   14.000    mass and valenz                                          
   RCORE  =    2.500    outmost cutoff radius                                                       
   RWIGS  =    2.750; RWIGS  =    1.455    wigner-seitz radius (au A)                               
   ENMAX  =  242.676; ENMIN  =  182.007 eV                                                          
   ICORE  =        3    local potential                                                             
   LCOR   =        T    correct aug charges                                                         
   LPAW   =        T    paw PP                                                                      
   EAUG   =  446.014                                                                                
   DEXC   =    0.000                                                                                
   RMAX   =    2.563    core radius for proj-oper                                                   
   RAUG   =    1.300    factor for augmentation sphere                                              
   RDEP   =    2.641    radius for radial grids                                                     
   RDEPT  =    2.031    core radius for aug-charge                                                  
                                                                                                    
   Atomic configuration                                                                             
   11 entries                                                                                       
     n  l   j            E        occ.                                                              
     1  0  0.50    -19819.0341   2.0000                                                             
     2  0  0.50     -2799.0127   2.0000                                                             
     2  1  1.50     -2502.0276   6.0000                                                             
     3  0  0.50      -476.4449   2.0000                                                             
     3  1  1.50      -379.1496   6.0000                                                             
     3  2  2.50      -220.9367  10.0000                                                             
     4  0  0.50       -64.3378   2.0000                                                             
     5  0  0.50        -4.0862   1.0000                                                             
     4  1  1.50       -38.4773   6.0000                                                             
     4  2  2.50        -3.7535   5.0000                                                             
     4  3  2.50        -1.3606   0.0000                                                             
   Description                                                                                      
     l       E           TYP  RCUT    TYP  RCUT                                                     
     0    -64.3377829     23  2.100                                                                 
     0     -4.0861640     23  2.400                                                                 
     1    -38.4772993     23  2.100                                                                 
     1     13.6058260     23  2.100                                                                 
     2     -3.7534941     23  2.400                                                                 
     2     -5.1140767     23  2.400                                                                 
     3     -4.0817478     23  2.500                                                                 
  local pseudopotential read in
  partial core-charges read in
  partial kinetic energy density read in
  atomic valenz-charges read in
  non local Contribution for L=           0  read in
    real space projection operators read in
  non local Contribution for L=           0  read in
    real space projection operators read in
  non local Contribution for L=           1  read in
    real space projection operators read in
  non local Contribution for L=           1  read in
    real space projection operators read in
  non local Contribution for L=           2  read in
    real space projection operators read in
  non local Contribution for L=           2  read in
    real space projection operators read in
    PAW grid and wavefunctions read in
 
   number of l-projection  operators is LMAX  =           6
   number of lm-projection operators is LMMAX =          18
 
 POTCAR:    PAW_PBE Si 05Jan2001                  
   VRHFIN =Si: s2p2                                                                                 
   LEXCH  = PE                                                                                      
   EATOM  =   103.0669 eV,    7.5752 Ry                                                             
                                                                                                    
   TITEL  = PAW_PBE Si 05Jan2001                                                                    
   LULTRA =        F    use ultrasoft PP ?                                                          
   IUNSCR =        1    unscreen: 0-lin 1-nonlin 2-no                                               
   RPACOR =    1.500    partial core radius                                                         
   POMASS =   28.085; ZVAL   =    4.000    mass and valenz                                          
   RCORE  =    1.900    outmost cutoff radius                                                       
   RWIGS  =    2.480; RWIGS  =    1.312    wigner-seitz radius (au A)                               
   ENMAX  =  245.345; ENMIN  =  184.009 eV                                                          
   ICORE  =        2    local potential                                                             
   LCOR   =        T    correct aug charges                                                         
   LPAW   =        T    paw PP                                                                      
   EAUG   =  322.069                                                                                
   DEXC   =    0.000                                                                                
   RMAX   =    1.950    core radius for proj-oper                                                   
   RAUG   =    1.300    factor for augmentation sphere                                              
   RDEP   =    1.993    radius for radial grids                                                     
   RDEPT  =    1.837    core radius for aug-charge                                                  
                                                                                                    
   Atomic configuration                                                                             
    6 entries                                                                                       
     n  l   j            E        occ.                                                              
     1  0  0.50     -1785.8828   2.0000                                                             
     2  0  0.50      -139.4969   2.0000                                                             
     2  1  1.50       -95.5546   6.0000                                                             
     3  0  0.50       -10.8127   2.0000                                                             
     3  1  0.50        -4.0811   2.0000                                                             
     3  2  1.50        -4.0817   0.0000                                                             
   Description                                                                                      
     l       E           TYP  RCUT    TYP  RCUT                                                     
     0    -10.8127223     23  1.900                                                                 
     0     -7.6451159     23  1.900                                                                 
     1     -4.0811372     23  1.900                                                                 
     1      2.4879257     23  1.900                                                                 
     2     -4.0817478      7  1.900                                                                 
  local pseudopotential read in
  partial core-charges read in
  partial kinetic energy density read in
  atomic valenz-charges read in
  non local Contribution for L=           0  read in
    real space projection operators read in
  non local Contribution for L=           0  read in
    real space projection operators read in
  non local Contribution for L=           1  read in
    real space projection operators read in
  non local Contribution for L=           1  read in
    real space projection operators read in
    PAW grid and wavefunctions read in
 
   number of l-projection  operators is LMAX  =           4
   number of lm-projection operators is LMMAX =           8
 
  PAW_PBE B 06Sep2000                   :
 energy of atom  1       EATOM=  -71.1703
 kinetic energy error for atom=    0.0007 (will be added to EATOM!!)
  PAW_PBE Mo_sv 02Feb2006               :
 energy of atom  2       EATOM=-1862.2866
 kinetic energy error for atom=    0.0041 (will be added to EATOM!!)
  PAW_PBE Si 05Jan2001                  :
 energy of atom  3       EATOM= -103.0669
 kinetic energy error for atom=    0.0003 (will be added to EATOM!!)
 
 
 POSCAR: EA121
  positions in direct lattice
  No initial velocities read in

 METAGGA = R2SCA    LMAXTAU =  6    LMIXTAU =  F

 exchange correlation table for  LEXCH =        8
   RHO(1)=    0.500       N(1)  =     2000
   RHO(2)=  100.500       N(2)  =     4000
 


--------------------------------------------------------------------------------------------------------


 ion  position               nearest neighbor table
   1  0.750  0.250  0.500-   6 2.14   8 2.14   7 2.14   3 2.14
   2  0.250  0.750  0.500-   6 2.14   8 2.14   3 2.14   7 2.14
   3  0.500  0.000  0.000-   4 2.14   5 2.14   1 2.14   2 2.14  10 2.99   9 2.99  10 2.99   9 2.99
                             8 3.02   8 3.02   6 3.02   6 3.02
   4  0.250  0.250  0.000-   9 2.09  10 2.09   3 2.14   7 2.14   8 2.14   6 2.14
   5  0.750  0.750  0.000-   9 2.09  10 2.09   3 2.14   7 2.14   6 2.14   8 2.14
   6  0.000  0.000  0.500-   1 2.14   2 2.14   4 2.14   5 2.14   9 2.99   9 2.99  10 2.99  10 2.99
                             7 3.02   7 3.02   3 3.02   3 3.02
   7  0.000  0.500  0.000-   4 2.14   5 2.14   2 2.14   1 2.14  10 2.99   9 2.99   9 2.99  10 2.99
                             8 3.02   6 3.02   6 3.02   8 3.02
   8  0.500  0.500  0.500-   1 2.14   2 2.14   5 2.14   4 2.14  10 2.99  10 2.99   9 2.99   9 2.99
                             7 3.02   3 3.02   7 3.02   3 3.02
   9  0.000  0.000  0.000-   4 2.09   5 2.09   3 2.99   6 2.99   7 2.99   6 2.99   7 2.99   3 2.99
                             8 2.99   8 2.99
  10  0.500  0.500  0.000-   4 2.09   5 2.09   3 2.99   7 2.99   8 2.99   8 2.99   3 2.99   7 2.99
                             6 2.99   6 2.99
 
  LATTYP: Found a body centered tetragonal cell.
 ALAT       =     6.0483930467
 C/A-ratio  =     1.3796954189
  
  Lattice vectors:
  
 A1 = (   5.2164477067,   0.0000000000,  -2.9137015675)
 A2 = (  -1.7965534329,   4.8973178822,  -2.9137015675)
 A3 = (   0.0000000000,   0.0000000000,   5.9750300000)


Analysis of symmetry for initial positions (statically):
=====================================================================
 Subroutine PRICEL returns following result:
 
  LATTYP: Found a simple tetragonal cell.
 ALAT       =     4.2768536164
 C/A-ratio  =     0.9755933832
  
  Lattice vectors:
  
 A1 = (  -3.5065005698,   2.4486589411,   0.0000000000)
 A2 = (   1.7099471369,   2.4486589411,   3.0613284325)
 A3 = (   1.7099471369,   2.4486589411,  -2.9137015675)
 
   2 primitive cells build up your supercell.
 

 Routine SETGRP: Setting up the symmetry group for a 
 body centered tetragonal supercell.


 Subroutine GETGRP returns: Found 16 space group operations
 (whereof 16 operations were pure point group operations)
 out of a pool of 16 trial point group operations.


The static configuration has the point symmetry D_4h.


Analysis of symmetry for dynamics (positions and initial velocities):
=====================================================================
 Subroutine PRICEL returns following result:
 
  LATTYP: Found a simple tetragonal cell.
 ALAT       =     4.2768536164
 C/A-ratio  =     0.9755933832
  
  Lattice vectors:
  
 A1 = (  -3.5065005698,   2.4486589411,   0.0000000000)
 A2 = (   1.7099471369,   2.4486589411,   3.0613284325)
 A3 = (   1.7099471369,   2.4486589411,  -2.9137015675)
 
   2 primitive cells build up your supercell.
 

 Routine SETGRP: Setting up the symmetry group for a 
 body centered tetragonal supercell.


 Subroutine GETGRP returns: Found 16 space group operations
 (whereof 16 operations were pure point group operations)
 out of a pool of 16 trial point group operations.


The dynamic configuration has the point symmetry D_4h.


 Subroutine INISYM returns: Found 16 space group operations
 (whereof 16 operations are pure point group operations),
 and found     2 'primitive' translations


----------------------------------------------------------------------------------------

                                     Primitive cell                                     

  volume of cell :      76.3209

  direct lattice vectors                    reciprocal lattice vectors
    -3.506500570  2.448658941  0.000000000    -0.191701337  0.133868848  0.000000000
     1.709947137  2.448658941  3.061328432     0.093482457  0.133867679  0.167363176
     1.709947137  2.448658941 -2.913701568     0.098218880  0.140650277 -0.167363176

  length of vectors
     4.276853616  4.276865861  4.172470089     0.233816747  0.233816078  0.239666188

  position of ions in fractional coordinates (direct lattice)
     0.500000000  0.500000000  0.500000000
     0.500000000  1.000000000  0.500000000
     0.000000000  1.000000000  0.500000000
     0.000000000  0.500000000  0.500000000
     0.000000000  0.000000000  0.000000000

  ion indices of the primitive-cell ions
   primitive index   ion index
                 1           1
                 2           3
                 3           4
                 4           6
                 5           9

----------------------------------------------------------------------------------------

 
 
 KPOINTS: EA                                      

Automatic generation of k-mesh.
 Grid dimensions read from file:
 generate k-points for:    7    7    8

 Generating k-lattice:

  Cartesian coordinates                     Fractional coordinates (reciprocal lattice)
     0.027385905  0.010046365  0.000000000     0.142857143  0.000000000  0.000000000
     0.000000000  0.029170486  0.000000000     0.000000000  0.142857143  0.000000000
     0.011685307  0.016733460  0.020920397    -0.000000000 -0.000000000  0.125000000

  Length of vectors
     0.029170486  0.029170486  0.029227010

  Shift w.r.t. Gamma in fractional coordinates (k-lattice)
     0.000000000  0.000000000  0.000000000

 -----------------------------------------------------------------------------
|                                                                             |
|           W    W    AA    RRRRR   N    N  II  N    N   GGGG   !!!           |
|           W    W   A  A   R    R  NN   N  II  NN   N  G    G  !!!           |
|           W    W  A    A  R    R  N N  N  II  N N  N  G       !!!           |
|           W WW W  AAAAAA  RRRRR   N  N N  II  N  N N  G  GGG   !            |
|           WW  WW  A    A  R   R   N   NN  II  N   NN  G    G                |
|           W    W  A    A  R    R  N    N  II  N    N   GGGG   !!!           |
|                                                                             |
|     Your reciprocal lattice and k-lattice belong to different lattice       |
|     classes:                                                                |
|                                                                             |
|        The reciprocal lattice is body-centered tetragonal,                  |
|        whereas your k-lattice is base-centered monoclinic.                  |
|                                                                             |
|     Results are often still useful ...                                      |
|                                                                             |
 -----------------------------------------------------------------------------

 WARNING: IBZKPT: internal override: KBLOWUP is changed to .FALSE.
      ... skipping the blow-up phase ...

 
 Subroutine IBZKPT returns following result:
 ===========================================
 
 Found    116 irreducible k-points:
 
 Following reciprocal coordinates:
            Coordinates               Weight
  0.000000  0.000000  0.000000      1.000000
  0.142857  0.000000  0.000000      4.000000
  0.285714  0.000000  0.000000      4.000000
  0.428571  0.000000  0.000000      4.000000
  0.142857  0.142857  0.000000      2.000000
  0.285714  0.142857  0.000000      4.000000
  0.428571  0.142857  0.000000      4.000000
 -0.428571  0.142857  0.000000      4.000000
 -0.285714  0.142857  0.000000      4.000000
 -0.142857  0.142857  0.000000      2.000000
  0.285714  0.285714  0.000000      2.000000
  0.428571  0.285714  0.000000      4.000000
 -0.428571  0.285714  0.000000      4.000000
 -0.285714  0.285714  0.000000      2.000000
  0.428571  0.428571  0.000000      2.000000
 -0.428571  0.428571  0.000000      2.000000
 -0.000000  0.000000  0.125000      2.000000
  0.142857  0.000000  0.125000      4.000000
  0.285714  0.000000  0.125000      4.000000
  0.428571  0.000000  0.125000      4.000000
 -0.428571 -0.000000  0.125000      4.000000
 -0.285714 -0.000000  0.125000      4.000000
 -0.142857 -0.000000  0.125000      4.000000
  0.142857  0.142857  0.125000      2.000000
  0.285714  0.142857  0.125000      4.000000
  0.428571  0.142857  0.125000      4.000000
 -0.428571  0.142857  0.125000      4.000000
 -0.285714  0.142857  0.125000      4.000000
 -0.142857  0.142857  0.125000      4.000000
  0.285714  0.285714  0.125000      2.000000
  0.428571  0.285714  0.125000      4.000000
 -0.428571  0.285714  0.125000      4.000000
 -0.285714  0.285714  0.125000      4.000000
 -0.142857  0.285714  0.125000      4.000000
  0.428571  0.428571  0.125000      2.000000
 -0.428571  0.428571  0.125000      4.000000
 -0.285714  0.428571  0.125000      4.000000
 -0.142857  0.428571  0.125000      4.000000
 -0.428571 -0.428571  0.125000      2.000000
 -0.285714 -0.428571  0.125000      4.000000
 -0.142857 -0.428571  0.125000      4.000000
 -0.285714 -0.285714  0.125000      2.000000
 -0.142857 -0.285714  0.125000      4.000000
 -0.142857 -0.142857  0.125000      2.000000
 -0.000000  0.000000  0.250000      2.000000
  0.142857  0.000000  0.250000      4.000000
  0.285714  0.000000  0.250000      4.000000
  0.428571  0.000000  0.250000      4.000000
 -0.428571 -0.000000  0.250000      4.000000
 -0.285714 -0.000000  0.250000      4.000000
 -0.142857  0.000000  0.250000      4.000000
  0.142857  0.142857  0.250000      2.000000
  0.285714  0.142857  0.250000      4.000000
  0.428571  0.142857  0.250000      4.000000
 -0.428571  0.142857  0.250000      4.000000
 -0.285714  0.142857  0.250000      4.000000
 -0.142857  0.142857  0.250000      4.000000
  0.285714  0.285714  0.250000      2.000000
  0.428571  0.285714  0.250000      4.000000
 -0.428571  0.285714  0.250000      4.000000
 -0.285714  0.285714  0.250000      4.000000
 -0.142857  0.285714  0.250000      4.000000
  0.428571  0.428571  0.250000      2.000000
 -0.428571  0.428571  0.250000      4.000000
 -0.285714  0.428571  0.250000      4.000000
 -0.142857  0.428571  0.250000      4.000000
 -0.428571 -0.428571  0.250000      2.000000
 -0.285714 -0.428571  0.250000      4.000000
 -0.142857 -0.428571  0.250000      4.000000
 -0.285714 -0.285714  0.250000      2.000000
 -0.142857 -0.285714  0.250000      4.000000
 -0.142857 -0.142857  0.250000      2.000000
  0.000000  0.000000  0.375000      2.000000
  0.142857  0.000000  0.375000      4.000000
  0.285714  0.000000  0.375000      4.000000
  0.428571  0.000000  0.375000      4.000000
 -0.428571 -0.000000  0.375000      4.000000
 -0.285714 -0.000000  0.375000      4.000000
 -0.142857  0.000000  0.375000      4.000000
  0.142857  0.142857  0.375000      2.000000
  0.285714  0.142857  0.375000      4.000000
  0.428571  0.142857  0.375000      4.000000
 -0.428571  0.142857  0.375000      4.000000
 -0.285714  0.142857  0.375000      4.000000
 -0.142857  0.142857  0.375000      4.000000
  0.285714  0.285714  0.375000      2.000000
  0.428571  0.285714  0.375000      4.000000
 -0.428571  0.285714  0.375000      4.000000
 -0.285714  0.285714  0.375000      4.000000
 -0.142857  0.285714  0.375000      4.000000
  0.428571  0.428571  0.375000      2.000000
 -0.428571  0.428571  0.375000      4.000000
 -0.285714  0.428571  0.375000      4.000000
 -0.142857  0.428571  0.375000      4.000000
 -0.428571 -0.428571  0.375000      2.000000
 -0.285714 -0.428571  0.375000      4.000000
 -0.142857 -0.428571  0.375000      4.000000
 -0.285714 -0.285714  0.375000      2.000000
 -0.142857 -0.285714  0.375000      4.000000
 -0.142857 -0.142857  0.375000      2.000000
 -0.000000  0.000000  0.500000      1.000000
  0.142857  0.000000  0.500000      4.000000
  0.285714  0.000000  0.500000      4.000000
  0.428571  0.000000  0.500000      4.000000
  0.142857  0.142857  0.500000      2.000000
  0.285714  0.142857  0.500000      4.000000
  0.428571  0.142857  0.500000      4.000000
 -0.428571  0.142857  0.500000      4.000000
 -0.285714  0.142857  0.500000      4.000000
 -0.142857  0.142857  0.500000      2.000000
  0.285714  0.285714  0.500000      2.000000
  0.428571  0.285714  0.500000      4.000000
 -0.428571  0.285714  0.500000      4.000000
 -0.285714  0.285714  0.500000      2.000000
  0.428571  0.428571  0.500000      2.000000
 -0.428571  0.428571  0.500000      2.000000
 
 Following cartesian coordinates:
            Coordinates               Weight
  0.000000  0.000000  0.000000      1.000000
  0.027386  0.010046  0.000000      4.000000
  0.054772  0.020093  0.000000      4.000000
  0.082158  0.030139  0.000000      4.000000
  0.027386  0.039217  0.000000      2.000000
  0.054772  0.049263  0.000000      4.000000
  0.082158  0.059310  0.000000      4.000000
 -0.082158 -0.000969  0.000000      4.000000
 -0.054772  0.009078  0.000000      4.000000
 -0.027386  0.019124  0.000000      2.000000
  0.054772  0.078434  0.000000      2.000000
  0.082158  0.088480  0.000000      4.000000
 -0.082158  0.028202  0.000000      4.000000
 -0.054772  0.038248  0.000000      2.000000
  0.082158  0.117651  0.000000      2.000000
 -0.082158  0.057372  0.000000      2.000000
  0.011685  0.016733  0.020920      2.000000
  0.039071  0.026780  0.020920      4.000000
  0.066457  0.036826  0.020920      4.000000
  0.093843  0.046873  0.020920      4.000000
 -0.070472 -0.013406  0.020920      4.000000
 -0.043087 -0.003359  0.020920      4.000000
 -0.015701  0.006687  0.020920      4.000000
  0.039071  0.055950  0.020920      2.000000
  0.066457  0.065997  0.020920      4.000000
  0.093843  0.076043  0.020920      4.000000
 -0.070472  0.015765  0.020920      4.000000
 -0.043087  0.025811  0.020920      4.000000
 -0.015701  0.035858  0.020920      4.000000
  0.066457  0.095167  0.020920      2.000000
  0.093843  0.105214  0.020920      4.000000
 -0.070472  0.044935  0.020920      4.000000
 -0.043087  0.054982  0.020920      4.000000
 -0.015701  0.065028  0.020920      4.000000
  0.093843  0.134384  0.020920      2.000000
 -0.070472  0.074106  0.020920      4.000000
 -0.043087  0.084152  0.020920      4.000000
 -0.015701  0.094199  0.020920      4.000000
 -0.070472 -0.100917  0.020920      2.000000
 -0.043087 -0.090871  0.020920      4.000000
 -0.015701 -0.080824  0.020920      4.000000
 -0.043087 -0.061700  0.020920      2.000000
 -0.015701 -0.051654  0.020920      4.000000
 -0.015701 -0.022483  0.020920      2.000000
  0.023371  0.033467  0.041841      2.000000
  0.050757  0.043513  0.041841      4.000000
  0.078142  0.053560  0.041841      4.000000
  0.105528  0.063606  0.041841      4.000000
 -0.058787  0.003328  0.041841      4.000000
 -0.031401  0.013374  0.041841      4.000000
 -0.004015  0.023421  0.041841      4.000000
  0.050757  0.072684  0.041841      2.000000
  0.078142  0.082730  0.041841      4.000000
  0.105528  0.092777  0.041841      4.000000
 -0.058787  0.032498  0.041841      4.000000
 -0.031401  0.042545  0.041841      4.000000
 -0.004015  0.052591  0.041841      4.000000
  0.078142  0.111901  0.041841      2.000000
  0.105528  0.121947  0.041841      4.000000
 -0.058787  0.061669  0.041841      4.000000
 -0.031401  0.071715  0.041841      4.000000
 -0.004015  0.081762  0.041841      4.000000
  0.105528  0.151117  0.041841      2.000000
 -0.058787  0.090839  0.041841      4.000000
 -0.031401  0.100886  0.041841      4.000000
 -0.004015  0.110932  0.041841      4.000000
 -0.058787 -0.084184  0.041841      2.000000
 -0.031401 -0.074137  0.041841      4.000000
 -0.004015 -0.064091  0.041841      4.000000
 -0.031401 -0.044967  0.041841      2.000000
 -0.004015 -0.034920  0.041841      4.000000
 -0.004015 -0.005750  0.041841      2.000000
  0.035056  0.050200  0.062761      2.000000
  0.062442  0.060247  0.062761      4.000000
  0.089828  0.070293  0.062761      4.000000
  0.117214  0.080339  0.062761      4.000000
 -0.047102  0.020061  0.062761      4.000000
 -0.019716  0.030108  0.062761      4.000000
  0.007670  0.040154  0.062761      4.000000
  0.062442  0.089417  0.062761      2.000000
  0.089828  0.099464  0.062761      4.000000
  0.117214  0.109510  0.062761      4.000000
 -0.047102  0.049232  0.062761      4.000000
 -0.019716  0.059278  0.062761      4.000000
  0.007670  0.069325  0.062761      4.000000
  0.089828  0.128634  0.062761      2.000000
  0.117214  0.138680  0.062761      4.000000
 -0.047102  0.078402  0.062761      4.000000
 -0.019716  0.088449  0.062761      4.000000
  0.007670  0.098495  0.062761      4.000000
  0.117214  0.167851  0.062761      2.000000
 -0.047102  0.107573  0.062761      4.000000
 -0.019716  0.117619  0.062761      4.000000
  0.007670  0.127665  0.062761      4.000000
 -0.047102 -0.067450  0.062761      2.000000
 -0.019716 -0.057404  0.062761      4.000000
  0.007670 -0.047357  0.062761      4.000000
 -0.019716 -0.028233  0.062761      2.000000
  0.007670 -0.018187  0.062761      4.000000
  0.007670  0.010984  0.062761      2.000000
  0.046741  0.066934  0.083682      1.000000
  0.074127  0.076980  0.083682      4.000000
  0.101513  0.087027  0.083682      4.000000
  0.128899  0.097073  0.083682      4.000000
  0.074127  0.106151  0.083682      2.000000
  0.101513  0.116197  0.083682      4.000000
  0.128899  0.126243  0.083682      4.000000
 -0.035416  0.065965  0.083682      4.000000
 -0.008031  0.076012  0.083682      4.000000
  0.019355  0.086058  0.083682      2.000000
  0.101513  0.145368  0.083682      2.000000
  0.128899  0.155414  0.083682      4.000000
 -0.035416  0.095136  0.083682      4.000000
 -0.008031  0.105182  0.083682      2.000000
  0.128899  0.184584  0.083682      2.000000
 -0.035416  0.124306  0.083682      2.000000
 


--------------------------------------------------------------------------------------------------------




 Dimension of arrays:
   k-points           NKPTS =    116   k-points in BZ     NKDIM =    116   number of bands    NBANDS=     60
   number of dos      NEDOS =    301   number of ions     NIONS =     10
   non local maximal  LDIM  =      6   non local SUM 2l+1 LMDIM =     18
   total plane-waves  NPLWV = 110592
   max r-space proj   IRMAX =      1   max aug-charges    IRDMAX= 253645
   dimension x,y,z NGX =    48 NGY =   48 NGZ =   48
   dimension x,y,z NGXF=    96 NGYF=   96 NGZF=   96
   support grid    NGXF=   192 NGYF=  192 NGZF=  192
   ions per type =               2   6   2
   NGX,Y,Z   is equivalent  to a cutoff of  13.36, 13.36, 13.36 a.u.
   NGXF,Y,Z  is equivalent  to a cutoff of  26.71, 26.71, 26.71 a.u.

 SYSTEM =  routine with relax: pwdword             
 POSCAR =  EA121                                   

 Startparameter for this run:
   NWRITE =      2    write-flag & timer
   PREC   = acc       normal or accurate (medium, high low for compatibility)
   ISTART =      0    job   : 0-new  1-cont  2-samecut
   ICHARG =      2    charge: 1-file 2-atom 10-const
   ISPIN  =      1    spin polarized calculation?
   LNONCOLLINEAR =      F non collinear calculations
   LSORBIT =      F    spin-orbit coupling
   INIWAV =      1    electr: 0-lowe 1-rand  2-diag
   LASPH  =      T    aspherical Exc in radial PAW
   METAGGA=      F    non-selfconsistent MetaGGA calc.

 Electronic Relaxation 1
   ENCUT  =  600.0 eV  44.10 Ry    6.64 a.u.  11.93 11.93 11.93*2*pi/ulx,y,z
   ENINI  =  600.0     initial cutoff
   ENAUG  =  535.5 eV  augmentation charge cutoff
   NELM   =    100;   NELMIN=  6; NELMDL= -5     # of ELM steps 
   EDIFF  = 0.1E-08   stopping-criterion for ELM
   LREAL  =      F    real-space projection
   NLSPLINE    = F    spline interpolate recip. space projectors
   LCOMPAT=      F    compatible to vasp.4.4
   GGA_COMPAT  = T    GGA compatible to vasp.4.4-vasp.4.6
   LMAXPAW     = -100 max onsite density
   LMAXMIX     =    2 max onsite mixed and CHGCAR
   VOSKOWN=      0    Vosko Wilk Nusair interpolation
   ROPT   =    0.00000   0.00000   0.00000
 Ionic relaxation
   EDIFFG = 0.1E-07   stopping-criterion for IOM
   NSW    =      0    number of steps for IOM
   NBLOCK =      1;   KBLOCK =      1    inner block; outer block 
   IBRION =     -1    ionic relax: 0-MD 1-quasi-New 2-CG
   NFREE  =      0    steps in history (QN), initial steepest desc. (CG)
   ISIF   =     -1    stress and relaxation
   IWAVPR =     10    prediction:  0-non 1-charg 2-wave 3-comb
   ISYM   =      2    0-nonsym 1-usesym 2-fastsym
   LCORR  =      T    Harris-Foulkes like correction to forces

   POTIM  = 0.5000    time-step for ionic-motion
   TEIN   =    0.0    initial temperature
   TEBEG  =    0.0;   TEEND  =   0.0 temperature during run
   SMASS  =  -3.00    Nose mass-parameter (am)
   estimated Nose-frequenzy (Omega)   =  0.10E-29 period in steps = 0.13E+47 mass=  -0.816E-27a.u.
   SCALEE = 1.0000    scale energy and forces
   NPACO  =    256;   APACO  = 16.0  distance and # of slots for P.C.
   PSTRESS=    0.0 pullay stress

  Mass of Ions in am
   POMASS =  10.81 95.94 28.09
  Ionic Valenz
   ZVAL   =   3.00 14.00  4.00
  Atomic Wigner-Seitz radii
   RWIGS  =  -1.00 -1.00 -1.00
  virtual crystal weights 
   VCA    =   1.00  1.00  1.00
   NELECT =      98.0000    total number of electrons
   NUPDOWN=      -1.0000    fix difference up-down

 DOS related values:
   EMIN   =  10.00;   EMAX   =-10.00  energy-range for DOS
   EFERMI =   0.00
   ISMEAR =     0;   SIGMA  =   0.02  broadening in eV -4-tet -1-fermi 0-gaus

 Electronic relaxation 2 (details)
   IALGO  =     58    algorithm
   LDIAG  =      T    sub-space diagonalisation (order eigenvalues)
   LSUBROT=      F    optimize rotation matrix (better conditioning)
   TURBO    =      0    0=normal 1=particle mesh
   IRESTART =      0    0=no restart 2=restart with 2 vectors
   NREBOOT  =      0    no. of reboots
   NMIN     =      0    reboot dimension
   EREF     =   0.00    reference energy to select bands
   IMIX   =      4    mixing-type and parameters
     AMIX     =   0.40;   BMIX     =  1.00
     AMIX_MAG =   1.60;   BMIX_MAG =  1.00
     AMIN     =   0.10
     WC   =   100.;   INIMIX=   1;  MIXPRE=   1;  MAXMIX= -45

 Intra band minimization:
   WEIMIN = 0.0000     energy-eigenvalue tresh-hold
   EBREAK =  0.42E-11  absolut break condition
   DEPER  =   0.30     relativ break condition  

   TIME   =   0.40     timestep for ELM

  volume/ion in A,a.u.               =      15.26       103.01
  Fermi-wavevector in a.u.,A,eV,Ry     =   1.412296  2.668853 27.137914  1.994580
  Thomas-Fermi vector in A             =   2.534059
 
 Write flags
   LWAVE        =      T    write WAVECAR
   LDOWNSAMPLE  =      F    k-point downsampling of WAVECAR
   LCHARG       =      T    write CHGCAR
   LVTOT        =      F    write LOCPOT, total local potential
   LVHAR        =      F    write LOCPOT, Hartree potential only
   LELF         =      F    write electronic localiz. function (ELF)
   LORBIT       =      0    0 simple, 1 ext, 2 COOP (PROOUT), +10 PAW based schemes


 Dipole corrections
   LMONO  =      F    monopole corrections only (constant potential shift)
   LDIPOL =      F    correct potential (dipole corrections)
   IDIPOL =      0    1-x, 2-y, 3-z, 4-all directions 
   EPSILON=  1.0000000 bulk dielectric constant

 Exchange correlation treatment:
   GGA     =    --    GGA type
   LEXCH   =     8    internal setting for exchange type
   VOSKOWN=      0    Vosko Wilk Nusair interpolation
   LHFCALC =     F    Hartree Fock is set to
   LHFONE  =     F    Hartree Fock one center treatment
   AEXX    =    0.0000 exact exchange contribution

 Linear response parameters
   LEPSILON=     F    determine dielectric tensor
   LRPA    =     F    only Hartree local field effects (RPA)
   LNABLA  =     F    use nabla operator in PAW spheres
   LVEL    =     F    velocity operator in full k-point grid
   LINTERFAST=   F  fast interpolation
   KINTER  =     0    interpolate to denser k-point grid
   CSHIFT  =0.1000    complex shift for real part using Kramers Kronig
   OMEGAMAX=  -1.0    maximum frequency
   DEG_THRESHOLD= 0.2000000E-02 threshold for treating states as degnerate
   RTIME   =   -0.100 relaxation time in fs
  (WPLASMAI=    0.000 imaginary part of plasma frequency in eV, 0.658/RTIME)
   DFIELD  = 0.0000000 0.0000000 0.0000000 field for delta impulse in time
 
 Orbital magnetization related:
   ORBITALMAG=     F  switch on orbital magnetization
   LCHIMAG   =     F  perturbation theory with respect to B field
   DQ        =  0.001000  dq finite difference perturbation B field
   LLRAUG    =     F  two centre corrections for induced B field



--------------------------------------------------------------------------------------------------------


 Static calculation
 charge density and potential will be updated during run
 non-spin polarized calculation
 Conjugate gradient for all bands (Freysoldt, et al. PRB 79, 241103 (2009))
 preconditioned conjugated gradient                                        
 perform sub-space diagonalisation
    before iterative eigenvector-optimisation
 modified Broyden-mixing scheme, WC =      100.0
 initial mixing is a Kerker type mixing with AMIX =  0.4000 and BMIX =      1.0000
 Hartree-type preconditioning will be used
 using additional bands           11
 reciprocal scheme for non local part
 use partial core corrections
 no Harris-corrections to forces 
 use gradient corrections 
 use of overlap-Matrix (Vanderbilt PP)
 Gauss-broadening in eV      SIGMA  =   0.02


--------------------------------------------------------------------------------------------------------


  energy-cutoff  :      600.00
  volume of cell :      152.64
      direct lattice vectors                 reciprocal lattice vectors
     5.216447707  0.000000000 -2.913701568     0.191701337  0.070324554  0.000000000
    -1.796553433  4.897317882 -2.913701568     0.000000000  0.204193402  0.000000000
     0.000000000  0.000000000  5.975030000     0.093482457  0.133867679  0.167363176

  length of vectors
     5.975030000  5.975030000  5.975030000     0.204193402  0.204193402  0.233816078


 
 k-points in units of 2pi/SCALE and weight: EA                                      
   0.00000000  0.00000000  0.00000000       0.003
   0.02738591  0.01004636  0.00000000       0.010
   0.05477181  0.02009273  0.00000000       0.010
   0.08215772  0.03013909  0.00000000       0.010
   0.02738591  0.03921685  0.00000000       0.005
   0.05477181  0.04926322  0.00000000       0.010
   0.08215772  0.05930958  0.00000000       0.010
  -0.08215772 -0.00096861  0.00000000       0.010
  -0.05477181  0.00907776  0.00000000       0.010
  -0.02738591  0.01912412  0.00000000       0.005
   0.05477181  0.07843370  0.00000000       0.005
   0.08215772  0.08848007  0.00000000       0.010
  -0.08215772  0.02820188  0.00000000       0.010
  -0.05477181  0.03824824  0.00000000       0.005
   0.08215772  0.11765055  0.00000000       0.005
  -0.08215772  0.05737236  0.00000000       0.005
   0.01168531  0.01673346  0.02092040       0.005
   0.03907121  0.02677982  0.02092040       0.010
   0.06645712  0.03682619  0.02092040       0.010
   0.09384302  0.04687255  0.02092040       0.010
  -0.07047241 -0.01340563  0.02092040       0.010
  -0.04308650 -0.00335927  0.02092040       0.010
  -0.01570060  0.00668710  0.02092040       0.010
   0.03907121  0.05595031  0.02092040       0.005
   0.06645712  0.06599668  0.02092040       0.010
   0.09384302  0.07604304  0.02092040       0.010
  -0.07047241  0.01576485  0.02092040       0.010
  -0.04308650  0.02581122  0.02092040       0.010
  -0.01570060  0.03585758  0.02092040       0.010
   0.06645712  0.09516716  0.02092040       0.005
   0.09384302  0.10521353  0.02092040       0.010
  -0.07047241  0.04493534  0.02092040       0.010
  -0.04308650  0.05498170  0.02092040       0.010
  -0.01570060  0.06502807  0.02092040       0.010
   0.09384302  0.13438401  0.02092040       0.005
  -0.07047241  0.07410582  0.02092040       0.010
  -0.04308650  0.08415219  0.02092040       0.010
  -0.01570060  0.09419855  0.02092040       0.010
  -0.07047241 -0.10091709  0.02092040       0.005
  -0.04308650 -0.09087073  0.02092040       0.010
  -0.01570060 -0.08082436  0.02092040       0.010
  -0.04308650 -0.06170024  0.02092040       0.005
  -0.01570060 -0.05165388  0.02092040       0.010
  -0.01570060 -0.02248339  0.02092040       0.005
   0.02337061  0.03346692  0.04184079       0.005
   0.05075652  0.04351328  0.04184079       0.010
   0.07814242  0.05355965  0.04184079       0.010
   0.10552833  0.06360601  0.04184079       0.010
  -0.05878710  0.00332783  0.04184079       0.010
  -0.03140120  0.01337419  0.04184079       0.010
  -0.00401529  0.02342055  0.04184079       0.010
   0.05075652  0.07268377  0.04184079       0.005
   0.07814242  0.08273014  0.04184079       0.010
   0.10552833  0.09277650  0.04184079       0.010
  -0.05878710  0.03249831  0.04184079       0.010
  -0.03140120  0.04254468  0.04184079       0.010
  -0.00401529  0.05259104  0.04184079       0.010
   0.07814242  0.11190062  0.04184079       0.005
   0.10552833  0.12194699  0.04184079       0.010
  -0.05878710  0.06166880  0.04184079       0.010
  -0.03140120  0.07171516  0.04184079       0.010
  -0.00401529  0.08176153  0.04184079       0.010
   0.10552833  0.15111747  0.04184079       0.005
  -0.05878710  0.09083928  0.04184079       0.010
  -0.03140120  0.10088565  0.04184079       0.010
  -0.00401529  0.11093201  0.04184079       0.010
  -0.05878710 -0.08418363  0.04184079       0.005
  -0.03140120 -0.07413727  0.04184079       0.010
  -0.00401529 -0.06409090  0.04184079       0.010
  -0.03140120 -0.04496678  0.04184079       0.005
  -0.00401529 -0.03492042  0.04184079       0.010
  -0.00401529 -0.00574993  0.04184079       0.005
   0.03505592  0.05020038  0.06276119       0.005
   0.06244183  0.06024674  0.06276119       0.010
   0.08982773  0.07029311  0.06276119       0.010
   0.11721364  0.08033947  0.06276119       0.010
  -0.04710179  0.02006129  0.06276119       0.010
  -0.01971589  0.03010765  0.06276119       0.010
   0.00767002  0.04015401  0.06276119       0.010
   0.06244183  0.08941723  0.06276119       0.005
   0.08982773  0.09946360  0.06276119       0.010
   0.11721364  0.10950996  0.06276119       0.010
  -0.04710179  0.04923177  0.06276119       0.010
  -0.01971589  0.05927814  0.06276119       0.010
   0.00767002  0.06932450  0.06276119       0.010
   0.08982773  0.12863408  0.06276119       0.005
   0.11721364  0.13868045  0.06276119       0.010
  -0.04710179  0.07840226  0.06276119       0.010
  -0.01971589  0.08844862  0.06276119       0.010
   0.00767002  0.09849499  0.06276119       0.010
   0.11721364  0.16785093  0.06276119       0.005
  -0.04710179  0.10757274  0.06276119       0.010
  -0.01971589  0.11761911  0.06276119       0.010
   0.00767002  0.12766547  0.06276119       0.010
  -0.04710179 -0.06745017  0.06276119       0.005
  -0.01971589 -0.05740381  0.06276119       0.010
   0.00767002 -0.04735744  0.06276119       0.010
  -0.01971589 -0.02823332  0.06276119       0.005
   0.00767002 -0.01818696  0.06276119       0.010
   0.00767002  0.01098353  0.06276119       0.005
   0.04674123  0.06693384  0.08368159       0.003
   0.07412713  0.07698020  0.08368159       0.010
   0.10151304  0.08702657  0.08368159       0.010
   0.12889894  0.09707293  0.08368159       0.010
   0.07412713  0.10615069  0.08368159       0.005
   0.10151304  0.11619706  0.08368159       0.010
   0.12889894  0.12624342  0.08368159       0.010
  -0.03541649  0.06596523  0.08368159       0.010
  -0.00803058  0.07601160  0.08368159       0.010
   0.01935532  0.08605796  0.08368159       0.005
   0.10151304  0.14536754  0.08368159       0.005
   0.12889894  0.15541391  0.08368159       0.010
  -0.03541649  0.09513572  0.08368159       0.010
  -0.00803058  0.10518208  0.08368159       0.005
   0.12889894  0.18458439  0.08368159       0.005
  -0.03541649  0.12430620  0.08368159       0.005
 
 k-points in reciprocal lattice and weights: EA                                      
   0.00000000  0.00000000  0.00000000       0.003
   0.14285714  0.00000000  0.00000000       0.010
   0.28571429  0.00000000  0.00000000       0.010
   0.42857143  0.00000000  0.00000000       0.010
   0.14285714  0.14285714  0.00000000       0.005
   0.28571429  0.14285714  0.00000000       0.010
   0.42857143  0.14285714  0.00000000       0.010
  -0.42857143  0.14285714  0.00000000       0.010
  -0.28571429  0.14285714  0.00000000       0.010
  -0.14285714  0.14285714  0.00000000       0.005
   0.28571429  0.28571429  0.00000000       0.005
   0.42857143  0.28571429  0.00000000       0.010
  -0.42857143  0.28571429  0.00000000       0.010
  -0.28571429  0.28571429  0.00000000       0.005
   0.42857143  0.42857143  0.00000000       0.005
  -0.42857143  0.42857143  0.00000000       0.005
  -0.00000000  0.00000000  0.12500000       0.005
   0.14285714  0.00000000  0.12500000       0.010
   0.28571429  0.00000000  0.12500000       0.010
   0.42857143  0.00000000  0.12500000       0.010
  -0.42857143 -0.00000000  0.12500000       0.010
  -0.28571429 -0.00000000  0.12500000       0.010
  -0.14285714 -0.00000000  0.12500000       0.010
   0.14285714  0.14285714  0.12500000       0.005
   0.28571429  0.14285714  0.12500000       0.010
   0.42857143  0.14285714  0.12500000       0.010
  -0.42857143  0.14285714  0.12500000       0.010
  -0.28571429  0.14285714  0.12500000       0.010
  -0.14285714  0.14285714  0.12500000       0.010
   0.28571429  0.28571429  0.12500000       0.005
   0.42857143  0.28571429  0.12500000       0.010
  -0.42857143  0.28571429  0.12500000       0.010
  -0.28571429  0.28571429  0.12500000       0.010
  -0.14285714  0.28571429  0.12500000       0.010
   0.42857143  0.42857143  0.12500000       0.005
  -0.42857143  0.42857143  0.12500000       0.010
  -0.28571429  0.42857143  0.12500000       0.010
  -0.14285714  0.42857143  0.12500000       0.010
  -0.42857143 -0.42857143  0.12500000       0.005
  -0.28571429 -0.42857143  0.12500000       0.010
  -0.14285714 -0.42857143  0.12500000       0.010
  -0.28571429 -0.28571429  0.12500000       0.005
  -0.14285714 -0.28571429  0.12500000       0.010
  -0.14285714 -0.14285714  0.12500000       0.005
  -0.00000000  0.00000000  0.25000000       0.005
   0.14285714  0.00000000  0.25000000       0.010
   0.28571429  0.00000000  0.25000000       0.010
   0.42857143  0.00000000  0.25000000       0.010
  -0.42857143 -0.00000000  0.25000000       0.010
  -0.28571429 -0.00000000  0.25000000       0.010
  -0.14285714  0.00000000  0.25000000       0.010
   0.14285714  0.14285714  0.25000000       0.005
   0.28571429  0.14285714  0.25000000       0.010
   0.42857143  0.14285714  0.25000000       0.010
  -0.42857143  0.14285714  0.25000000       0.010
  -0.28571429  0.14285714  0.25000000       0.010
  -0.14285714  0.14285714  0.25000000       0.010
   0.28571429  0.28571429  0.25000000       0.005
   0.42857143  0.28571429  0.25000000       0.010
  -0.42857143  0.28571429  0.25000000       0.010
  -0.28571429  0.28571429  0.25000000       0.010
  -0.14285714  0.28571429  0.25000000       0.010
   0.42857143  0.42857143  0.25000000       0.005
  -0.42857143  0.42857143  0.25000000       0.010
  -0.28571429  0.42857143  0.25000000       0.010
  -0.14285714  0.42857143  0.25000000       0.010
  -0.42857143 -0.42857143  0.25000000       0.005
  -0.28571429 -0.42857143  0.25000000       0.010
  -0.14285714 -0.42857143  0.25000000       0.010
  -0.28571429 -0.28571429  0.25000000       0.005
  -0.14285714 -0.28571429  0.25000000       0.010
  -0.14285714 -0.14285714  0.25000000       0.005
   0.00000000  0.00000000  0.37500000       0.005
   0.14285714  0.00000000  0.37500000       0.010
   0.28571429  0.00000000  0.37500000       0.010
   0.42857143  0.00000000  0.37500000       0.010
  -0.42857143 -0.00000000  0.37500000       0.010
  -0.28571429 -0.00000000  0.37500000       0.010
  -0.14285714  0.00000000  0.37500000       0.010
   0.14285714  0.14285714  0.37500000       0.005
   0.28571429  0.14285714  0.37500000       0.010
   0.42857143  0.14285714  0.37500000       0.010
  -0.42857143  0.14285714  0.37500000       0.010
  -0.28571429  0.14285714  0.37500000       0.010
  -0.14285714  0.14285714  0.37500000       0.010
   0.28571429  0.28571429  0.37500000       0.005
   0.42857143  0.28571429  0.37500000       0.010
  -0.42857143  0.28571429  0.37500000       0.010
  -0.28571429  0.28571429  0.37500000       0.010
  -0.14285714  0.28571429  0.37500000       0.010
   0.42857143  0.42857143  0.37500000       0.005
  -0.42857143  0.42857143  0.37500000       0.010
  -0.28571429  0.42857143  0.37500000       0.010
  -0.14285714  0.42857143  0.37500000       0.010
  -0.42857143 -0.42857143  0.37500000       0.005
  -0.28571429 -0.42857143  0.37500000       0.010
  -0.14285714 -0.42857143  0.37500000       0.010
  -0.28571429 -0.28571429  0.37500000       0.005
  -0.14285714 -0.28571429  0.37500000       0.010
  -0.14285714 -0.14285714  0.37500000       0.005
  -0.00000000  0.00000000  0.50000000       0.003
   0.14285714  0.00000000  0.50000000       0.010
   0.28571429  0.00000000  0.50000000       0.010
   0.42857143  0.00000000  0.50000000       0.010
   0.14285714  0.14285714  0.50000000       0.005
   0.28571429  0.14285714  0.50000000       0.010
   0.42857143  0.14285714  0.50000000       0.010
  -0.42857143  0.14285714  0.50000000       0.010
  -0.28571429  0.14285714  0.50000000       0.010
  -0.14285714  0.14285714  0.50000000       0.005
   0.28571429  0.28571429  0.50000000       0.005
   0.42857143  0.28571429  0.50000000       0.010
  -0.42857143  0.28571429  0.50000000       0.010
  -0.28571429  0.28571429  0.50000000       0.005
   0.42857143  0.42857143  0.50000000       0.005
  -0.42857143  0.42857143  0.50000000       0.005
 
 position of ions in fractional coordinates (direct lattice) 
   0.75000000  0.25000000  0.50000000
   0.25000000  0.75000000  0.50000000
   0.50000000  0.00000000  0.00000000
   0.25000000  0.25000000  0.00000000
   0.75000000  0.75000000  0.00000000
   0.00000000  0.00000000  0.50000000
   0.00000000  0.50000000  0.00000000
   0.50000000  0.50000000  0.50000000
   0.00000000  0.00000000  0.00000000
   0.50000000  0.50000000  0.00000000
 
 position of ions in cartesian coordinates  (Angst):
   3.46319742  1.22432947  0.07381343
  -0.04330315  3.67298841  0.07381343
   2.60822385  0.00000000 -1.45685078
   0.85497357  1.22432947 -1.45685078
   2.56492071  3.67298841 -4.37055235
   0.00000000  0.00000000  2.98751500
  -0.89827672  2.44865894 -1.45685078
   1.70994714  2.44865894  0.07381343
   0.00000000  0.00000000  0.00000000
   1.70994714  2.44865894 -2.91370157
 


--------------------------------------------------------------------------------------------------------


 k-point   1 :   0.0000 0.0000 0.0000  plane waves:    5065
 k-point   2 :   0.1429 0.0000 0.0000  plane waves:    5062
 k-point   3 :   0.2857 0.0000 0.0000  plane waves:    5084
 k-point   4 :   0.4286 0.0000 0.0000  plane waves:    5095
 k-point   5 :   0.1429 0.1429 0.0000  plane waves:    5081
 k-point   6 :   0.2857 0.1429 0.0000  plane waves:    5099
 k-point   7 :   0.4286 0.1429 0.0000  plane waves:    5088
 k-point   8 :  -0.4286 0.1429 0.0000  plane waves:    5090
 k-point   9 :  -0.2857 0.1429 0.0000  plane waves:    5092
 k-point  10 :  -0.1429 0.1429 0.0000  plane waves:    5079
 k-point  11 :   0.2857 0.2857 0.0000  plane waves:    5104
 k-point  12 :   0.4286 0.2857 0.0000  plane waves:    5103
 k-point  13 :  -0.4286 0.2857 0.0000  plane waves:    5096
 k-point  14 :  -0.2857 0.2857 0.0000  plane waves:    5085
 k-point  15 :   0.4286 0.4286 0.0000  plane waves:    5093
 k-point  16 :  -0.4286 0.4286 0.0000  plane waves:    5081
 k-point  17 :  -0.0000 0.0000 0.1250  plane waves:    5083
 k-point  18 :   0.1429 0.0000 0.1250  plane waves:    5090
 k-point  19 :   0.2857 0.0000 0.1250  plane waves:    5089
 k-point  20 :   0.4286 0.0000 0.1250  plane waves:    5088
 k-point  21 :  -0.4286-0.0000 0.1250  plane waves:    5095
 k-point  22 :  -0.2857-0.0000 0.1250  plane waves:    5074
 k-point  23 :  -0.1429-0.0000 0.1250  plane waves:    5056
 k-point  24 :   0.1429 0.1429 0.1250  plane waves:    5098
 k-point  25 :   0.2857 0.1429 0.1250  plane waves:    5101
 k-point  26 :   0.4286 0.1429 0.1250  plane waves:    5107
 k-point  27 :  -0.4286 0.1429 0.1250  plane waves:    5100
 k-point  28 :  -0.2857 0.1429 0.1250  plane waves:    5087
 k-point  29 :  -0.1429 0.1429 0.1250  plane waves:    5100
 k-point  30 :   0.2857 0.2857 0.1250  plane waves:    5105
 k-point  31 :   0.4286 0.2857 0.1250  plane waves:    5102
 k-point  32 :  -0.4286 0.2857 0.1250  plane waves:    5093
 k-point  33 :  -0.2857 0.2857 0.1250  plane waves:    5087
 k-point  34 :  -0.1429 0.2857 0.1250  plane waves:    5093
 k-point  35 :   0.4286 0.4286 0.1250  plane waves:    5089
 k-point  36 :  -0.4286 0.4286 0.1250  plane waves:    5096
 k-point  37 :  -0.2857 0.4286 0.1250  plane waves:    5101
 k-point  38 :  -0.1429 0.4286 0.1250  plane waves:    5107
 k-point  39 :  -0.4286-0.4286 0.1250  plane waves:    5098
 k-point  40 :  -0.2857-0.4286 0.1250  plane waves:    5097
 k-point  41 :  -0.1429-0.4286 0.1250  plane waves:    5095
 k-point  42 :  -0.2857-0.2857 0.1250  plane waves:    5087
 k-point  43 :  -0.1429-0.2857 0.1250  plane waves:    5077
 k-point  44 :  -0.1429-0.1429 0.1250  plane waves:    5055
 k-point  45 :  -0.0000 0.0000 0.2500  plane waves:    5085
 k-point  46 :   0.1429 0.0000 0.2500  plane waves:    5092
 k-point  47 :   0.2857 0.0000 0.2500  plane waves:    5097
 k-point  48 :   0.4286 0.0000 0.2500  plane waves:    5100
 k-point  49 :  -0.4286-0.0000 0.2500  plane waves:    5096
 k-point  50 :  -0.2857-0.0000 0.2500  plane waves:    5081
 k-point  51 :  -0.1429 0.0000 0.2500  plane waves:    5083
 k-point  52 :   0.1429 0.1429 0.2500  plane waves:    5104
 k-point  53 :   0.2857 0.1429 0.2500  plane waves:    5110
 k-point  54 :   0.4286 0.1429 0.2500  plane waves:    5097
 k-point  55 :  -0.4286 0.1429 0.2500  plane waves:    5094
 k-point  56 :  -0.2857 0.1429 0.2500  plane waves:    5099
 k-point  57 :  -0.1429 0.1429 0.2500  plane waves:    5086
 k-point  58 :   0.2857 0.2857 0.2500  plane waves:    5109
 k-point  59 :   0.4286 0.2857 0.2500  plane waves:    5107
 k-point  60 :  -0.4286 0.2857 0.2500  plane waves:    5100
 k-point  61 :  -0.2857 0.2857 0.2500  plane waves:    5115
 k-point  62 :  -0.1429 0.2857 0.2500  plane waves:    5101
 k-point  63 :   0.4286 0.4286 0.2500  plane waves:    5092
 k-point  64 :  -0.4286 0.4286 0.2500  plane waves:    5112
 k-point  65 :  -0.2857 0.4286 0.2500  plane waves:    5102
 k-point  66 :  -0.1429 0.4286 0.2500  plane waves:    5092
 k-point  67 :  -0.4286-0.4286 0.2500  plane waves:    5104
 k-point  68 :  -0.2857-0.4286 0.2500  plane waves:    5100
 k-point  69 :  -0.1429-0.4286 0.2500  plane waves:    5090
 k-point  70 :  -0.2857-0.2857 0.2500  plane waves:    5079
 k-point  71 :  -0.1429-0.2857 0.2500  plane waves:    5070
 k-point  72 :  -0.1429-0.1429 0.2500  plane waves:    5061
 k-point  73 :   0.0000 0.0000 0.3750  plane waves:    5095
 k-point  74 :   0.1429 0.0000 0.3750  plane waves:    5097
 k-point  75 :   0.2857 0.0000 0.3750  plane waves:    5103
 k-point  76 :   0.4286 0.0000 0.3750  plane waves:    5093
 k-point  77 :  -0.4286-0.0000 0.3750  plane waves:    5096
 k-point  78 :  -0.2857-0.0000 0.3750  plane waves:    5089
 k-point  79 :  -0.1429 0.0000 0.3750  plane waves:    5091
 k-point  80 :   0.1429 0.1429 0.3750  plane waves:    5097
 k-point  81 :   0.2857 0.1429 0.3750  plane waves:    5103
 k-point  82 :   0.4286 0.1429 0.3750  plane waves:    5093
 k-point  83 :  -0.4286 0.1429 0.3750  plane waves:    5098
 k-point  84 :  -0.2857 0.1429 0.3750  plane waves:    5104
 k-point  85 :  -0.1429 0.1429 0.3750  plane waves:    5100
 k-point  86 :   0.2857 0.2857 0.3750  plane waves:    5105
 k-point  87 :   0.4286 0.2857 0.3750  plane waves:    5093
 k-point  88 :  -0.4286 0.2857 0.3750  plane waves:    5105
 k-point  89 :  -0.2857 0.2857 0.3750  plane waves:    5103
 k-point  90 :  -0.1429 0.2857 0.3750  plane waves:    5103
 k-point  91 :   0.4286 0.4286 0.3750  plane waves:    5100
 k-point  92 :  -0.4286 0.4286 0.3750  plane waves:    5105
 k-point  93 :  -0.2857 0.4286 0.3750  plane waves:    5102
 k-point  94 :  -0.1429 0.4286 0.3750  plane waves:    5097
 k-point  95 :  -0.4286-0.4286 0.3750  plane waves:    5106
 k-point  96 :  -0.2857-0.4286 0.3750  plane waves:    5098
 k-point  97 :  -0.1429-0.4286 0.3750  plane waves:    5083
 k-point  98 :  -0.2857-0.2857 0.3750  plane waves:    5085
 k-point  99 :  -0.1429-0.2857 0.3750  plane waves:    5084
 k-point 100 :  -0.1429-0.1429 0.3750  plane waves:    5099
 k-point 101 :  -0.0000 0.0000 0.5000  plane waves:    5102
 k-point 102 :   0.1429 0.0000 0.5000  plane waves:    5096
 k-point 103 :   0.2857 0.0000 0.5000  plane waves:    5094
 k-point 104 :   0.4286 0.0000 0.5000  plane waves:    5086
 k-point 105 :   0.1429 0.1429 0.5000  plane waves:    5092
 k-point 106 :   0.2857 0.1429 0.5000  plane waves:    5095
 k-point 107 :   0.4286 0.1429 0.5000  plane waves:    5099
 k-point 108 :  -0.4286 0.1429 0.5000  plane waves:    5106
 k-point 109 :  -0.2857 0.1429 0.5000  plane waves:    5110
 k-point 110 :  -0.1429 0.1429 0.5000  plane waves:    5090
 k-point 111 :   0.2857 0.2857 0.5000  plane waves:    5091
 k-point 112 :   0.4286 0.2857 0.5000  plane waves:    5096
 k-point 113 :  -0.4286 0.2857 0.5000  plane waves:    5103
 k-point 114 :  -0.2857 0.2857 0.5000  plane waves:    5096
 k-point 115 :   0.4286 0.4286 0.5000  plane waves:    5110
 k-point 116 :  -0.4286 0.4286 0.5000  plane waves:    5102

 maximum and minimum number of plane-waves per node :      2582     2499

 maximum number of plane-waves:      5115
 maximum index in each direction: 
   IXMAX=   12   IYMAX=   12   IZMAX=   11
   IXMIN=  -12   IYMIN=  -12   IZMIN=  -12


 parallel 3D FFT for wavefunctions:
    minimum data exchange during FFTs selected (reduces bandwidth)
 parallel 3D FFT for charge:
    minimum data exchange during FFTs selected (reduces bandwidth)


 total amount of memory used by VASP MPI-rank0   329959. kBytes
=======================================================================

   base      :      30000. kBytes
   nonl-proj :     130003. kBytes
   fftplans  :      12490. kBytes
   grid      :       9393. kBytes
   one-center:         77. kBytes
   wavefun   :     147996. kBytes
 
     INWAV:  cpu time    0.0001: real time    0.0000
 Broyden mixing: mesh for mixing (old mesh)
   NGX = 23   NGY = 23   NGZ = 23
  (NGX  = 96   NGY  = 96   NGZ  = 96)
  gives a total of  12167 points

 initial charge density was supplied:
 charge density of overlapping atoms calculated
 number of electron      98.0000000 magnetization 
 keeping initial charge density in first step


--------------------------------------------------------------------------------------------------------


 Maximum index for augmentation-charges        20707 (set IRDMAX)


--------------------------------------------------------------------------------------------------------


 First call to EWALD:  gamma=   0.332
 Maximum number of real-space cells 3x 3x 3
 Maximum number of reciprocal cells 3x 3x 3

    FEWALD:  cpu time    0.0035: real time    0.0035


--------------------------------------- Iteration      1(   1)  ---------------------------------------


    POTLOK:  cpu time    0.1035: real time    0.1053
    SETDIJ:  cpu time    0.5908: real time    0.5948
    TRIAL :  cpu time   16.1499: real time   16.3010
    CORREC:  cpu time    0.0020: real time    0.0020
    --------------------------------------------
      LOOP:  cpu time   16.9371: real time   17.0985

 eigenvalue-minimisations  : 13992
 total energy-change (2. order) : 0.1170978E+04  (-0.6791668E+04)
 number of electron      98.0000000 magnetization 
 augmentation part       98.0000000 magnetization 

 Free energy of the ion-electron system (eV)
  ---------------------------------------------------
  alpha Z        PSCENC =       547.32380647
  Ewald energy   TEWEN  =     -7788.26774153
  -Hartree energ DENC   =     -3617.49616495
  -exchange      EXHF   =         0.00000000
  -V(xc)+E(xc)   XCENC  =       472.34112687
  PAW double counting   =      9166.97638771    -9126.13493418
  entropy T*S    EENTRO =        -0.00062808
  eigenvalues    EBANDS =        -5.93094327
  atomic energy  EATOM  =     11522.16744521
  ---------------------------------------------------
  free energy    TOTEN  =      1170.97835425 eV

  energy without entropy =     1170.97898233  energy(sigma->0) =     1170.97866829


--------------------------------------------------------------------------------------------------------




--------------------------------------- Iteration      1(   2)  ---------------------------------------


    TRIAL :  cpu time   17.0518: real time   17.2117
    CORREC:  cpu time    0.0020: real time    0.0020
    --------------------------------------------
      LOOP:  cpu time   17.0550: real time   17.2169

 eigenvalue-minimisations  : 15336
 total energy-change (2. order) :-0.1323904E+04  (-0.1287685E+04)
 number of electron      98.0000000 magnetization 
 augmentation part       98.0000000 magnetization 

 Free energy of the ion-electron system (eV)
  ---------------------------------------------------
  alpha Z        PSCENC =       547.32380647
  Ewald energy   TEWEN  =     -7788.26774153
  -Hartree energ DENC   =     -3617.49616495
  -exchange      EXHF   =         0.00000000
  -V(xc)+E(xc)   XCENC  =       472.34112687
  PAW double counting   =      9166.97638771    -9126.13493418
  entropy T*S    EENTRO =        -0.00141704
  eigenvalues    EBANDS =     -1329.83441086
  atomic energy  EATOM  =     11522.16744521
  ---------------------------------------------------
  free energy    TOTEN  =      -152.92590231 eV

  energy without entropy =     -152.92448526  energy(sigma->0) =     -152.92519379


--------------------------------------------------------------------------------------------------------




--------------------------------------- Iteration      1(   3)  ---------------------------------------


    TRIAL :  cpu time   18.7683: real time   18.9411
    CORREC:  cpu time    0.0019: real time    0.0019
    --------------------------------------------
      LOOP:  cpu time   18.7715: real time   18.9462

 eigenvalue-minimisations  : 18156
 total energy-change (2. order) :-0.5053673E+02  (-0.4880926E+02)
 number of electron      98.0000000 magnetization 
 augmentation part       98.0000000 magnetization 

 Free energy of the ion-electron system (eV)
  ---------------------------------------------------
  alpha Z        PSCENC =       547.32380647
  Ewald energy   TEWEN  =     -7788.26774153
  -Hartree energ DENC   =     -3617.49616495
  -exchange      EXHF   =         0.00000000
  -V(xc)+E(xc)   XCENC  =       472.34112687
  PAW double counting   =      9166.97638771    -9126.13493418
  entropy T*S    EENTRO =        -0.00131082
  eigenvalues    EBANDS =     -1380.37125175
  atomic energy  EATOM  =     11522.16744521
  ---------------------------------------------------
  free energy    TOTEN  =      -203.46263697 eV

  energy without entropy =     -203.46132615  energy(sigma->0) =     -203.46198156


--------------------------------------------------------------------------------------------------------




--------------------------------------- Iteration      1(   4)  ---------------------------------------


    TRIAL :  cpu time   17.7103: real time   17.8731
    CORREC:  cpu time    0.0020: real time    0.0020
    --------------------------------------------
      LOOP:  cpu time   17.7146: real time   17.8782

 eigenvalue-minimisations  : 16572
 total energy-change (2. order) :-0.9340790E+00  (-0.9262090E+00)
 number of electron      98.0000000 magnetization 
 augmentation part       98.0000000 magnetization 

 Free energy of the ion-electron system (eV)
  ---------------------------------------------------
  alpha Z        PSCENC =       547.32380647
  Ewald energy   TEWEN  =     -7788.26774153
  -Hartree energ DENC   =     -3617.49616495
  -exchange      EXHF   =         0.00000000
  -V(xc)+E(xc)   XCENC  =       472.34112687
  PAW double counting   =      9166.97638771    -9126.13493418
  entropy T*S    EENTRO =        -0.00138169
  eigenvalues    EBANDS =     -1381.30525993
  atomic energy  EATOM  =     11522.16744521
  ---------------------------------------------------
  free energy    TOTEN  =      -204.39671602 eV

  energy without entropy =     -204.39533433  energy(sigma->0) =     -204.39602517


--------------------------------------------------------------------------------------------------------




--------------------------------------- Iteration      1(   5)  ---------------------------------------


    TRIAL :  cpu time   18.6244: real time   18.7960
    CORREC:  cpu time    0.0020: real time    0.0020
    CHARGE:  cpu time    1.4666: real time    1.4765
    --------------------------------------------
      LOOP:  cpu time   20.0949: real time   20.2773

 eigenvalue-minimisations  : 17748
 total energy-change (2. order) :-0.2399399E-01  (-0.2395428E-01)
 number of electron      98.0000001 magnetization 
 augmentation part       13.4821575 magnetization 

 Free energy of the ion-electron system (eV)
  ---------------------------------------------------
  alpha Z        PSCENC =       547.32380647
  Ewald energy   TEWEN  =     -7788.26774153
  -Hartree energ DENC   =     -3617.49616495
  -exchange      EXHF   =         0.00000000
  -V(xc)+E(xc)   XCENC  =       472.34112687
  PAW double counting   =      9166.97638771    -9126.13493418
  entropy T*S    EENTRO =        -0.00138763
  eigenvalues    EBANDS =     -1381.32924798
  atomic energy  EATOM  =     11522.16744521
  ---------------------------------------------------
  free energy    TOTEN  =      -204.42071001 eV

  energy without entropy =     -204.41932238  energy(sigma->0) =     -204.42001619


--------------------------------------------------------------------------------------------------------




--------------------------------------- Iteration      1(   6)  ---------------------------------------


    POTLOK:  cpu time    0.1027: real time    0.1034
    SETDIJ:  cpu time    0.5930: real time    0.5971
    TRIAL :  cpu time   12.1772: real time   12.2805
    CORREC:  cpu time    4.8008: real time    4.8387
    CHARGE:  cpu time    1.4802: real time    1.4915
    --------------------------------------------
      LOOP:  cpu time   19.1549: real time   19.3128

 eigenvalue-minimisations  :     0
 total energy-change (2. order) : 0.6192567E+02  (-0.1492829E+02)
 number of electron      98.0000001 magnetization 
 augmentation part       14.5329250 magnetization 

 Free energy of the ion-electron system (eV)
  ---------------------------------------------------
  alpha Z        PSCENC =       547.32380647
  Ewald energy   TEWEN  =     -7788.26774153
  -Hartree energ DENC   =     -3526.06577817
  -exchange      EXHF   =         0.00000000
  -V(xc)+E(xc)   XCENC  =       482.24331535
  PAW double counting   =     18720.49533041   -18710.61244575
  entropy T*S    EENTRO =        -0.00181595
  eigenvalues    EBANDS =     -1389.77758377
  atomic energy  EATOM  =     11522.16744521
  ---------------------------------------------------
  free energy    TOTEN  =      -142.49503942 eV

  energy without entropy =     -142.49322347  energy(sigma->0) =     -142.49413145


--------------------------------------------------------------------------------------------------------




--------------------------------------- Iteration      1(   7)  ---------------------------------------


    POTLOK:  cpu time    0.0988: real time    0.0994
    SETDIJ:  cpu time    0.5904: real time    0.5940
    TRIAL :  cpu time   12.3058: real time   12.4110
    CORREC:  cpu time    4.9110: real time    4.9485
    CHARGE:  cpu time    1.4458: real time    1.4552
    --------------------------------------------
      LOOP:  cpu time   19.3523: real time   19.5099

 eigenvalue-minimisations  :     0
 total energy-change (2. order) :-0.1494307E+02  (-0.2718925E+01)
 number of electron      98.0000001 magnetization 
 augmentation part       14.5547016 magnetization 

 Free energy of the ion-electron system (eV)
  ---------------------------------------------------
  alpha Z        PSCENC =       547.32380647
  Ewald energy   TEWEN  =     -7788.26774153
  -Hartree energ DENC   =     -3587.96525553
  -exchange      EXHF   =         0.00000000
  -V(xc)+E(xc)   XCENC  =       485.88728273
  PAW double counting   =     17961.90511333   -17944.02237705
  entropy T*S    EENTRO =        -0.00184450
  eigenvalues    EBANDS =     -1354.46456992
  atomic energy  EATOM  =     11522.16744521
  ---------------------------------------------------
  free energy    TOTEN  =      -157.43811224 eV

  energy without entropy =     -157.43626774  energy(sigma->0) =     -157.43718999


--------------------------------------------------------------------------------------------------------




--------------------------------------- Iteration      1(   8)  ---------------------------------------


    POTLOK:  cpu time    0.0957: real time    0.0962
    SETDIJ:  cpu time    0.5862: real time    0.5898
    TRIAL :  cpu time   12.2496: real time   12.3560
    CORREC:  cpu time    4.8082: real time    4.8442
    CHARGE:  cpu time    1.4432: real time    1.4529
    --------------------------------------------
      LOOP:  cpu time   19.1841: real time   19.3409

 eigenvalue-minimisations  :     0
 total energy-change (2. order) :-0.2727271E+01  (-0.6341403E+00)
 number of electron      98.0000001 magnetization 
 augmentation part       14.5924232 magnetization 

 Free energy of the ion-electron system (eV)
  ---------------------------------------------------
  alpha Z        PSCENC =       547.32380647
  Ewald energy   TEWEN  =     -7788.26774153
  -Hartree energ DENC   =     -3594.56363539
  -exchange      EXHF   =         0.00000000
  -V(xc)+E(xc)   XCENC  =       486.28547215
  PAW double counting   =     17470.03427256   -17448.99216776
  entropy T*S    EENTRO =        -0.00134936
  eigenvalues    EBANDS =     -1354.15099068
  atomic energy  EATOM  =     11522.16744521
  ---------------------------------------------------
  free energy    TOTEN  =      -160.16538347 eV

  energy without entropy =     -160.16403411  energy(sigma->0) =     -160.16470879


--------------------------------------------------------------------------------------------------------




--------------------------------------- Iteration      1(   9)  ---------------------------------------


    POTLOK:  cpu time    0.0964: real time    0.0971
    SETDIJ:  cpu time    0.5818: real time    0.5858
    TRIAL :  cpu time   12.2106: real time   12.3145
    CORREC:  cpu time    4.8812: real time    4.9185
    CHARGE:  cpu time    1.4548: real time    1.4652
    --------------------------------------------
      LOOP:  cpu time   19.2265: real time   19.3835

 eigenvalue-minimisations  :     0
 total energy-change (2. order) :-0.6366178E+00  (-0.2783592E+00)
 number of electron      98.0000001 magnetization 
 augmentation part       14.5762954 magnetization 

 Free energy of the ion-electron system (eV)
  ---------------------------------------------------
  alpha Z        PSCENC =       547.32380647
  Ewald energy   TEWEN  =     -7788.26774153
  -Hartree energ DENC   =     -3599.04046559
  -exchange      EXHF   =         0.00000000
  -V(xc)+E(xc)   XCENC  =       486.50930058
  PAW double counting   =     17227.38751078   -17204.77058753
  entropy T*S    EENTRO =        -0.00107671
  eigenvalues    EBANDS =     -1352.10992031
  atomic energy  EATOM  =     11522.16744521
  ---------------------------------------------------
  free energy    TOTEN  =      -160.80200129 eV

  energy without entropy =     -160.80092457  energy(sigma->0) =     -160.80146293


--------------------------------------------------------------------------------------------------------




--------------------------------------- Iteration      1(  10)  ---------------------------------------


    POTLOK:  cpu time    0.0967: real time    0.0973
    SETDIJ:  cpu time    0.5943: real time    0.5980
    TRIAL :  cpu time   12.2556: real time   12.3573
    CORREC:  cpu time    4.8508: real time    4.8874
    CHARGE:  cpu time    1.4703: real time    1.4796
    --------------------------------------------
      LOOP:  cpu time   19.2690: real time   19.4214

 eigenvalue-minimisations  :     0
 total energy-change (2. order) :-0.2783532E+00  (-0.1103615E+00)
 number of electron      98.0000001 magnetization 
 augmentation part       14.5617575 magnetization 

 Free energy of the ion-electron system (eV)
  ---------------------------------------------------
  alpha Z        PSCENC =       547.32380647
  Ewald energy   TEWEN  =     -7788.26774153
  -Hartree energ DENC   =     -3599.01540981
  -exchange      EXHF   =         0.00000000
  -V(xc)+E(xc)   XCENC  =       486.58025761
  PAW double counting   =     17082.94658236   -17059.63379214
  entropy T*S    EENTRO =        -0.00116231
  eigenvalues    EBANDS =     -1353.18042594
  atomic energy  EATOM  =     11522.16744521
  ---------------------------------------------------
  free energy    TOTEN  =      -161.08035449 eV

  energy without entropy =     -161.07919218  energy(sigma->0) =     -161.07977334


--------------------------------------------------------------------------------------------------------




--------------------------------------- Iteration      1(  11)  ---------------------------------------


    POTLOK:  cpu time    0.0968: real time    0.0974
    SETDIJ:  cpu time    0.5806: real time    0.5843
    TRIAL :  cpu time   12.2968: real time   12.4008
    CORREC:  cpu time    4.8900: real time    4.9258
    CHARGE:  cpu time    1.4335: real time    1.4423
    --------------------------------------------
      LOOP:  cpu time   19.3006: real time   19.4541

 eigenvalue-minimisations  :     0
[...]
     10     -28.2351      2.00000
     11     -27.5671      2.00000
     12     -27.3684      2.00000
     13     -27.1098      2.00000
     14     -26.8711      2.00000
     15     -26.8172      2.00000
     16     -26.7712      2.00000
     17     -26.7676      2.00000
     18     -26.7510      2.00000
     19     -26.4900      2.00000
     20     -26.4460      2.00000
     21     -26.3482      2.00000
     22     -25.3420      2.00000
     23     -24.8269      2.00000
     24     -24.0779      2.00000
     25      -0.2836      2.00000
     26       1.1247      2.00000
     27       1.7176      2.00000
     28       1.9712      2.00000
     29       2.7743      2.00000
     30       2.8230      2.00000
     31       3.3160      2.00000
     32       3.6011      2.00000
     33       3.6995      2.00000
     34       4.2443      2.00000
     35       4.3638      2.00000
     36       4.5425      2.00000
     37       5.2024      2.00000
     38       5.3221      2.00000
     39       6.1850      2.00000
     40       6.2499      2.00000
     41       6.8434      2.00000
     42       7.0357      2.00000
     43       7.4032      2.00000
     44       7.7421      2.00000
     45       7.9209      2.00000
     46       8.5182      2.00000
     47       8.5955      2.00000
     48       9.0878      2.00000
     49       9.2529      2.00000
     50       9.6158      0.00000
     51      10.1714      0.00000
     52      10.2431      0.00000
     53      10.7978      0.00000
     54      11.0577      0.00000
     55      11.2487      0.00000
     56      11.6142      0.00000
     57      11.9309      0.00000
     58      12.2719      0.00000
     59      12.2738      0.00000
     60      12.9923      0.00000

 k-point   110 :      -0.1429    0.1429    0.5000
  band No.  band energies     occupation 
      1     -54.1842      2.00000
      2     -54.0579      2.00000
      3     -53.5337      2.00000
      4     -53.5104      2.00000
      5     -52.7767      2.00000
      6     -52.6344      2.00000
      7     -30.4166      2.00000
      8     -30.1364      2.00000
      9     -28.8678      2.00000
     10     -27.6517      2.00000
     11     -27.5749      2.00000
     12     -27.5352      2.00000
     13     -27.4030      2.00000
     14     -26.8780      2.00000
     15     -26.8769      2.00000
     16     -26.8318      2.00000
     17     -26.7724      2.00000
     18     -26.7655      2.00000
     19     -26.5271      2.00000
     20     -26.4411      2.00000
     21     -26.3750      2.00000
     22     -25.9333      2.00000
     23     -24.3775      2.00000
     24     -23.9841      2.00000
     25      -0.3982      2.00000
     26       1.5296      2.00000
     27       1.8172      2.00000
     28       1.9516      2.00000
     29       2.7757      2.00000
     30       3.0616      2.00000
     31       3.4876      2.00000
     32       3.4996      2.00000
     33       3.5204      2.00000
     34       4.0281      2.00000
     35       4.2403      2.00000
     36       4.4185      2.00000
     37       4.7515      2.00000
     38       5.7088      2.00000
     39       5.7105      2.00000
     40       5.8503      2.00000
     41       7.1247      2.00000
     42       7.1391      2.00000
     43       7.8893      2.00000
     44       7.9469      2.00000
     45       7.9942      2.00000
     46       8.3352      2.00000
     47       8.5303      2.00000
     48       8.7028      2.00000
     49       9.8040      0.00000
     50       9.8957      0.00000
     51      10.0312      0.00000
     52      10.1033      0.00000
     53      10.7114      0.00000
     54      10.7232      0.00000
     55      11.1911      0.00000
     56      11.5398      0.00000
     57      11.8772      0.00000
     58      12.2312      0.00000
     59      12.2752      0.00000
     60      13.5558      0.00000

 k-point   111 :       0.2857    0.2857    0.5000
  band No.  band energies     occupation 
      1     -54.3080      2.00000
      2     -53.8823      2.00000
      3     -53.5337      2.00000
      4     -53.4782      2.00000
      5     -52.9908      2.00000
      6     -52.5045      2.00000
      7     -30.4346      2.00000
      8     -29.8491      2.00000
      9     -29.3556      2.00000
     10     -27.6508      2.00000
     11     -27.6059      2.00000
     12     -27.4799      2.00000
     13     -27.3013      2.00000
     14     -26.9761      2.00000
     15     -26.8088      2.00000
     16     -26.8013      2.00000
     17     -26.7763      2.00000
     18     -26.7353      2.00000
     19     -26.5840      2.00000
     20     -26.5352      2.00000
     21     -26.2895      2.00000
     22     -25.4052      2.00000
     23     -24.7859      2.00000
     24     -23.9731      2.00000
     25       0.1036      2.00000
     26       0.3705      2.00000
     27       1.1724      2.00000
     28       2.3772      2.00000
     29       2.4617      2.00000
     30       2.9838      2.00000
     31       3.3301      2.00000
     32       3.5557      2.00000
     33       3.9237      2.00000
     34       3.9825      2.00000
     35       4.4289      2.00000
     36       4.7564      2.00000
     37       5.1984      2.00000
     38       5.9144      2.00000
     39       6.3917      2.00000
     40       6.4673      2.00000
     41       6.5545      2.00000
     42       7.6064      2.00000
     43       7.7222      2.00000
     44       7.7468      2.00000
     45       8.5125      2.00000
     46       8.5684      2.00000
     47       8.7904      2.00000
     48       9.0195      2.00000
     49       9.2298      2.00000
     50       9.2331      2.00000
     51      10.0974      0.00000
     52      10.1439      0.00000
     53      10.3386      0.00000
     54      10.4605      0.00000
     55      10.8992      0.00000
     56      11.7583      0.00000
     57      11.9102      0.00000
     58      12.3499      0.00000
     59      12.3838      0.00000
     60      12.6038      0.00000

 k-point   112 :       0.4286    0.2857    0.5000
  band No.  band energies     occupation 
      1     -54.3460      2.00000
      2     -53.7990      2.00000
      3     -53.5281      2.00000
      4     -53.4696      2.00000
      5     -53.0947      2.00000
      6     -52.4600      2.00000
      7     -30.3739      2.00000
      8     -30.1763      2.00000
      9     -28.8129      2.00000
     10     -28.2045      2.00000
     11     -27.6426      2.00000
     12     -27.2382      2.00000
     13     -27.1218      2.00000
     14     -26.8250      2.00000
     15     -26.7838      2.00000
     16     -26.7693      2.00000
     17     -26.7685      2.00000
     18     -26.7304      2.00000
     19     -26.6449      2.00000
     20     -26.5141      2.00000
     21     -26.2666      2.00000
     22     -26.0559      2.00000
     23     -24.3467      2.00000
     24     -24.0663      2.00000
     25       0.1034      2.00000
     26       0.3544      2.00000
     27       1.2764      2.00000
     28       2.1885      2.00000
     29       2.6349      2.00000
     30       2.8222      2.00000
     31       2.9485      2.00000
     32       3.4821      2.00000
     33       3.8977      2.00000
     34       4.0149      2.00000
     35       4.4826      2.00000
     36       4.8574      2.00000
     37       5.2395      2.00000
     38       5.8807      2.00000
     39       6.1298      2.00000
     40       6.3784      2.00000
     41       6.9423      2.00000
     42       7.4156      2.00000
     43       7.5677      2.00000
     44       8.2624      2.00000
     45       8.4157      2.00000
     46       8.4737      2.00000
     47       8.9775      2.00000
     48       9.2213      2.00000
     49       9.3888      2.00000
     50       9.6696      0.00000
     51       9.9580      0.00000
     52      10.2243      0.00000
     53      10.4035      0.00000
     54      10.6960      0.00000
     55      10.8290      0.00000
     56      11.2520      0.00000
     57      12.0138      0.00000
     58      12.3244      0.00000
     59      12.6167      0.00000
     60      12.6511      0.00000

 k-point   113 :      -0.4286    0.2857    0.5000
  band No.  band energies     occupation 
      1     -54.3458      2.00000
      2     -53.7992      2.00000
      3     -53.5281      2.00000
      4     -53.4696      2.00000
      5     -53.0950      2.00000
      6     -52.4597      2.00000
      7     -30.3736      2.00000
      8     -30.1763      2.00000
      9     -28.8132      2.00000
     10     -28.2045      2.00000
     11     -27.6487      2.00000
     12     -27.2319      2.00000
     13     -27.1219      2.00000
     14     -26.8249      2.00000
     15     -26.7839      2.00000
     16     -26.7684      2.00000
     17     -26.7677      2.00000
     18     -26.7317      2.00000
     19     -26.6425      2.00000
     20     -26.5141      2.00000
     21     -26.2693      2.00000
     22     -26.0561      2.00000
     23     -24.3467      2.00000
     24     -24.0663      2.00000
     25      -0.0955      2.00000
     26       0.5827      2.00000
     27       1.6171      2.00000
     28       2.1968      2.00000
     29       2.5996      2.00000
     30       2.7188      2.00000
     31       2.8433      2.00000
     32       3.4749      2.00000
     33       3.8769      2.00000
     34       3.9467      2.00000
     35       3.9999      2.00000
     36       5.1318      2.00000
     37       5.5680      2.00000
     38       5.6678      2.00000
     39       6.1933      2.00000
     40       6.2370      2.00000
     41       6.5571      2.00000
     42       7.3925      2.00000
     43       7.5635      2.00000
     44       8.2690      2.00000
     45       8.3482      2.00000
     46       8.4425      2.00000
     47       8.9062      2.00000
     48       9.3662      2.00000
     49       9.4181      1.99999
     50      10.0326      0.00000
     51      10.1138      0.00000
     52      10.1603      0.00000
     53      10.6224      0.00000
     54      10.7193      0.00000
     55      10.8198      0.00000
     56      11.1148      0.00000
     57      12.0589      0.00000
     58      12.4446      0.00000
     59      12.4549      0.00000
     60      12.6197      0.00000

 k-point   114 :      -0.2857    0.2857    0.5000
  band No.  band energies     occupation 
      1     -54.3073      2.00000
      2     -53.8830      2.00000
      3     -53.5338      2.00000
      4     -53.4781      2.00000
      5     -52.9916      2.00000
      6     -52.5037      2.00000
      7     -30.4340      2.00000
      8     -29.8488      2.00000
      9     -29.3562      2.00000
     10     -27.6511      2.00000
     11     -27.6228      2.00000
     12     -27.4801      2.00000
     13     -27.2840      2.00000
     14     -26.9764      2.00000
     15     -26.8085      2.00000
     16     -26.8010      2.00000
     17     -26.7719      2.00000
     18     -26.7392      2.00000
     19     -26.5768      2.00000
     20     -26.5353      2.00000
     21     -26.2972      2.00000
     22     -25.4054      2.00000
     23     -24.7859      2.00000
     24     -23.9731      2.00000
     25      -0.2258      2.00000
     26       0.8452      2.00000
     27       1.8667      2.00000
     28       2.3470      2.00000
     29       2.4020      2.00000
     30       2.6763      2.00000
     31       3.0205      2.00000
     32       3.4197      2.00000
     33       3.8621      2.00000
     34       3.8929      2.00000
     35       4.0951      2.00000
     36       4.8197      2.00000
     37       5.7902      2.00000
     38       5.8386      2.00000
     39       5.9789      2.00000
     40       6.1237      2.00000
     41       6.6288      2.00000
     42       7.1015      2.00000
     43       7.2287      2.00000
     44       7.8908      2.00000
     45       8.1164      2.00000
     46       8.8544      2.00000
     47       8.9397      2.00000
     48       9.0623      2.00000
     49       9.1427      2.00000
     50      10.0366      0.00000
     51      10.2116      0.00000
     52      10.5405      0.00000
     53      10.7157      0.00000
     54      10.8003      0.00000
     55      11.1130      0.00000
     56      11.1498      0.00000
     57      11.6221      0.00000
     58      12.5089      0.00000
     59      12.5542      0.00000
     60      12.8011      0.00000

 k-point   115 :       0.4286    0.4286    0.5000
  band No.  band energies     occupation 
      1     -54.3898      2.00000
      2     -53.6278      2.00000
      3     -53.5339      2.00000
      4     -53.4623      2.00000
      5     -53.2781      2.00000
      6     -52.4051      2.00000
      7     -30.4480      2.00000
      8     -30.3813      2.00000
      9     -28.1909      2.00000
     10     -27.6812      2.00000
     11     -27.6504      2.00000
     12     -27.3573      2.00000
     13     -27.1398      2.00000
     14     -27.1035      2.00000
     15     -26.7901      2.00000
     16     -26.7886      2.00000
     17     -26.7721      2.00000
     18     -26.7592      2.00000
     19     -26.7374      2.00000
     20     -26.7260      2.00000
     21     -26.5404      2.00000
     22     -26.2351      2.00000
     23     -24.0610      2.00000
     24     -23.9643      2.00000
     25      -0.0019      2.00000
     26       0.3825      2.00000
     27       1.5831      2.00000
     28       1.9755      2.00000
     29       2.6379      2.00000
     30       2.6794      2.00000
     31       3.1204      2.00000
     32       3.1805      2.00000
     33       3.7112      2.00000
     34       3.8256      2.00000
     35       3.8390      2.00000
     36       5.4128      2.00000
     37       5.6251      2.00000
     38       5.6715      2.00000
     39       6.0683      2.00000
     40       6.1571      2.00000
     41       6.8841      2.00000
     42       6.9304      2.00000
     43       8.2500      2.00000
     44       8.5783      2.00000
     45       8.9379      2.00000
     46       9.3634      2.00000
     47       9.3951      2.00000
     48       9.4231      1.99996
     49       9.4376      1.99788
     50       9.6464      0.00000
     51      10.0018      0.00000
     52      10.0494      0.00000
     53      10.2605      0.00000
     54      10.3448      0.00000
     55      10.7925      0.00000
     56      10.9961      0.00000
     57      11.9897      0.00000
     58      12.0180      0.00000
     59      12.1999      0.00000
     60      12.9154      0.00000

 k-point   116 :      -0.4286    0.4286    0.5000
  band No.  band energies     occupation 
      1     -54.3897      2.00000
      2     -53.6279      2.00000
      3     -53.5338      2.00000
      4     -53.4623      2.00000
      5     -53.2783      2.00000
      6     -52.4050      2.00000
      7     -30.4478      2.00000
      8     -30.3814      2.00000
      9     -28.1911      2.00000
     10     -27.6834      2.00000
     11     -27.6503      2.00000
     12     -27.3573      2.00000
     13     -27.1374      2.00000
     14     -27.1036      2.00000
     15     -26.7901      2.00000
     16     -26.7885      2.00000
     17     -26.7714      2.00000
     18     -26.7593      2.00000
     19     -26.7368      2.00000
     20     -26.7265      2.00000
     21     -26.5405      2.00000
     22     -26.2361      2.00000
     23     -24.0611      2.00000
     24     -23.9642      2.00000
     25      -0.0680      2.00000
     26       0.4420      2.00000
     27       1.8209      2.00000
     28       1.9782      2.00000
     29       2.6013      2.00000
     30       2.6454      2.00000
     31       3.1074      2.00000
     32       3.1797      2.00000
     33       3.5315      2.00000
     34       3.7028      2.00000
     35       3.8288      2.00000
     36       5.3376      2.00000
     37       5.8773      2.00000
     38       5.9171      2.00000
     39       5.9598      2.00000
     40       6.0131      2.00000
     41       6.7315      2.00000
     42       6.8630      2.00000
     43       8.2455      2.00000
     44       8.5734      2.00000
     45       8.9099      2.00000
     46       9.3643      2.00000
     47       9.4206      1.99998
     48       9.4337      1.99918
     49       9.4420      1.99424
     50       9.6773      0.00000
     51       9.9792      0.00000
     52      10.0424      0.00000
     53      10.3403      0.00000
     54      10.4292      0.00000
     55      10.7995      0.00000
     56      11.0424      0.00000
     57      11.9983      0.00000
     58      12.0073      0.00000
     59      12.2009      0.00000
     60      12.8983      0.00000


--------------------------------------------------------------------------------------------------------


 soft charge-density along one line, spin component           1
         0         1         2         3         4         5         6         7         8         9
 total charge-density along one line
 
 pseudopotential strength for first ion, spin component:           1
  5.932   8.984   0.000   0.000  -0.000   0.000   0.000  -0.000
  8.984  13.596   0.000   0.000  -0.000   0.000   0.000  -0.000
  0.000   0.000  -1.942  -0.007   0.004  -3.231  -0.014   0.008
  0.000   0.000  -0.007  -1.939  -0.005  -0.014  -3.226  -0.010
 -0.000  -0.000   0.004  -0.005  -1.945   0.008  -0.010  -3.237
  0.000   0.000  -3.231  -0.014   0.008  -5.163  -0.026   0.015
  0.000   0.000  -0.014  -3.226  -0.010  -0.026  -5.154  -0.018
 -0.000  -0.000   0.008  -0.010  -3.237   0.015  -0.018  -5.174
 total augmentation occupancy for first ion, spin component:           1
  3.484  -0.776   0.000   0.000  -0.000   0.000   0.000  -0.000
 -0.776   0.195   0.000   0.000   0.000   0.000  -0.000   0.000
  0.000  -0.000   2.309   0.450  -0.264  -0.575  -0.124   0.073
  0.000  -0.000   0.450   2.152   0.314  -0.124  -0.532  -0.086
 -0.000  -0.000  -0.264   0.314   2.503   0.073  -0.086  -0.629
  0.000  -0.000  -0.575  -0.124   0.073   0.150   0.037  -0.022
 -0.000   0.000  -0.124  -0.532  -0.086   0.037   0.137   0.026
 -0.000   0.000   0.073  -0.086  -0.629  -0.022   0.026   0.166


------------------------ aborting loop because EDIFF is reached ----------------------------------------




--------------------------------------------------------------------------------------------------------



  FREE ENERGIE OF THE ION-ELECTRON SYSTEM (eV)
  ---------------------------------------------------
  free  energy   TOTEN  =      -161.25553367 eV

  energy  without entropy=     -161.25439176  energy(sigma->0) =     -161.25496271
 


--------------------------------------------------------------------------------------------------------


    POTLOK:  cpu time    0.7190: real time    0.7241


--------------------------------------------------------------------------------------------------------


 writing wavefunctions
     LOOP+:  cpu time  887.6773: real time  894.9239
    4ORBIT:  cpu time    0.0000: real time    0.0000

 total amount of memory used by VASP MPI-rank0   329959. kBytes
=======================================================================

   base      :      30000. kBytes
   nonl-proj :     130003. kBytes
   fftplans  :      12490. kBytes
   grid      :       9393. kBytes
   one-center:         77. kBytes
   wavefun   :     147996. kBytes
 
  
  
 General timing and accounting informations for this job:
 ========================================================
  
                  Total CPU time used (sec):      892.048
                            User time (sec):      888.134
                          System time (sec):        3.913
                         Elapsed time (sec):      900.353
  
                   Maximum memory used (kb):      546168.
                   Average memory used (kb):          N/A
  
                          Minor page faults:      1166503
                          Major page faults:           33
                 Voluntary context switches:         1139
