<?xml version="1.0" encoding="ISO-8859-1"?>
<modeling>
 <generator>
  <i name="program" type="string">vasp </i>
  <i name="version" type="string">6.2.0  </i>
  <i name="subversion" type="string">18Jan21 (build Jan 05 2022 15:41:44) complex                          parallel </i>
  <i name="platform" type="string">LinuxIFC </i>
  <i name="date" type="string">2025 05 07 </i>
  <i name="time" type="string">19:20:04 </i>
 </generator>
 <incar>
  <i type="string" name="SYSTEM">routine with relax: pwdword</i>
  <i type="string" name="PREC">Acc</i>
  <i type="int" name="IALGO">    38</i>
  <i type="string" name="ALGO">A</i>
  <i type="logical" name="ADDGRID"> T  </i>
  <i type="int" name="ICHARG">     2</i>
  <i type="int" name="NELM">   100</i>
  <i type="int" name="NELMIN">     6</i>
  <i name="EDIFF">      0.00000000</i>
  <i type="int" name="NSW">     0</i>
  <i type="int" name="ISIF">    -1</i>
  <i name="ENCUT">    600.00000000</i>
  <i type="logical" name="LREAL"> F  </i>
  <i type="int" name="ISMEAR">     0</i>
  <i name="SIGMA">      0.02000000</i>
  <i type="logical" name="LASPH"> T  </i>
  <i type="string" name="METAGGA">R2SCAN</i>
  <i type="logical" name="LMIXTAU"> F  </i>
 </incar>
 <primitive_cell>
  <structure name="primitive_cell" >
   <crystal>
    <varray name="basis" >
     <v>       5.54806895       0.00000000      -3.16212474 </v>
     <v>      -1.87320924       5.22227501      -3.16212474 </v>
     <v>       0.00000000       0.00000000       6.38593000 </v>
    </varray>
    <i name="volume">    185.02300990 </i>
    <varray name="rec_basis" >
     <v>       0.18024289       0.06465241       0.00000000 </v>
     <v>       0.00000000       0.19148743       0.00000000 </v>
     <v>       0.08925098       0.12683291       0.15659426 </v>
    </varray>
   </crystal>
   <varray name="positions" >
    <v>       0.24194000       0.25806000       0.50000000 </v>
    <v>       0.75806000       0.74194000       0.50000000 </v>
    <v>       0.25806000       0.75806000       0.01612000 </v>
    <v>       0.74194000       0.24194000       0.98388000 </v>
    <v>       0.00000000       0.00000000       0.00000000 </v>
    <v>       0.00000000       0.50000000       0.50000000 </v>
    <v>       0.50000000       0.00000000       0.50000000 </v>
    <v>       0.50000000       0.50000000       1.00000000 </v>
    <v>       0.25000000       0.25000000       1.00000000 </v>
    <v>       0.75000000       0.75000000       1.00000000 </v>
   </varray>
  </structure>
  <varray name="primitive_index" >
   <v type="int" >        1 </v>
   <v type="int" >        2 </v>
   <v type="int" >        3 </v>
   <v type="int" >        4 </v>
   <v type="int" >        5 </v>
   <v type="int" >        6 </v>
   <v type="int" >        7 </v>
   <v type="int" >        8 </v>
   <v type="int" >        9 </v>
   <v type="int" >       10 </v>
  </varray>
 </primitive_cell>
 <kpoints>
  <generation param="Gamma">
   <v type="int" name="divisions">       7        7        8 </v>
   <v name="usershift">      0.00000000       0.00000000       0.00000000 </v>
   <v name="genvec1">      0.14285714      -0.00000000       0.00000000 </v>
   <v name="genvec2">      0.00000000       0.14285714       0.00000000 </v>
   <v name="genvec3">      0.00000000      -0.00000000       0.12500000 </v>
   <v name="shift">      0.00000000       0.00000000       0.00000000 </v>
  </generation>
  <varray name="kpointlist" >
   <v>       0.00000000       0.00000000       0.00000000 </v>
   <v>       0.14285714       0.00000000       0.00000000 </v>
   <v>       0.28571429       0.00000000       0.00000000 </v>
   <v>       0.42857143      -0.00000000       0.00000000 </v>
   <v>       0.14285714       0.14285714       0.00000000 </v>
   <v>       0.28571429       0.14285714       0.00000000 </v>
   <v>       0.42857143       0.14285714       0.00000000 </v>
   <v>      -0.42857143       0.14285714       0.00000000 </v>
   <v>      -0.28571429       0.14285714       0.00000000 </v>
   <v>      -0.14285714       0.14285714       0.00000000 </v>
   <v>       0.28571429       0.28571429       0.00000000 </v>
   <v>       0.42857143       0.28571429       0.00000000 </v>
   <v>      -0.42857143       0.28571429       0.00000000 </v>
   <v>      -0.28571429       0.28571429       0.00000000 </v>
   <v>       0.42857143       0.42857143       0.00000000 </v>
   <v>      -0.42857143       0.42857143       0.00000000 </v>
   <v>       0.00000000      -0.00000000       0.12500000 </v>
   <v>       0.14285714      -0.00000000       0.12500000 </v>
   <v>       0.28571429      -0.00000000       0.12500000 </v>
   <v>       0.42857143       0.00000000       0.12500000 </v>
   <v>      -0.42857143      -0.00000000       0.12500000 </v>
   <v>      -0.28571429      -0.00000000       0.12500000 </v>
   <v>      -0.14285714      -0.00000000       0.12500000 </v>
   <v>       0.14285714       0.14285714       0.12500000 </v>
   <v>       0.28571429       0.14285714       0.12500000 </v>
   <v>       0.42857143       0.14285714       0.12500000 </v>
   <v>      -0.42857143       0.14285714       0.12500000 </v>
   <v>      -0.28571429       0.14285714       0.12500000 </v>
   <v>      -0.14285714       0.14285714       0.12500000 </v>
   <v>       0.28571429       0.28571429       0.12500000 </v>
   <v>       0.42857143       0.28571429       0.12500000 </v>
   <v>      -0.42857143       0.28571429       0.12500000 </v>
   <v>      -0.28571429       0.28571429       0.12500000 </v>
   <v>      -0.14285714       0.28571429       0.12500000 </v>
   <v>       0.42857143       0.42857143       0.12500000 </v>
   <v>      -0.42857143       0.42857143       0.12500000 </v>
   <v>      -0.28571429       0.42857143       0.12500000 </v>
   <v>      -0.14285714       0.42857143       0.12500000 </v>
   <v>      -0.42857143      -0.42857143       0.12500000 </v>
   <v>      -0.28571429      -0.42857143       0.12500000 </v>
   <v>      -0.14285714      -0.42857143       0.12500000 </v>
   <v>      -0.28571429      -0.28571429       0.12500000 </v>
   <v>      -0.14285714      -0.28571429       0.12500000 </v>
   <v>      -0.14285714      -0.14285714       0.12500000 </v>
   <v>       0.00000000      -0.00000000       0.25000000 </v>
   <v>       0.14285714      -0.00000000       0.25000000 </v>
   <v>       0.28571429      -0.00000000       0.25000000 </v>
   <v>       0.42857143       0.00000000       0.25000000 </v>
   <v>      -0.42857143       0.00000000       0.25000000 </v>
   <v>      -0.28571429      -0.00000000       0.25000000 </v>
   <v>      -0.14285714       0.00000000       0.25000000 </v>
   <v>       0.14285714       0.14285714       0.25000000 </v>
   <v>       0.28571429       0.14285714       0.25000000 </v>
   <v>       0.42857143       0.14285714       0.25000000 </v>
   <v>      -0.42857143       0.14285714       0.25000000 </v>
   <v>      -0.28571429       0.14285714       0.25000000 </v>
   <v>      -0.14285714       0.14285714       0.25000000 </v>
   <v>       0.28571429       0.28571429       0.25000000 </v>
   <v>       0.42857143       0.28571429       0.25000000 </v>
   <v>      -0.42857143       0.28571429       0.25000000 </v>
   <v>      -0.28571429       0.28571429       0.25000000 </v>
   <v>      -0.14285714       0.28571429       0.25000000 </v>
   <v>       0.42857143       0.42857143       0.25000000 </v>
   <v>      -0.42857143       0.42857143       0.25000000 </v>
   <v>      -0.28571429       0.42857143       0.25000000 </v>
   <v>      -0.14285714       0.42857143       0.25000000 </v>
   <v>      -0.42857143      -0.42857143       0.25000000 </v>
   <v>      -0.28571429      -0.42857143       0.25000000 </v>
   <v>      -0.14285714      -0.42857143       0.25000000 </v>
   <v>      -0.28571429      -0.28571429       0.25000000 </v>
   <v>      -0.14285714      -0.28571429       0.25000000 </v>
   <v>      -0.14285714      -0.14285714       0.25000000 </v>
   <v>       0.00000000       0.00000000       0.37500000 </v>
   <v>       0.14285714       0.00000000       0.37500000 </v>
   <v>       0.28571429      -0.00000000       0.37500000 </v>
   <v>       0.42857143       0.00000000       0.37500000 </v>
   <v>      -0.42857143      -0.00000000       0.37500000 </v>
   <v>      -0.28571429       0.00000000       0.37500000 </v>
   <v>      -0.14285714      -0.00000000       0.37500000 </v>
   <v>       0.14285714       0.14285714       0.37500000 </v>
   <v>       0.28571429       0.14285714       0.37500000 </v>
   <v>       0.42857143       0.14285714       0.37500000 </v>
   <v>      -0.42857143       0.14285714       0.37500000 </v>
   <v>      -0.28571429       0.14285714       0.37500000 </v>
   <v>      -0.14285714       0.14285714       0.37500000 </v>
   <v>       0.28571429       0.28571429       0.37500000 </v>
   <v>       0.42857143       0.28571429       0.37500000 </v>
   <v>      -0.42857143       0.28571429       0.37500000 </v>
   <v>      -0.28571429       0.28571429       0.37500000 </v>
   <v>      -0.14285714       0.28571429       0.37500000 </v>
   <v>       0.42857143       0.42857143       0.37500000 </v>
   <v>      -0.42857143       0.42857143       0.37500000 </v>
   <v>      -0.28571429       0.42857143       0.37500000 </v>
   <v>      -0.14285714       0.42857143       0.37500000 </v>
   <v>      -0.42857143      -0.42857143       0.37500000 </v>
   <v>      -0.28571429      -0.42857143       0.37500000 </v>
   <v>      -0.14285714      -0.42857143       0.37500000 </v>
   <v>      -0.28571429      -0.28571429       0.37500000 </v>
   <v>      -0.14285714      -0.28571429       0.37500000 </v>
   <v>      -0.14285714      -0.14285714       0.37500000 </v>
   <v>       0.00000000      -0.00000000       0.50000000 </v>
   <v>       0.14285714       0.00000000       0.50000000 </v>
   <v>       0.28571429      -0.00000000       0.50000000 </v>
   <v>       0.42857143       0.00000000       0.50000000 </v>
   <v>       0.14285714       0.14285714       0.50000000 </v>
   <v>       0.28571429       0.14285714       0.50000000 </v>
   <v>       0.42857143       0.14285714       0.50000000 </v>
   <v>      -0.42857143       0.14285714       0.50000000 </v>
   <v>      -0.28571429       0.14285714       0.50000000 </v>
   <v>      -0.14285714       0.14285714       0.50000000 </v>
   <v>       0.28571429       0.28571429       0.50000000 </v>
   <v>       0.42857143       0.28571429       0.50000000 </v>
   <v>      -0.42857143       0.28571429       0.50000000 </v>
   <v>      -0.28571429       0.28571429       0.50000000 </v>
   <v>       0.42857143       0.42857143       0.50000000 </v>
   <v>      -0.42857143       0.42857143       0.50000000 </v>
  </varray>
  <varray name="weights" >
   <v>       0.00255102 </v>
   <v>       0.01020408 </v>
   <v>       0.01020408 </v>
   <v>       0.01020408 </v>
   <v>       0.00510204 </v>
   <v>       0.01020408 </v>
   <v>       0.01020408 </v>
   <v>       0.01020408 </v>
   <v>       0.01020408 </v>
   <v>       0.00510204 </v>
   <v>       0.00510204 </v>
   <v>       0.01020408 </v>
   <v>       0.01020408 </v>
   <v>       0.00510204 </v>
   <v>       0.00510204 </v>
   <v>       0.00510204 </v>
   <v>       0.00510204 </v>
   <v>       0.01020408 </v>
   <v>       0.01020408 </v>
   <v>       0.01020408 </v>
   <v>       0.01020408 </v>
   <v>       0.01020408 </v>
   <v>       0.01020408 </v>
   <v>       0.00510204 </v>
   <v>       0.01020408 </v>
   <v>       0.01020408 </v>
   <v>       0.01020408 </v>
   <v>       0.01020408 </v>
   <v>       0.01020408 </v>
   <v>       0.00510204 </v>
   <v>       0.01020408 </v>
   <v>       0.01020408 </v>
   <v>       0.01020408 </v>
   <v>       0.01020408 </v>
   <v>       0.00510204 </v>
   <v>       0.01020408 </v>
   <v>       0.01020408 </v>
   <v>       0.01020408 </v>
   <v>       0.00510204 </v>
   <v>       0.01020408 </v>
   <v>       0.01020408 </v>
   <v>       0.00510204 </v>
   <v>       0.01020408 </v>
   <v>       0.00510204 </v>
   <v>       0.00510204 </v>
   <v>       0.01020408 </v>
   <v>       0.01020408 </v>
   <v>       0.01020408 </v>
   <v>       0.01020408 </v>
   <v>       0.01020408 </v>
   <v>       0.01020408 </v>
   <v>       0.00510204 </v>
   <v>       0.01020408 </v>
   <v>       0.01020408 </v>
   <v>       0.01020408 </v>
   <v>       0.01020408 </v>
   <v>       0.01020408 </v>
   <v>       0.00510204 </v>
   <v>       0.01020408 </v>
   <v>       0.01020408 </v>
   <v>       0.01020408 </v>
   <v>       0.01020408 </v>
   <v>       0.00510204 </v>
   <v>       0.01020408 </v>
   <v>       0.01020408 </v>
   <v>       0.01020408 </v>
   <v>       0.00510204 </v>
   <v>       0.01020408 </v>
   <v>       0.01020408 </v>
   <v>       0.00510204 </v>
   <v>       0.01020408 </v>
   <v>       0.00510204 </v>
   <v>       0.00510204 </v>
   <v>       0.01020408 </v>
   <v>       0.01020408 </v>
   <v>       0.01020408 </v>
   <v>       0.01020408 </v>
   <v>       0.01020408 </v>
   <v>       0.01020408 </v>
   <v>       0.00510204 </v>
   <v>       0.01020408 </v>
   <v>       0.01020408 </v>
   <v>       0.01020408 </v>
   <v>       0.01020408 </v>
   <v>       0.01020408 </v>
   <v>       0.00510204 </v>
   <v>       0.01020408 </v>
   <v>       0.01020408 </v>
   <v>       0.01020408 </v>
   <v>       0.01020408 </v>
   <v>       0.00510204 </v>
   <v>       0.01020408 </v>
   <v>       0.01020408 </v>
   <v>       0.01020408 </v>
   <v>       0.00510204 </v>
   <v>       0.01020408 </v>
   <v>       0.01020408 </v>
   <v>       0.00510204 </v>
   <v>       0.01020408 </v>
   <v>       0.00510204 </v>
   <v>       0.00255102 </v>
   <v>       0.01020408 </v>
   <v>       0.01020408 </v>
   <v>       0.01020408 </v>
   <v>       0.00510204 </v>
   <v>       0.01020408 </v>
   <v>       0.01020408 </v>
   <v>       0.01020408 </v>
   <v>       0.01020408 </v>
   <v>       0.00510204 </v>
   <v>       0.00510204 </v>
   <v>       0.01020408 </v>
   <v>       0.01020408 </v>
   <v>       0.00510204 </v>
   <v>       0.00510204 </v>
   <v>       0.00510204 </v>
  </varray>
 </kpoints>
 <parameters>
  <separator name="general" >
   <i type="string" name="SYSTEM">routine with relax: pwdword</i>
   <i type="logical" name="LCOMPAT"> F  </i>
  </separator>
  <separator name="electronic" >
   <i type="string" name="PREC">acc</i>
   <i name="ENMAX">    600.00000000</i>
   <i name="ENAUG">    535.51400000</i>
   <i name="EDIFF">      0.00000000</i>
   <i type="int" name="IALGO">    58</i>
   <i type="int" name="IWAVPR">    10</i>
   <i type="int" name="NBANDS">    48</i>
   <i type="int" name="NBANDSLOW">    -1</i>
   <i type="int" name="NBANDSHIGH">    -1</i>
   <i name="NELECT">     76.00000000</i>
   <i type="int" name="TURBO">     0</i>
   <i type="int" name="IRESTART">     0</i>
   <i type="int" name="NREBOOT">     0</i>
   <i type="int" name="NMIN">     0</i>
   <i name="EREF">      0.00000000</i>
   <separator name="electronic smearing" >
    <i type="int" name="ISMEAR">     0</i>
    <i name="SIGMA">      0.02000000</i>
    <i name="KSPACING">      0.50000000</i>
    <i type="logical" name="KGAMMA"> T  </i>
    <i type="logical" name="KBLOWUP"> F  </i>
   </separator>
   <separator name="electronic projectors" >
    <i type="logical" name="LREAL"> F  </i>
    <v name="ROPT">      0.00000000      0.00000000      0.00000000</v>
    <i type="int" name="LMAXPAW">  -100</i>
    <i type="int" name="LMAXMIX">     2</i>
    <i type="logical" name="NLSPLINE"> F  </i>
   </separator>
   <separator name="electronic startup" >
    <i type="int" name="ISTART">     0</i>
    <i type="int" name="ICHARG">     2</i>
    <i type="int" name="INIWAV">     1</i>
   </separator>
   <separator name="electronic spin" >
    <i type="int" name="ISPIN">     1</i>
    <i type="logical" name="LNONCOLLINEAR"> F  </i>
    <v name="MAGMOM">      1.00000000      1.00000000      1.00000000      1.00000000      1.00000000      1.00000000      1.00000000      1.00000000      1.00000000      1.00000000</v>
    <i name="NUPDOWN">     -1.00000000</i>
    <i type="logical" name="LSORBIT"> F  </i>
    <v name="SAXIS">      0.00000000      0.00000000      1.00000000</v>
    <i type="logical" name="LSPIRAL"> F  </i>
    <v name="QSPIRAL">      0.00000000      0.00000000      0.00000000</v>
    <i type="logical" name="LZEROZ"> F  </i>
   </separator>
   <separator name="electronic exchange-correlation" >
    <i type="logical" name="LASPH"> T  </i>
    <i type="logical" name="LMETAGGA"> F  </i>
   </separator>
   <separator name="electronic convergence" >
    <i type="int" name="NELM">   100</i>
    <i type="int" name="NELMDL">    -5</i>
    <i type="int" name="NELMIN">     6</i>
    <i name="ENINI">    600.00000000</i>
    <separator name="electronic convergence detail" >
     <i type="logical" name="LDIAG"> T  </i>
     <i type="logical" name="LSUBROT"> F  </i>
     <i name="WEIMIN">      0.00000000</i>
     <i name="EBREAK">      0.00000000</i>
     <i name="DEPER">      0.30000000</i>
     <i type="int" name="NRMM">     4</i>
     <i name="TIME">      0.40000000</i>
    </separator>
   </separator>
   <separator name="electronic mixer" >
    <i name="AMIX">      0.40000000</i>
    <i name="BMIX">      1.00000000</i>
    <i name="AMIN">      0.10000000</i>
    <i name="AMIX_MAG">      1.60000000</i>
    <i name="BMIX_MAG">      1.00000000</i>
    <separator name="electronic mixer details" >
     <i type="int" name="IMIX">     4</i>
     <i type="logical" name="MIXFIRST"> F  </i>
     <i type="int" name="MAXMIX">   -45</i>
     <i name="WC">    100.00000000</i>
     <i type="int" name="INIMIX">     1</i>
     <i type="int" name="MIXPRE">     1</i>
     <i type="int" name="MREMOVE">     5</i>
    </separator>
   </separator>
   <separator name="electronic dipolcorrection" >
    <i type="logical" name="LDIPOL"> F  </i>
    <i type="logical" name="LMONO"> F  </i>
    <i type="int" name="IDIPOL">     0</i>
    <i name="EPSILON">      1.00000000</i>
    <v name="DIPOL">   -100.00000000   -100.00000000   -100.00000000</v>
    <i name="EFIELD">      0.00000000</i>
   </separator>
  </separator>
  <separator name="grids" >
   <i type="int" name="NGX">    54</i>
   <i type="int" name="NGY">    54</i>
   <i type="int" name="NGZ">    54</i>
   <i type="int" name="NGXF">   108</i>
   <i type="int" name="NGYF">   108</i>
   <i type="int" name="NGZF">   108</i>
   <i type="logical" name="ADDGRID"> T  </i>
  </separator>
  <separator name="ionic" >
   <i type="int" name="NSW">     0</i>
   <i type="int" name="IBRION">    -1</i>
   <i type="int" name="MDALGO">     0</i>
   <i type="int" name="ISIF">    -1</i>
   <i name="PSTRESS">      0.00000000</i>
   <i name="EDIFFG">      0.00000001</i>
   <i type="int" name="NFREE">     0</i>
   <i name="POTIM">      0.50000000</i>
   <i name="SMASS">     -3.00000000</i>
   <i name="SCALEE">      1.00000000</i>
  </separator>
  <separator name="ionic md" >
   <i name="TEBEG">      0.00010000</i>
   <i name="TEEND">      0.00010000</i>
   <i type="int" name="NBLOCK">     1</i>
   <i type="int" name="KBLOCK">     1</i>
   <i type="int" name="NPACO">   256</i>
   <i name="APACO">     16.00000000</i>
  </separator>
  <separator name="symmetry" >
   <i type="int" name="ISYM">     2</i>
   <i name="SYMPREC">      0.00001000</i>
  </separator>
  <separator name="dos" >
   <i type="int" name="LORBIT">     0</i>
   <v name="RWIGS">     -1.00000000     -1.00000000     -1.00000000</v>
   <i type="int" name="NEDOS">   301</i>
   <i name="EMIN">     10.00000000</i>
   <i name="EMAX">    -10.00000000</i>
   <i name="EFERMI">      0.00000000</i>
  </separator>
  <separator name="writing" >
   <i type="int" name="NWRITE">     2</i>
   <i type="logical" name="LWAVE"> T  </i>
   <i type="logical" name="LDOWNSAMPLE"> F  </i>
   <i type="logical" name="LCHARG"> T  </i>
   <i type="logical" name="LPARD"> F  </i>
   <i type="logical" name="LVTOT"> F  </i>
   <i type="logical" name="LVHAR"> F  </i>
   <i type="logical" name="LELF"> F  </i>
   <i type="logical" name="LOPTICS"> F  </i>
   <v name="STM">      0.00000000      0.00000000      0.00000000      0.00000000      0.00000000      0.00000000      0.00000000</v>
  </separator>
  <separator name="performance" >
   <i type="int" name="NPAR">     6</i>
   <i type="int" name="NSIM">     4</i>
   <i type="int" name="NBLK">    -1</i>
   <i type="logical" name="LPLANE"> T  </i>
   <i type="logical" name="LSCALAPACK"> T  </i>
   <i type="logical" name="LSCAAWARE"> F  </i>
   <i type="logical" name="LSCALU"> F  </i>
   <i type="logical" name="LASYNC"> F  </i>
   <i type="logical" name="LORBITALREAL"> F  </i>
  </separator>
  <separator name="miscellaneous" >
   <i type="int" name="IDIOT">     3</i>
   <i type="int" name="PHON_NSTRUCT">    -1</i>
   <i type="logical" name="LMUSIC"> F  </i>
   <v name="POMASS">     10.81100000     95.94000000     28.08500000</v>
   <v name="DARWINR">      0.00000000      0.00000000      0.00000000</v>
   <v name="DARWINV">      1.00000000      1.00000000      1.00000000</v>
   <i type="logical" name="LCORR"> T  </i>
  </separator>
  <i type="logical" name="GGA_COMPAT"> T  </i>
  <i type="logical" name="LBERRY"> F  </i>
  <i type="int" name="ICORELEVEL">     0</i>
  <i type="logical" name="LDAU"> F  </i>
  <i type="int" name="I_CONSTRAINED_M">     0</i>
  <separator name="electronic exchange-correlation" >
   <i type="string" name="GGA">--</i>
   <i type="int" name="VOSKOWN">     0</i>
   <i type="logical" name="LHFCALC"> F  </i>
   <i type="string" name="PRECFOCK"></i>
   <i type="logical" name="LSYMGRAD"> F  </i>
   <i type="logical" name="LHFONE"> F  </i>
   <i type="logical" name="LRHFCALC"> F  </i>
   <i type="logical" name="LTHOMAS"> F  </i>
   <i type="logical" name="LMODELHF"> F  </i>
   <i type="logical" name="LFOCKACE"> F  </i>
   <i name="ENCUT4O">     -1.00000000</i>
   <i type="int" name="EXXOEP">     0</i>
   <i type="int" name="FOURORBIT">     0</i>
   <i name="AEXX">      0.00000000</i>
   <i name="HFALPHA">      0.00000000</i>
   <i name="MCALPHA">      0.00000000</i>
   <i name="ALDAX">      1.00000000</i>
   <i name="AGGAX">      1.00000000</i>
   <i name="ALDAC">      1.00000000</i>
   <i name="AGGAC">      1.00000000</i>
   <i type="int" name="NKREDX">     1</i>
   <i type="int" name="NKREDY">     1</i>
   <i type="int" name="NKREDZ">     1</i>
   <i type="logical" name="SHIFTRED"> F  </i>
   <i type="logical" name="ODDONLY"> F  </i>
   <i type="logical" name="EVENONLY"> F  </i>
   <i type="int" name="LMAXFOCK">     0</i>
   <i type="int" name="NMAXFOCKAE">     0</i>
   <i type="logical" name="LFOCKAEDFT"> F  </i>
   <i name="HFSCREEN">      0.00000000</i>
   <i name="HFSCREENC">      0.00000000</i>
   <i type="int" name="NBANDSGWLOW">     0</i>
  </separator>
  <separator name="vdW DFT" >
   <i type="logical" name="LUSE_VDW"> F  </i>
   <i name="Zab_VDW">     -0.84910000</i>
   <i name="PARAM1">      0.12340000</i>
   <i name="PARAM2">      1.00000000</i>
   <i name="PARAM3">      0.00000000</i>
  </separator>
  <separator name="model GW" >
   <i type="int" name="MODEL_GW">     0</i>
   <i name="MODEL_EPS0">     11.10138059</i>
   <i name="MODEL_ALPHA">      1.00000000</i>
  </separator>
  <separator name="linear response parameters" >
   <i type="logical" name="LEPSILON"> F  </i>
   <i type="logical" name="LRPA"> F  </i>
   <i type="logical" name="LNABLA"> F  </i>
   <i type="logical" name="LVEL"> F  </i>
   <i type="int" name="KINTER">     0</i>
   <i name="CSHIFT">      0.10000000</i>
   <i name="OMEGAMAX">     -1.00000000</i>
   <i name="DEG_THRESHOLD">      0.00200000</i>
   <i name="RTIME">     -0.10000000</i>
   <i name="WPLASMAI">      0.00000000</i>
   <v name="DFIELD">      0.00000000      0.00000000      0.00000000</v>
   <v name="WPLASMA">      0.00000000      0.00000000      0.00000000      0.00000000      0.00000000      0.00000000      0.00000000      0.00000000      0.00000000</v>
  </separator>
  <separator name="orbital magnetization" >
   <i type="logical" name="NUCIND"> F  </i>
   <v name="MAGPOS">      0.00000000      0.00000000      0.00000000</v>
   <i type="logical" name="LNICSALL"> T  </i>
   <i type="logical" name="ORBITALMAG"> F  </i>
   <i type="logical" name="LMAGBLOCH"> F  </i>
   <i type="logical" name="LCHIMAG"> F  </i>
   <i type="logical" name="LGAUGE"> T  </i>
   <i type="int" name="MAGATOM">     0</i>
   <v name="MAGDIPOL">      0.00000000      0.00000000      0.00000000</v>
   <v name="AVECCONST">      0.00000000      0.00000000      0.00000000</v>
  </separator>
  <separator name="response functions" >
   <i type="logical" name="LFINITE_TEMPERATURE"> F  </i>
   <i type="logical" name="LADDER"> F  </i>
   <i type="logical" name="LRPAFORCE"> F  </i>
   <i type="logical" name="LFXC"> F  </i>
   <i type="logical" name="LHARTREE"> T  </i>
   <i type="int" name="IBSE">     0</i>
   <v type="int" name="KPOINT">    -1     0     0     0</v>
   <i type="logical" name="LTCTC"> F  </i>
   <i type="logical" name="LTCTE"> F  </i>
   <i type="logical" name="LTETE"> F  </i>
   <i type="logical" name="LTRIPLET"> F  </i>
   <i type="logical" name="LFXCEPS"> F  </i>
   <i type="logical" name="LFXHEG"> F  </i>
   <i type="int" name="NATURALO">     2</i>
   <i type="logical" name="LHOLEGF"> F  </i>
   <i type="logical" name="L2ORDER"> F  </i>
   <i type="logical" name="LDMP1"> F  </i>
   <i type="logical" name="LMP2LT"> F  </i>
   <i type="logical" name="LSMP2LT"> F  </i>
   <i type="logical" name="LGWLF"> F  </i>
   <i name="ENCUTGW">     -2.00000000</i>
   <i name="ENCUTGWSOFT">     -2.00000000</i>
   <i name="ENCUTLF">     -1.00000000</i>
   <i type="logical" name="LESF_SPLINES"> F  </i>
   <i type="int" name="LMAXMP2">    -1</i>
   <i name="SCISSOR">      0.00000000</i>
   <i type="int" name="NOMEGA">     0</i>
   <i type="int" name="NOMEGAR">     0</i>
   <i type="int" name="NBANDSGW">    -1</i>
   <i type="int" name="NBANDSO">    -1</i>
   <i type="int" name="NBANDSV">    -1</i>
   <i type="int" name="NELM">   100</i>
   <i type="int" name="NELMHF">     1</i>
   <i type="int" name="DIM">     3</i>
   <i type="int" name="IESPILON">     4</i>
   <i type="int" name="ANTIRES">     0</i>
   <i name="OMEGAMAX">    -30.00000000</i>
   <i name="OMEGAMIN">    -30.00000000</i>
   <i name="OMEGATL">   -200.00000000</i>
   <i type="int" name="OMEGAGRID">     0</i>
   <i name="CSHIFT">     -0.10000000</i>
   <i type="logical" name="LSELFENERGY"> F  </i>
   <i type="logical" name="LSPECTRAL"> F  </i>
   <i type="logical" name="LSPECTRALGW"> F  </i>
   <i type="logical" name="LSINGLES"> F  </i>
   <i type="logical" name="LFERMIGW"> F  </i>
   <i type="logical" name="ODDONLYGW"> F  </i>
   <i type="logical" name="EVENONLYGW"> F  </i>
   <i type="int" name="NKREDLFX">     1</i>
   <i type="int" name="NKREDLFY">     1</i>
   <i type="int" name="NKREDLFZ">     1</i>
   <i type="int" name="MAXMEM">  2800</i>
   <i type="int" name="TELESCOPE">     0</i>
   <i type="int" name="NTAUPAR">    -1</i>
   <i type="int" name="NOMEGAPAR">    -1</i>
   <i name="DAMP_NEWTON">      0.80000001</i>
   <i name="LAMBDA">      1.00000000</i>
  </separator>
  <separator name="External order field" >
   <i name="OFIELD_KAPPA">      0.00000000</i>
   <v name="OFIELD_K">      0.00000000      0.00000000      0.00000000</v>
   <i name="OFIELD_Q6_NEAR">      0.00000000</i>
   <i name="OFIELD_Q6_FAR">      0.00000000</i>
   <i name="OFIELD_A">      0.00000000</i>
  </separator>
 </parameters>
 <atominfo>
  <atoms>      10 </atoms>
  <types>       3 </types>
  <array name="atoms" >
   <dimension dim="1">ion</dimension>
   <field type="string">element</field>
   <field type="int">atomtype</field>
   <set>
    <rc><c>B </c><c>   1</c></rc>
    <rc><c>B </c><c>   1</c></rc>
    <rc><c>B </c><c>   1</c></rc>
    <rc><c>B </c><c>   1</c></rc>
    <rc><c>Mo</c><c>   2</c></rc>
    <rc><c>Mo</c><c>   2</c></rc>
    <rc><c>Mo</c><c>   2</c></rc>
    <rc><c>Mo</c><c>   2</c></rc>
    <rc><c>Si</c><c>   3</c></rc>
    <rc><c>Si</c><c>   3</c></rc>
   </set>
  </array>
  <array name="atomtypes" >
   <dimension dim="1">type</dimension>
   <field type="int">atomspertype</field>
   <field type="string">element</field>
   <field>mass</field>
   <field>valence</field>
   <field type="string">pseudopotential</field>
   <set>
    <rc><c>   4</c><c>B </c><c>     10.81100000</c><c>      3.00000000</c><c>  PAW_PBE B 06Sep2000                   </c></rc>
    <rc><c>   4</c><c>Mo</c><c>     95.94000000</c><c>     14.00000000</c><c>  PAW_PBE Mo_sv 02Feb2006               </c></rc>
    <rc><c>   2</c><c>Si</c><c>     28.08500000</c><c>      4.00000000</c><c>  PAW_PBE Si 05Jan2001                  </c></rc>
   </set>
  </array>
 </atominfo>
 <structure name="initialpos" >
  <crystal>
   <varray name="basis" >
    <v>       5.54806895       0.00000000      -3.16212474 </v>
    <v>      -1.87320924       5.22227501      -3.16212474 </v>
    <v>       0.00000000       0.00000000       6.38593000 </v>
   </varray>
   <i name="volume">    185.02300990 </i>
   <varray name="rec_basis" >
    <v>       0.18024289       0.06465241       0.00000000 </v>
    <v>       0.00000000       0.19148743       0.00000000 </v>
    <v>       0.08925098       0.12683291       0.15659426 </v>
   </varray>
  </crystal>
  <varray name="positions" >
   <v>       0.24194000       0.25806000       0.50000000 </v>
   <v>       0.75806000       0.74194000       0.50000000 </v>
   <v>       0.25806000       0.75806000       0.01612000 </v>
   <v>       0.74194000       0.24194000       0.98388000 </v>
   <v>       0.00000000       0.00000000       0.00000000 </v>
   <v>       0.00000000       0.50000000       0.50000000 </v>
   <v>       0.50000000       0.00000000       0.50000000 </v>
   <v>       0.50000000       0.50000000       0.00000000 </v>
   <v>       0.25000000       0.25000000       0.00000000 </v>
   <v>       0.75000000       0.75000000       0.00000000 </v>
  </varray>
 </structure>
 <calculation>
  <scstep>
   <time name="total">   25.34   25.60</time>
   <energy>
    <i name="alphaZ">    260.86991782 </i>
    <i name="ewald">  -5133.46359673 </i>
    <i name="hartreedc">  -2480.90204416 </i>
    <i name="XCdc">    323.55953317 </i>
    <i name="pawpsdc">   6278.15209018 </i>
    <i name="pawaedc">  -6244.81064237 </i>
    <i name="eentropy">     -0.00049345 </i>
    <i name="bandstr">   -337.92336071 </i>
    <i name="atom">   7939.94160518 </i>
    <i name="e_fr_energy">    605.42300893 </i>
    <i name="e_wo_entrp">    605.42350238 </i>
    <i name="e_0_energy">    605.42325566 </i>
   </energy>
  </scstep>
  <scstep>
   <time name="total">   24.92   25.18</time>
   <energy>
    <i name="e_fr_energy">   -141.91330241 </i>
    <i name="e_wo_entrp">   -141.91207482 </i>
    <i name="e_0_energy">   -141.91268861 </i>
   </energy>
  </scstep>
  <scstep>
   <time name="total">   28.51   28.85</time>
   <energy>
    <i name="e_fr_energy">   -175.42191249 </i>
    <i name="e_wo_entrp">   -175.42072926 </i>
    <i name="e_0_energy">   -175.42132088 </i>
   </energy>
  </scstep>
  <scstep>
   <time name="total">   26.59   26.85</time>
   <energy>
    <i name="e_fr_energy">   -176.09149782 </i>
    <i name="e_wo_entrp">   -176.09036769 </i>
    <i name="e_0_energy">   -176.09093276 </i>
   </energy>
  </scstep>
  <scstep>
   <time name="total">   30.57   30.86</time>
   <energy>
    <i name="e_fr_energy">   -176.11122129 </i>
    <i name="e_wo_entrp">   -176.11006544 </i>
    <i name="e_0_energy">   -176.11064336 </i>
   </energy>
  </scstep>
  <scstep>
   <time name="total">   29.01   29.36</time>
   <energy>
    <i name="e_fr_energy">   -113.55152603 </i>
    <i name="e_wo_entrp">   -113.55012663 </i>
    <i name="e_0_energy">   -113.55082633 </i>
   </energy>
  </scstep>
  <scstep>
   <time name="total">   32.08   32.35</time>
   <energy>
    <i name="e_fr_energy">   -135.47044456 </i>
    <i name="e_wo_entrp">   -135.46900605 </i>
    <i name="e_0_energy">   -135.46972530 </i>
   </energy>
  </scstep>
  <scstep>
   <time name="total">   34.54   34.82</time>
   <energy>
    <i name="e_fr_energy">   -139.42946096 </i>
    <i name="e_wo_entrp">   -139.42801273 </i>
    <i name="e_0_energy">   -139.42873684 </i>
   </energy>
  </scstep>
  <scstep>
   <time name="total">   35.77   36.05</time>
   <energy>
    <i name="e_fr_energy">   -140.61593730 </i>
    <i name="e_wo_entrp">   -140.61450058 </i>
    <i name="e_0_energy">   -140.61521894 </i>
   </energy>
  </scstep>
  <scstep>
   <time name="total">   33.27   33.54</time>
   <energy>
    <i name="e_fr_energy">   -141.06455204 </i>
    <i name="e_wo_entrp">   -141.06307303 </i>
    <i name="e_0_energy">   -141.06381254 </i>
   </energy>
  </scstep>
  <scstep>
   <time name="total">   35.65   35.94</time>
   <energy>
    <i name="e_fr_energy">   -141.27309089 </i>
    <i name="e_wo_entrp">   -141.27125725 </i>
    <i name="e_0_energy">   -141.27217407 </i>
   </energy>
  </scstep>
  <scstep>
   <time name="total">   35.37   35.66</time>
   <energy>
    <i name="e_fr_energy">   -141.36028044 </i>
    <i name="e_wo_entrp">   -141.35827595 </i>
    <i name="e_0_energy">   -141.35927819 </i>
   </energy>
  </scstep>
  <scstep>
   <time name="total">   34.72   35.01</time>
   <energy>
    <i name="e_fr_energy">   -141.40255577 </i>
    <i name="e_wo_entrp">   -141.40074110 </i>
    <i name="e_0_energy">   -141.40164843 </i>
   </energy>
  </scstep>
  <scstep>
   <time name="total">   34.07   34.35</time>
   <energy>
    <i name="e_fr_energy">   -141.42729677 </i>
    <i name="e_wo_entrp">   -141.42590468 </i>
    <i name="e_0_energy">   -141.42660072 </i>
   </energy>
  </scstep>
  <scstep>
   <time name="total">   31.92   32.19</time>
   <energy>
    <i name="e_fr_energy">   -141.43991909 </i>
    <i name="e_wo_entrp">   -141.43864907 </i>
    <i name="e_0_energy">   -141.43928408 </i>
   </energy>
  </scstep>
  <scstep>
   <time name="total">   33.54   33.82</time>
   <energy>
    <i name="e_fr_energy">   -141.44611679 </i>
    <i name="e_wo_entrp">   -141.44484341 </i>
    <i name="e_0_energy">   -141.44548010 </i>
   </energy>
  </scstep>
  <scstep>
   <time name="total">   35.16   35.44</time>
   <energy>
    <i name="e_fr_energy">   -141.44862949 </i>
    <i name="e_wo_entrp">   -141.44735594 </i>
    <i name="e_0_energy">   -141.44799272 </i>
   </energy>
  </scstep>
  <scstep>
   <time name="total">   33.96   34.24</time>
   <energy>
    <i name="e_fr_energy">   -141.44966715 </i>
    <i name="e_wo_entrp">   -141.44843443 </i>
    <i name="e_0_energy">   -141.44905079 </i>
   </energy>
  </scstep>
  <scstep>
   <time name="total">   34.46   34.74</time>
   <energy>
    <i name="e_fr_energy">   -141.45018006 </i>
    <i name="e_wo_entrp">   -141.44898610 </i>
    <i name="e_0_energy">   -141.44958308 </i>
   </energy>
  </scstep>
  <scstep>
   <time name="total">   33.50   33.78</time>
   <energy>
    <i name="e_fr_energy">   -141.45043069 </i>
    <i name="e_wo_entrp">   -141.44926172 </i>
    <i name="e_0_energy">   -141.44984620 </i>
   </energy>
  </scstep>
  <scstep>
   <time name="total">   34.32   34.61</time>
   <energy>
    <i name="e_fr_energy">   -141.45054963 </i>
    <i name="e_wo_entrp">   -141.44939491 </i>
    <i name="e_0_energy">   -141.44997227 </i>
   </energy>
  </scstep>
  <scstep>
   <time name="total">   33.59   33.86</time>
   <energy>
    <i name="e_fr_energy">   -141.45059877 </i>
    <i name="e_wo_entrp">   -141.44944993 </i>
    <i name="e_0_energy">   -141.45002435 </i>
   </energy>
  </scstep>
  <scstep>
   <time name="total">   34.36   34.65</time>
   <energy>
    <i name="e_fr_energy">   -141.45061706 </i>
    <i name="e_wo_entrp">   -141.44947228 </i>
    <i name="e_0_energy">   -141.45004467 </i>
   </energy>
  </scstep>
  <scstep>
   <time name="total">   34.83   35.12</time>
   <energy>
    <i name="e_fr_energy">   -141.45062481 </i>
    <i name="e_wo_entrp">   -141.44948085 </i>
    <i name="e_0_energy">   -141.45005283 </i>
   </energy>
  </scstep>
  <scstep>
   <time name="total">   35.19   35.48</time>
   <energy>
    <i name="e_fr_energy">   -141.45062899 </i>
    <i name="e_wo_entrp">   -141.44948417 </i>
    <i name="e_0_energy">   -141.45005658 </i>
   </energy>
  </scstep>
  <scstep>
   <time name="total">   34.18   34.46</time>
   <energy>
    <i name="e_fr_energy">   -141.45063105 </i>
    <i name="e_wo_entrp">   -141.44948460 </i>
    <i name="e_0_energy">   -141.45005782 </i>
   </energy>
  </scstep>
  <scstep>
   <time name="total">   34.03   34.32</time>
   <energy>
    <i name="e_fr_energy">   -141.45063186 </i>
    <i name="e_wo_entrp">   -141.44948393 </i>
    <i name="e_0_energy">   -141.45005790 </i>
   </energy>
  </scstep>
  <scstep>
   <time name="total">   36.28   36.57</time>
   <energy>
    <i name="e_fr_energy">   -141.45063224 </i>
    <i name="e_wo_entrp">   -141.44948301 </i>
    <i name="e_0_energy">   -141.45005763 </i>
   </energy>
  </scstep>
  <scstep>
   <time name="total">   34.69   34.97</time>
   <energy>
    <i name="e_fr_energy">   -141.45063241 </i>
    <i name="e_wo_entrp">   -141.44948229 </i>
    <i name="e_0_energy">   -141.45005735 </i>
   </energy>
  </scstep>
  <scstep>
   <time name="total">   33.92   34.20</time>
   <energy>
    <i name="e_fr_energy">   -141.45063249 </i>
    <i name="e_wo_entrp">   -141.44948205 </i>
    <i name="e_0_energy">   -141.45005727 </i>
   </energy>
  </scstep>
  <scstep>
   <time name="total">   33.95   34.23</time>
   <energy>
    <i name="e_fr_energy">   -141.45063252 </i>
    <i name="e_wo_entrp">   -141.44948195 </i>
    <i name="e_0_energy">   -141.45005724 </i>
   </energy>
  </scstep>
  <scstep>
   <time name="total">   32.14   32.41</time>
   <energy>
    <i name="e_fr_energy">   -141.45063254 </i>
    <i name="e_wo_entrp">   -141.44948196 </i>
    <i name="e_0_energy">   -141.45005725 </i>
   </energy>
  </scstep>
  <scstep>
   <time name="total">   33.74   34.01</time>
   <energy>
    <i name="e_fr_energy">   -141.45063255 </i>
    <i name="e_wo_entrp">   -141.44948193 </i>
    <i name="e_0_energy">   -141.45005724 </i>
   </energy>
  </scstep>
  <scstep>
   <time name="total">   33.50   33.78</time>
   <energy>
    <i name="e_fr_energy">   -141.45063256 </i>
    <i name="e_wo_entrp">   -141.44948190 </i>
    <i name="e_0_energy">   -141.45005723 </i>
   </energy>
  </scstep>
  <scstep>
   <time name="total">   33.68   33.95</time>
   <energy>
    <i name="e_fr_energy">   -141.45063256 </i>
    <i name="e_wo_entrp">   -141.44948185 </i>
    <i name="e_0_energy">   -141.45005721 </i>
   </energy>
  </scstep>
  <scstep>
   <time name="total">   37.19   37.50</time>
   <energy>
    <i name="alphaZ">    260.86991782 </i>
    <i name="ewald">  -5133.46359673 </i>
    <i name="hartreedc">  -2418.91282276 </i>
    <i name="XCdc">    330.09745551 </i>
    <i name="pawpsdc">   7976.68293339 </i>
    <i name="pawaedc">  -7957.14898878 </i>
    <i name="eentropy">     -0.00115072 </i>
    <i name="bandstr">  -1139.51598549 </i>
    <i name="atom">   7939.94160518 </i>
    <i name="e_fr_energy">   -141.45063256 </i>
    <i name="e_wo_entrp">   -141.44948184 </i>
    <i name="e_0_energy">   -141.45005720 </i>
   </energy>
  </scstep>
  <structure>
   <crystal>
    <varray name="basis" >
     <v>       5.54806895       0.00000000      -3.16212474 </v>
     <v>      -1.87320924       5.22227501      -3.16212474 </v>
     <v>       0.00000000       0.00000000       6.38593000 </v>
    </varray>
    <i name="volume">    185.02300990 </i>
    <varray name="rec_basis" >
     <v>       0.18024289       0.06465241       0.00000000 </v>
     <v>       0.00000000       0.19148743       0.00000000 </v>
     <v>       0.08925098       0.12683291       0.15659426 </v>
    </varray>
   </crystal>
   <varray name="positions" >
    <v>       0.24194000       0.25806000       0.50000000 </v>
    <v>       0.75806000       0.74194000       0.50000000 </v>
    <v>       0.25806000       0.75806000       0.01612000 </v>
    <v>       0.74194000       0.24194000       0.98388000 </v>
    <v>       0.00000000       0.00000000       0.00000000 </v>
    <v>       0.00000000       0.50000000       0.50000000 </v>
    <v>       0.50000000       0.00000000       0.50000000 </v>
    <v>       0.50000000       0.50000000       0.00000000 </v>
    <v>       0.25000000       0.25000000       0.00000000 </v>
    <v>       0.75000000       0.75000000       0.00000000 </v>
   </varray>
  </structure>
  <varray name="forces" >
   <v>       0.00000000       0.00000000       0.00000000 </v>
   <v>       0.00000000       0.00000000       0.00000000 </v>
   <v>       0.00000000       0.00000000       0.00000000 </v>
   <v>       0.00000000       0.00000000       0.00000000 </v>
   <v>       0.00000000       0.00000000       0.00000000 </v>
   <v>       0.00000000       0.00000000       0.00000000 </v>
   <v>       0.00000000       0.00000000       0.00000000 </v>
   <v>       0.00000000       0.00000000       0.00000000 </v>
   <v>       0.00000000       0.00000000       0.00000000 </v>
   <v>       0.00000000       0.00000000       0.00000000 </v>
  </varray>
  <varray name="stress" >
   <v>       0.00000000       0.00000000       0.00000000 </v>
   <v>       0.00000000       0.00000000       0.00000000 </v>
   <v>       0.00000000       0.00000000       0.00000000 </v>
  </varray>
  <energy>
   <i name="e_fr_energy">   -141.45063256 </i>
   <i name="e_wo_entrp">   -141.44948184 </i>
   <i name="e_0_energy">   -141.45005720 </i>
  </energy>
  <time name="totalsc"> 1197.33 1207.57</time>
  <eigenvalues>
   <array>
    <dimension dim="1">band</dimension>
    <dimension dim="2">kpoint</dimension>
    <dimension dim="3">spin</dimension>
    <field>eigene</field>
    <field>occ</field>
    <set>
     <set comment="spin 1">
      <set comment="kpoint 1">
       <r>  -57.9898    1.0000 </r>
       <r>  -57.9894    1.0000 </r>
       <r>  -57.1554    1.0000 </r>
       <r>  -57.1551    1.0000 </r>
       <r>  -31.4543    1.0000 </r>
       <r>  -31.4532    1.0000 </r>
       <r>  -31.3061    1.0000 </r>
       <r>  -31.3061    1.0000 </r>
       <r>  -31.2695    1.0000 </r>
       <r>  -31.2694    1.0000 </r>
       <r>  -30.9235    1.0000 </r>
       <r>  -30.9045    1.0000 </r>
       <r>  -30.4814    1.0000 </r>
       <r>  -30.4813    1.0000 </r>
       <r>  -30.4715    1.0000 </r>
       <r>  -30.4714    1.0000 </r>
       <r>   -4.6931    1.0000 </r>
       <r>   -2.1563    1.0000 </r>
       <r>   -2.0299    1.0000 </r>
       <r>   -1.2965    1.0000 </r>
       <r>   -0.2075    1.0000 </r>
       <r>   -0.2075    1.0000 </r>
       <r>    0.1470    1.0000 </r>
       <r>    0.4061    1.0000 </r>
       <r>    0.7676    1.0000 </r>
       <r>    0.7677    1.0000 </r>
       <r>    1.3219    1.0000 </r>
       <r>    2.0434    1.0000 </r>
       <r>    2.3122    1.0000 </r>
       <r>    2.9955    1.0000 </r>
       <r>    3.4318    1.0000 </r>
       <r>    3.4318    1.0000 </r>
       <r>    3.5939    1.0000 </r>
       <r>    3.8648    1.0000 </r>
       <r>    3.8648    1.0000 </r>
       <r>    4.3083    1.0000 </r>
       <r>    5.5880    0.0000 </r>
       <r>    5.5881    0.0000 </r>
       <r>    5.7079    0.0000 </r>
       <r>    5.7458    0.0000 </r>
       <r>    5.7458    0.0000 </r>
       <r>    5.9634    0.0000 </r>
       <r>    7.1609    0.0000 </r>
       <r>    7.1614    0.0000 </r>
       <r>    7.1935    0.0000 </r>
       <r>    7.6911    0.0000 </r>
       <r>    8.5691    0.0000 </r>
       <r>    8.5908    0.0000 </r>
      </set>
      <set comment="kpoint 2">
       <r>  -57.9898    1.0000 </r>
       <r>  -57.9894    1.0000 </r>
       <r>  -57.1554    1.0000 </r>
       <r>  -57.1551    1.0000 </r>
       <r>  -31.4543    1.0000 </r>
       <r>  -31.4532    1.0000 </r>
       <r>  -31.3048    1.0000 </r>
       <r>  -31.3040    1.0000 </r>
       <r>  -31.2681    1.0000 </r>
       <r>  -31.2673    1.0000 </r>
       <r>  -30.9226    1.0000 </r>
       <r>  -30.9055    1.0000 </r>
       <r>  -30.4847    1.0000 </r>
       <r>  -30.4810    1.0000 </r>
       <r>  -30.4756    1.0000 </r>
       <r>  -30.4720    1.0000 </r>
       <r>   -4.5836    1.0000 </r>
       <r>   -2.0976    1.0000 </r>
       <r>   -2.0047    1.0000 </r>
       <r>   -1.6149    1.0000 </r>
       <r>   -0.7309    1.0000 </r>
       <r>   -0.3990    1.0000 </r>
       <r>    0.4411    1.0000 </r>
       <r>    0.7969    1.0000 </r>
       <r>    0.8969    1.0000 </r>
       <r>    1.0556    1.0000 </r>
       <r>    1.5025    1.0000 </r>
       <r>    2.1785    1.0000 </r>
       <r>    2.4202    1.0000 </r>
       <r>    2.9525    1.0000 </r>
       <r>    3.1825    1.0000 </r>
       <r>    3.2452    1.0000 </r>
       <r>    3.3681    1.0000 </r>
       <r>    3.8344    1.0000 </r>
       <r>    3.9460    1.0000 </r>
       <r>    4.3596    1.0000 </r>
       <r>    5.3828    0.0000 </r>
       <r>    5.3933    0.0000 </r>
       <r>    5.5868    0.0000 </r>
       <r>    5.6054    0.0000 </r>
       <r>    5.7207    0.0000 </r>
       <r>    5.7519    0.0000 </r>
       <r>    7.0508    0.0000 </r>
       <r>    7.4147    0.0000 </r>
       <r>    7.5272    0.0000 </r>
       <r>    7.8354    0.0000 </r>
       <r>    8.0835    0.0000 </r>
       <r>    8.4916    0.0000 </r>
      </set>
      <set comment="kpoint 3">
       <r>  -57.9897    1.0000 </r>
       <r>  -57.9895    1.0000 </r>
       <r>  -57.1554    1.0000 </r>
       <r>  -57.1552    1.0000 </r>
       <r>  -31.4540    1.0000 </r>
       <r>  -31.4533    1.0000 </r>
       <r>  -31.3019    1.0000 </r>
       <r>  -31.3002    1.0000 </r>
       <r>  -31.2641    1.0000 </r>
       <r>  -31.2622    1.0000 </r>
       <r>  -30.9201    1.0000 </r>
       <r>  -30.9083    1.0000 </r>
       <r>  -30.4922    1.0000 </r>
       <r>  -30.4861    1.0000 </r>
       <r>  -30.4795    1.0000 </r>
       <r>  -30.4735    1.0000 </r>
       <r>   -4.2619    1.0000 </r>
       <r>   -2.3263    1.0000 </r>
       <r>   -1.9265    1.0000 </r>
       <r>   -1.9178    1.0000 </r>
       <r>   -1.1990    1.0000 </r>
       <r>   -0.7991    1.0000 </r>
       <r>    0.8155    1.0000 </r>
       <r>    1.2083    1.0000 </r>
       <r>    1.2145    1.0000 </r>
       <r>    1.6762    1.0000 </r>
       <r>    2.1467    1.0000 </r>
       <r>    2.4081    1.0000 </r>
       <r>    2.5464    1.0000 </r>
       <r>    2.7151    1.0000 </r>
       <r>    2.7777    1.0000 </r>
       <r>    2.9259    1.0000 </r>
       <r>    3.0693    1.0000 </r>
       <r>    3.7324    1.0000 </r>
       <r>    3.8539    1.0000 </r>
       <r>    4.4802    1.0000 </r>
       <r>    4.5093    1.0000 </r>
       <r>    4.9972    0.9863 </r>
       <r>    5.4214    0.0000 </r>
       <r>    5.4718    0.0000 </r>
       <r>    5.6344    0.0000 </r>
       <r>    5.6759    0.0000 </r>
       <r>    7.0579    0.0000 </r>
       <r>    7.6184    0.0000 </r>
       <r>    7.8234    0.0000 </r>
       <r>    7.9099    0.0000 </r>
       <r>    7.9686    0.0000 </r>
       <r>    8.1519    0.0000 </r>
      </set>
      <set comment="kpoint 4">
       <r>  -57.9896    1.0000 </r>
       <r>  -57.9895    1.0000 </r>
       <r>  -57.1554    1.0000 </r>
       <r>  -57.1553    1.0000 </r>
       <r>  -31.4537    1.0000 </r>
       <r>  -31.4535    1.0000 </r>
       <r>  -31.2994    1.0000 </r>
       <r>  -31.2985    1.0000 </r>
       <r>  -31.2593    1.0000 </r>
       <r>  -31.2583    1.0000 </r>
       <r>  -30.9164    1.0000 </r>
       <r>  -30.9122    1.0000 </r>
       <r>  -30.4974    1.0000 </r>
       <r>  -30.4951    1.0000 </r>
       <r>  -30.4778    1.0000 </r>
       <r>  -30.4756    1.0000 </r>
       <r>   -3.7493    1.0000 </r>
       <r>   -3.0826    1.0000 </r>
       <r>   -1.7894    1.0000 </r>
       <r>   -1.6854    1.0000 </r>
       <r>   -1.4750    1.0000 </r>
       <r>   -1.2206    1.0000 </r>
       <r>    1.2912    1.0000 </r>
       <r>    1.6507    1.0000 </r>
       <r>    1.7349    1.0000 </r>
       <r>    1.8542    1.0000 </r>
       <r>    2.1848    1.0000 </r>
       <r>    2.2238    1.0000 </r>
       <r>    2.3386    1.0000 </r>
       <r>    2.6170    1.0000 </r>
       <r>    2.9708    1.0000 </r>
       <r>    3.0259    1.0000 </r>
       <r>    3.2709    1.0000 </r>
       <r>    3.5128    1.0000 </r>
       <r>    3.5637    1.0000 </r>
       <r>    3.7373    1.0000 </r>
       <r>    4.6712    1.0000 </r>
       <r>    4.7425    1.0000 </r>
       <r>    5.1088    0.0000 </r>
       <r>    5.1762    0.0000 </r>
       <r>    5.6095    0.0000 </r>
       <r>    5.6314    0.0000 </r>
       <r>    7.1631    0.0000 </r>
       <r>    7.3548    0.0000 </r>
       <r>    7.9813    0.0000 </r>
       <r>    8.0181    0.0000 </r>
       <r>    8.2155    0.0000 </r>
       <r>    8.4055    0.0000 </r>
      </set>
      <set comment="kpoint 5">
       <r>  -57.9897    1.0000 </r>
       <r>  -57.9894    1.0000 </r>
       <r>  -57.1553    1.0000 </r>
       <r>  -57.1552    1.0000 </r>
       <r>  -31.4539    1.0000 </r>
       <r>  -31.4535    1.0000 </r>
       <r>  -31.3026    1.0000 </r>
       <r>  -31.3025    1.0000 </r>
       <r>  -31.2661    1.0000 </r>
       <r>  -31.2660    1.0000 </r>
       <r>  -30.9200    1.0000 </r>
       <r>  -30.9082    1.0000 </r>
       <r>  -30.4845    1.0000 </r>
       <r>  -30.4842    1.0000 </r>
       <r>  -30.4765    1.0000 </r>
       <r>  -30.4761    1.0000 </r>
       <r>   -4.3929    1.0000 </r>
       <r>   -2.1228    1.0000 </r>
       <r>   -2.0588    1.0000 </r>
       <r>   -1.9468    1.0000 </r>
       <r>   -0.8901    1.0000 </r>
       <r>   -0.6621    1.0000 </r>
       <r>    0.7751    1.0000 </r>
       <r>    0.8631    1.0000 </r>
       <r>    1.1139    1.0000 </r>
       <r>    1.3052    1.0000 </r>
       <r>    2.0656    1.0000 </r>
       <r>    2.3266    1.0000 </r>
       <r>    2.5093    1.0000 </r>
       <r>    2.6882    1.0000 </r>
       <r>    2.9500    1.0000 </r>
       <r>    3.0137    1.0000 </r>
       <r>    3.2086    1.0000 </r>
       <r>    3.7066    1.0000 </r>
       <r>    4.0561    1.0000 </r>
       <r>    4.4914    1.0000 </r>
       <r>    4.9633    1.0000 </r>
       <r>    5.1487    0.0000 </r>
       <r>    5.4433    0.0000 </r>
       <r>    5.5593    0.0000 </r>
       <r>    5.5919    0.0000 </r>
       <r>    5.6882    0.0000 </r>
       <r>    7.2612    0.0000 </r>
       <r>    7.5391    0.0000 </r>
       <r>    7.7275    0.0000 </r>
       <r>    7.9606    0.0000 </r>
       <r>    8.0062    0.0000 </r>
       <r>    8.2518    0.0000 </r>
      </set>
      <set comment="kpoint 6">
       <r>  -57.9896    1.0000 </r>
       <r>  -57.9895    1.0000 </r>
       <r>  -57.1554    1.0000 </r>
       <r>  -57.1553    1.0000 </r>
       <r>  -31.4538    1.0000 </r>
       <r>  -31.4534    1.0000 </r>
       <r>  -31.2996    1.0000 </r>
       <r>  -31.2984    1.0000 </r>
       <r>  -31.2623    1.0000 </r>
       <r>  -31.2611    1.0000 </r>
       <r>  -30.9163    1.0000 </r>
       <r>  -30.9121    1.0000 </r>
       <r>  -30.4919    1.0000 </r>
       <r>  -30.4865    1.0000 </r>
       <r>  -30.4830    1.0000 </r>
       <r>  -30.4777    1.0000 </r>
       <r>   -3.9961    1.0000 </r>
       <r>   -2.7395    1.0000 </r>
       <r>   -1.9650    1.0000 </r>
       <r>   -1.7959    1.0000 </r>
       <r>   -1.3171    1.0000 </r>
       <r>   -0.9028    1.0000 </r>
       <r>    1.0296    1.0000 </r>
       <r>    1.2952    1.0000 </r>
       <r>    1.4594    1.0000 </r>
       <r>    1.7280    1.0000 </r>
       <r>    2.1128    1.0000 </r>
       <r>    2.5264    1.0000 </r>
       <r>    2.5866    1.0000 </r>
       <r>    2.6892    1.0000 </r>
       <r>    2.8121    1.0000 </r>
       <r>    2.9603    1.0000 </r>
       <r>    3.0994    1.0000 </r>
       <r>    3.3787    1.0000 </r>
       <r>    3.9474    1.0000 </r>
       <r>    4.1399    1.0000 </r>
       <r>    4.7376    1.0000 </r>
       <r>    4.7983    1.0000 </r>
       <r>    5.1901    0.0000 </r>
       <r>    5.3251    0.0000 </r>
       <r>    5.4985    0.0000 </r>
       <r>    5.5611    0.0000 </r>
       <r>    7.4408    0.0000 </r>
       <r>    7.5937    0.0000 </r>
       <r>    7.8271    0.0000 </r>
       <r>    7.9905    0.0000 </r>
       <r>    8.0330    0.0000 </r>
       <r>    8.2081    0.0000 </r>
      </set>
      <set comment="kpoint 7">
       <r>  -57.9895    1.0000 </r>
       <r>  -57.9895    1.0000 </r>
       <r>  -57.1555    1.0000 </r>
       <r>  -57.1552    1.0000 </r>
       <r>  -31.4541    1.0000 </r>
       <r>  -31.4530    1.0000 </r>
       <r>  -31.2970    1.0000 </r>
       <r>  -31.2963    1.0000 </r>
       <r>  -31.2580    1.0000 </r>
       <r>  -31.2572    1.0000 </r>
       <r>  -30.9164    1.0000 </r>
       <r>  -30.9122    1.0000 </r>
       <r>  -30.4973    1.0000 </r>
       <r>  -30.4954    1.0000 </r>
       <r>  -30.4815    1.0000 </r>
       <r>  -30.4796    1.0000 </r>
       <r>   -3.4156    1.0000 </r>
       <r>   -3.3671    1.0000 </r>
       <r>   -1.8197    1.0000 </r>
       <r>   -1.7242    1.0000 </r>
       <r>   -1.4609    1.0000 </r>
       <r>   -1.2159    1.0000 </r>
       <r>    1.4024    1.0000 </r>
       <r>    1.5879    1.0000 </r>
       <r>    1.8528    1.0000 </r>
       <r>    1.9415    1.0000 </r>
       <r>    2.0213    1.0000 </r>
       <r>    2.2199    1.0000 </r>
       <r>    2.2322    1.0000 </r>
       <r>    2.5937    1.0000 </r>
       <r>    2.9845    1.0000 </r>
       <r>    3.1210    1.0000 </r>
       <r>    3.1587    1.0000 </r>
       <r>    3.5026    1.0000 </r>
       <r>    3.6412    1.0000 </r>
       <r>    3.6833    1.0000 </r>
       <r>    4.5647    1.0000 </r>
       <r>    4.7713    1.0000 </r>
       <r>    4.9865    0.9985 </r>
       <r>    5.2044    0.0000 </r>
       <r>    5.4389    0.0000 </r>
       <r>    5.5673    0.0000 </r>
       <r>    7.3003    0.0000 </r>
       <r>    7.5120    0.0000 </r>
       <r>    7.8456    0.0000 </r>
       <r>    7.9693    0.0000 </r>
       <r>    8.0380    0.0000 </r>
       <r>    8.2848    0.0000 </r>
      </set>
      <set comment="kpoint 8">
       <r>  -57.9896    1.0000 </r>
       <r>  -57.9895    1.0000 </r>
       <r>  -57.1556    1.0000 </r>
       <r>  -57.1552    1.0000 </r>
       <r>  -31.4543    1.0000 </r>
       <r>  -31.4528    1.0000 </r>
       <r>  -31.2969    1.0000 </r>
       <r>  -31.2963    1.0000 </r>
       <r>  -31.2580    1.0000 </r>
       <r>  -31.2573    1.0000 </r>
       <r>  -30.9202    1.0000 </r>
       <r>  -30.9084    1.0000 </r>
       <r>  -30.4974    1.0000 </r>
       <r>  -30.4953    1.0000 </r>
       <r>  -30.4816    1.0000 </r>
       <r>  -30.4795    1.0000 </r>
       <r>   -3.9192    1.0000 </r>
       <r>   -2.6921    1.0000 </r>
       <r>   -1.8986    1.0000 </r>
       <r>   -1.6622    1.0000 </r>
       <r>   -1.4763    1.0000 </r>
       <r>   -1.1852    1.0000 </r>
       <r>    1.1776    1.0000 </r>
       <r>    1.4559    1.0000 </r>
       <r>    1.6707    1.0000 </r>
       <r>    1.8976    1.0000 </r>
       <r>    2.0988    1.0000 </r>
       <r>    2.4339    1.0000 </r>
       <r>    2.4766    1.0000 </r>
       <r>    2.5240    1.0000 </r>
       <r>    2.7052    1.0000 </r>
       <r>    3.0686    1.0000 </r>
       <r>    3.2907    1.0000 </r>
       <r>    3.3684    1.0000 </r>
       <r>    3.4889    1.0000 </r>
       <r>    3.9698    1.0000 </r>
       <r>    4.4212    1.0000 </r>
       <r>    4.7450    1.0000 </r>
       <r>    5.2183    0.0000 </r>
       <r>    5.3802    0.0000 </r>
       <r>    5.4732    0.0000 </r>
       <r>    5.7072    0.0000 </r>
       <r>    7.0563    0.0000 </r>
       <r>    7.5343    0.0000 </r>
       <r>    7.6200    0.0000 </r>
       <r>    7.8755    0.0000 </r>
       <r>    7.9947    0.0000 </r>
       <r>    8.6407    0.0000 </r>
      </set>
      <set comment="kpoint 9">
       <r>  -57.9897    1.0000 </r>
       <r>  -57.9894    1.0000 </r>
       <r>  -57.1556    1.0000 </r>
       <r>  -57.1551    1.0000 </r>
       <r>  -31.4544    1.0000 </r>
       <r>  -31.4528    1.0000 </r>
       <r>  -31.2995    1.0000 </r>
       <r>  -31.2984    1.0000 </r>
       <r>  -31.2623    1.0000 </r>
       <r>  -31.2611    1.0000 </r>
       <r>  -30.9228    1.0000 </r>
       <r>  -30.9057    1.0000 </r>
       <r>  -30.4920    1.0000 </r>
       <r>  -30.4865    1.0000 </r>
       <r>  -30.4831    1.0000 </r>
       <r>  -30.4776    1.0000 </r>
       <r>   -4.3310    1.0000 </r>
       <r>   -2.0252    1.0000 </r>
       <r>   -1.9083    1.0000 </r>
       <r>   -1.8023    1.0000 </r>
       <r>   -1.2980    1.0000 </r>
       <r>   -0.9245    1.0000 </r>
       <r>    0.9032    1.0000 </r>
       <r>    0.9895    1.0000 </r>
       <r>    1.3119    1.0000 </r>
       <r>    1.5900    1.0000 </r>
       <r>    1.6675    1.0000 </r>
       <r>    2.4283    1.0000 </r>
       <r>    2.6867    1.0000 </r>
       <r>    2.7063    1.0000 </r>
       <r>    2.9998    1.0000 </r>
       <r>    3.1052    1.0000 </r>
       <r>    3.2132    1.0000 </r>
       <r>    3.4894    1.0000 </r>
       <r>    3.9926    1.0000 </r>
       <r>    4.0888    1.0000 </r>
       <r>    4.3107    1.0000 </r>
       <r>    5.0378    0.2521 </r>
       <r>    5.3541    0.0000 </r>
       <r>    5.5537    0.0000 </r>
       <r>    5.5863    0.0000 </r>
       <r>    5.9911    0.0000 </r>
       <r>    6.9073    0.0000 </r>
       <r>    7.4400    0.0000 </r>
       <r>    7.6866    0.0000 </r>
       <r>    7.7314    0.0000 </r>
       <r>    8.1427    0.0000 </r>
       <r>    8.3279    0.0000 </r>
      </set>
      <set comment="kpoint 10">
       <r>  -57.9897    1.0000 </r>
       <r>  -57.9894    1.0000 </r>
       <r>  -57.1555    1.0000 </r>
       <r>  -57.1551    1.0000 </r>
       <r>  -31.4544    1.0000 </r>
       <r>  -31.4530    1.0000 </r>
       <r>  -31.3026    1.0000 </r>
       <r>  -31.3026    1.0000 </r>
       <r>  -31.2661    1.0000 </r>
       <r>  -31.2660    1.0000 </r>
       <r>  -30.9236    1.0000 </r>
       <r>  -30.9046    1.0000 </r>
       <r>  -30.4846    1.0000 </r>
       <r>  -30.4842    1.0000 </r>
       <r>  -30.4763    1.0000 </r>
       <r>  -30.4761    1.0000 </r>
       <r>   -4.5604    1.0000 </r>
       <r>   -2.0816    1.0000 </r>
       <r>   -1.9615    1.0000 </r>
       <r>   -1.4217    1.0000 </r>
       <r>   -0.8429    1.0000 </r>
       <r>   -0.7886    1.0000 </r>
       <r>    0.7370    1.0000 </r>
       <r>    0.8109    1.0000 </r>
       <r>    0.9447    1.0000 </r>
       <r>    1.0727    1.0000 </r>
       <r>    1.3570    1.0000 </r>
       <r>    2.3296    1.0000 </r>
       <r>    2.5096    1.0000 </r>
       <r>    2.9649    1.0000 </r>
       <r>    3.0006    1.0000 </r>
       <r>    3.4212    1.0000 </r>
       <r>    3.4220    1.0000 </r>
       <r>    3.6797    1.0000 </r>
       <r>    3.9311    1.0000 </r>
       <r>    4.1990    1.0000 </r>
       <r>    4.9466    1.0000 </r>
       <r>    5.3964    0.0000 </r>
       <r>    5.4237    0.0000 </r>
       <r>    5.6452    0.0000 </r>
       <r>    5.6828    0.0000 </r>
       <r>    5.9440    0.0000 </r>
       <r>    6.9770    0.0000 </r>
       <r>    7.3924    0.0000 </r>
       <r>    7.4661    0.0000 </r>
       <r>    7.9568    0.0000 </r>
       <r>    8.1833    0.0000 </r>
       <r>    8.4501    0.0000 </r>
      </set>
      <set comment="kpoint 11">
       <r>  -57.9896    1.0000 </r>
       <r>  -57.9895    1.0000 </r>
       <r>  -57.1556    1.0000 </r>
       <r>  -57.1552    1.0000 </r>
       <r>  -31.4542    1.0000 </r>
       <r>  -31.4528    1.0000 </r>
       <r>  -31.2948    1.0000 </r>
       <r>  -31.2947    1.0000 </r>
       <r>  -31.2581    1.0000 </r>
       <r>  -31.2581    1.0000 </r>
       <r>  -30.9165    1.0000 </r>
       <r>  -30.9122    1.0000 </r>
       <r>  -30.4917    1.0000 </r>
       <r>  -30.4907    1.0000 </r>
       <r>  -30.4879    1.0000 </r>
       <r>  -30.4868    1.0000 </r>
       <r>   -3.5432    1.0000 </r>
       <r>   -3.1503    1.0000 </r>
       <r>   -1.9353    1.0000 </r>
       <r>   -1.7403    1.0000 </r>
       <r>   -1.5156    1.0000 </r>
       <r>   -0.9972    1.0000 </r>
       <r>    1.4126    1.0000 </r>
       <r>    1.4202    1.0000 </r>
       <r>    1.6590    1.0000 </r>
       <r>    1.7399    1.0000 </r>
       <r>    2.0329    1.0000 </r>
       <r>    2.1526    1.0000 </r>
       <r>    2.6194    1.0000 </r>
       <r>    2.6927    1.0000 </r>
       <r>    2.9027    1.0000 </r>
       <r>    2.9763    1.0000 </r>
       <r>    3.1471    1.0000 </r>
       <r>    3.4696    1.0000 </r>
       <r>    3.7441    1.0000 </r>
       <r>    3.8812    1.0000 </r>
       <r>    4.5012    1.0000 </r>
       <r>    4.7727    1.0000 </r>
       <r>    5.0197    0.7295 </r>
       <r>    5.1260    0.0000 </r>
       <r>    5.3972    0.0000 </r>
       <r>    5.4202    0.0000 </r>
       <r>    7.3680    0.0000 </r>
       <r>    7.7587    0.0000 </r>
       <r>    7.9836    0.0000 </r>
       <r>    7.9986    0.0000 </r>
       <r>    8.1899    0.0000 </r>
       <r>    8.2575    0.0000 </r>
      </set>
      <set comment="kpoint 12">
       <r>  -57.9895    1.0000 </r>
       <r>  -57.9895    1.0000 </r>
       <r>  -57.1557    1.0000 </r>
       <r>  -57.1551    1.0000 </r>
       <r>  -31.4545    1.0000 </r>
       <r>  -31.4524    1.0000 </r>
       <r>  -31.2920    1.0000 </r>
       <r>  -31.2917    1.0000 </r>
       <r>  -31.2546    1.0000 </r>
       <r>  -31.2543    1.0000 </r>
       <r>  -30.9204    1.0000 </r>
       <r>  -30.9085    1.0000 </r>
       <r>  -30.4971    1.0000 </r>
       <r>  -30.4960    1.0000 </r>
       <r>  -30.4899    1.0000 </r>
       <r>  -30.4887    1.0000 </r>
       <r>   -3.5634    1.0000 </r>
       <r>   -2.9334    1.0000 </r>
       <r>   -1.9316    1.0000 </r>
       <r>   -1.8386    1.0000 </r>
       <r>   -1.4095    1.0000 </r>
       <r>   -1.1590    1.0000 </r>
       <r>    1.3028    1.0000 </r>
       <r>    1.5504    1.0000 </r>
       <r>    1.6784    1.0000 </r>
       <r>    1.9291    1.0000 </r>
       <r>    2.0504    1.0000 </r>
       <r>    2.2586    1.0000 </r>
       <r>    2.4770    1.0000 </r>
       <r>    2.5737    1.0000 </r>
       <r>    2.8412    1.0000 </r>
       <r>    2.9360    1.0000 </r>
       <r>    3.1371    1.0000 </r>
       <r>    3.1933    1.0000 </r>
       <r>    3.6132    1.0000 </r>
       <r>    4.1353    1.0000 </r>
       <r>    4.3017    1.0000 </r>
       <r>    4.4356    1.0000 </r>
       <r>    4.9885    0.9976 </r>
       <r>    5.2671    0.0000 </r>
       <r>    5.2956    0.0000 </r>
       <r>    5.7310    0.0000 </r>
       <r>    7.0339    0.0000 </r>
       <r>    7.4898    0.0000 </r>
       <r>    7.9431    0.0000 </r>
       <r>    8.1988    0.0000 </r>
       <r>    8.3194    0.0000 </r>
       <r>    8.5841    0.0000 </r>
      </set>
      <set comment="kpoint 13">
       <r>  -57.9895    1.0000 </r>
       <r>  -57.9894    1.0000 </r>
       <r>  -57.1558    1.0000 </r>
       <r>  -57.1551    1.0000 </r>
       <r>  -31.4546    1.0000 </r>
       <r>  -31.4522    1.0000 </r>
       <r>  -31.2919    1.0000 </r>
       <r>  -31.2917    1.0000 </r>
       <r>  -31.2546    1.0000 </r>
       <r>  -31.2544    1.0000 </r>
       <r>  -30.9230    1.0000 </r>
       <r>  -30.9058    1.0000 </r>
       <r>  -30.4974    1.0000 </r>
       <r>  -30.4957    1.0000 </r>
       <r>  -30.4901    1.0000 </r>
       <r>  -30.4885    1.0000 </r>
       <r>   -3.9395    1.0000 </r>
       <r>   -2.2266    1.0000 </r>
       <r>   -2.0417    1.0000 </r>
       <r>   -1.7041    1.0000 </r>
       <r>   -1.3919    1.0000 </r>
       <r>   -1.3207    1.0000 </r>
       <r>    1.0635    1.0000 </r>
       <r>    1.2470    1.0000 </r>
       <r>    1.6795    1.0000 </r>
       <r>    1.8297    1.0000 </r>
       <r>    2.0343    1.0000 </r>
       <r>    2.3384    1.0000 </r>
       <r>    2.5011    1.0000 </r>
       <r>    2.7846    1.0000 </r>
       <r>    2.8951    1.0000 </r>
       <r>    3.0561    1.0000 </r>
       <r>    3.1095    1.0000 </r>
       <r>    3.2845    1.0000 </r>
       <r>    3.3440    1.0000 </r>
       <r>    3.9856    1.0000 </r>
       <r>    4.2475    1.0000 </r>
       <r>    4.5389    1.0000 </r>
       <r>    4.9674    1.0000 </r>
       <r>    5.2827    0.0000 </r>
       <r>    5.5239    0.0000 </r>
       <r>    6.2625    0.0000 </r>
       <r>    6.7847    0.0000 </r>
       <r>    7.3079    0.0000 </r>
       <r>    7.7983    0.0000 </r>
       <r>    8.1083    0.0000 </r>
       <r>    8.5176    0.0000 </r>
       <r>    8.8776    0.0000 </r>
      </set>
      <set comment="kpoint 14">
       <r>  -57.9896    1.0000 </r>
       <r>  -57.9894    1.0000 </r>
       <r>  -57.1557    1.0000 </r>
       <r>  -57.1551    1.0000 </r>
       <r>  -31.4546    1.0000 </r>
       <r>  -31.4524    1.0000 </r>
       <r>  -31.2947    1.0000 </r>
       <r>  -31.2947    1.0000 </r>
       <r>  -31.2582    1.0000 </r>
       <r>  -31.2580    1.0000 </r>
       <r>  -30.9238    1.0000 </r>
       <r>  -30.9048    1.0000 </r>
       <r>  -30.4920    1.0000 </r>
       <r>  -30.4907    1.0000 </r>
       <r>  -30.4877    1.0000 </r>
       <r>  -30.4867    1.0000 </r>
       <r>   -4.2132    1.0000 </r>
       <r>   -2.0652    1.0000 </r>
       <r>   -1.6625    1.0000 </r>
       <r>   -1.6385    1.0000 </r>
       <r>   -1.4487    1.0000 </r>
       <r>   -1.3686    1.0000 </r>
       <r>    0.9126    1.0000 </r>
       <r>    1.1111    1.0000 </r>
       <r>    1.4591    1.0000 </r>
       <r>    1.6155    1.0000 </r>
       <r>    1.8070    1.0000 </r>
       <r>    2.1843    1.0000 </r>
       <r>    2.6980    1.0000 </r>
       <r>    2.9929    1.0000 </r>
       <r>    3.0631    1.0000 </r>
       <r>    3.1301    1.0000 </r>
       <r>    3.3268    1.0000 </r>
       <r>    3.3732    1.0000 </r>
       <r>    3.3911    1.0000 </r>
       <r>    4.0032    1.0000 </r>
       <r>    4.1122    1.0000 </r>
       <r>    4.9069    1.0000 </r>
       <r>    5.0376    0.2581 </r>
       <r>    5.3954    0.0000 </r>
       <r>    5.6278    0.0000 </r>
       <r>    6.3815    0.0000 </r>
       <r>    6.7407    0.0000 </r>
       <r>    7.2672    0.0000 </r>
       <r>    7.6962    0.0000 </r>
       <r>    7.9585    0.0000 </r>
       <r>    8.4931    0.0000 </r>
       <r>    8.6962    0.0000 </r>
      </set>
      <set comment="kpoint 15">
       <r>  -57.9895    1.0000 </r>
       <r>  -57.9894    1.0000 </r>
       <r>  -57.1559    1.0000 </r>
       <r>  -57.1551    1.0000 </r>
       <r>  -31.4547    1.0000 </r>
       <r>  -31.4520    1.0000 </r>
       <r>  -31.2885    1.0000 </r>
       <r>  -31.2884    1.0000 </r>
       <r>  -31.2514    1.0000 </r>
       <r>  -31.2513    1.0000 </r>
       <r>  -30.9231    1.0000 </r>
       <r>  -30.9059    1.0000 </r>
       <r>  -30.4975    1.0000 </r>
       <r>  -30.4974    1.0000 </r>
       <r>  -30.4959    1.0000 </r>
       <r>  -30.4956    1.0000 </r>
       <r>   -3.7164    1.0000 </r>
       <r>   -2.3532    1.0000 </r>
       <r>   -2.0969    1.0000 </r>
       <r>   -1.8202    1.0000 </r>
       <r>   -1.4816    1.0000 </r>
       <r>   -1.1543    1.0000 </r>
       <r>    1.1110    1.0000 </r>
       <r>    1.2943    1.0000 </r>
       <r>    1.7191    1.0000 </r>
       <r>    1.8786    1.0000 </r>
       <r>    1.9578    1.0000 </r>
       <r>    2.3350    1.0000 </r>
       <r>    2.6726    1.0000 </r>
       <r>    2.6846    1.0000 </r>
       <r>    2.8291    1.0000 </r>
       <r>    2.9402    1.0000 </r>
       <r>    3.1237    1.0000 </r>
       <r>    3.2284    1.0000 </r>
       <r>    3.4921    1.0000 </r>
       <r>    3.8925    1.0000 </r>
       <r>    4.0342    1.0000 </r>
       <r>    4.3648    1.0000 </r>
       <r>    4.8279    1.0000 </r>
       <r>    5.1229    0.0000 </r>
       <r>    5.5066    0.0000 </r>
       <r>    6.3661    0.0000 </r>
       <r>    6.7413    0.0000 </r>
       <r>    7.2736    0.0000 </r>
       <r>    7.8327    0.0000 </r>
       <r>    8.7773    0.0000 </r>
       <r>    8.8657    0.0000 </r>
       <r>    9.0582    0.0000 </r>
      </set>
      <set comment="kpoint 16">
       <r>  -57.9895    1.0000 </r>
       <r>  -57.9894    1.0000 </r>
       <r>  -57.1559    1.0000 </r>
       <r>  -57.1550    1.0000 </r>
       <r>  -31.4548    1.0000 </r>
       <r>  -31.4520    1.0000 </r>
       <r>  -31.2885    1.0000 </r>
       <r>  -31.2884    1.0000 </r>
       <r>  -31.2514    1.0000 </r>
       <r>  -31.2513    1.0000 </r>
       <r>  -30.9240    1.0000 </r>
       <r>  -30.9050    1.0000 </r>
       <r>  -30.4979    1.0000 </r>
       <r>  -30.4970    1.0000 </r>
       <r>  -30.4961    1.0000 </r>
       <r>  -30.4954    1.0000 </r>
       <r>   -3.8524    1.0000 </r>
       <r>   -2.1320    1.0000 </r>
       <r>   -1.7755    1.0000 </r>
       <r>   -1.7737    1.0000 </r>
       <r>   -1.7669    1.0000 </r>
       <r>   -1.2313    1.0000 </r>
       <r>    0.9996    1.0000 </r>
       <r>    1.1700    1.0000 </r>
       <r>    1.7516    1.0000 </r>
       <r>    1.7833    1.0000 </r>
       <r>    2.0327    1.0000 </r>
       <r>    2.2933    1.0000 </r>
       <r>    2.6702    1.0000 </r>
       <r>    2.6711    1.0000 </r>
       <r>    2.9524    1.0000 </r>
       <r>    3.0847    1.0000 </r>
       <r>    3.1059    1.0000 </r>
       <r>    3.2980    1.0000 </r>
       <r>    3.3796    1.0000 </r>
       <r>    3.7106    1.0000 </r>
       <r>    4.1314    1.0000 </r>
       <r>    4.3436    1.0000 </r>
       <r>    4.8076    1.0000 </r>
       <r>    5.1286    0.0000 </r>
       <r>    5.6058    0.0000 </r>
       <r>    6.6353    0.0000 </r>
       <r>    6.6960    0.0000 </r>
       <r>    7.2074    0.0000 </r>
       <r>    7.7639    0.0000 </r>
       <r>    8.6074    0.0000 </r>
       <r>    8.9966    0.0000 </r>
       <r>    9.1478    0.0000 </r>
      </set>
      <set comment="kpoint 17">
       <r>  -57.9898    1.0000 </r>
       <r>  -57.9894    1.0000 </r>
       <r>  -57.1555    1.0000 </r>
       <r>  -57.1551    1.0000 </r>
       <r>  -31.4544    1.0000 </r>
       <r>  -31.4530    1.0000 </r>
       <r>  -31.3034    1.0000 </r>
       <r>  -31.3033    1.0000 </r>
       <r>  -31.2668    1.0000 </r>
       <r>  -31.2668    1.0000 </r>
       <r>  -30.9236    1.0000 </r>
       <r>  -30.9046    1.0000 </r>
       <r>  -30.4838    1.0000 </r>
       <r>  -30.4836    1.0000 </r>
       <r>  -30.4753    1.0000 </r>
       <r>  -30.4750    1.0000 </r>
       <r>   -4.5908    1.0000 </r>
       <r>   -2.0924    1.0000 </r>
       <r>   -1.9829    1.0000 </r>
       <r>   -1.3960    1.0000 </r>
       <r>   -0.7527    1.0000 </r>
       <r>   -0.6991    1.0000 </r>
       <r>    0.6589    1.0000 </r>
       <r>    0.8011    1.0000 </r>
       <r>    0.8657    1.0000 </r>
       <r>    1.0051    1.0000 </r>
       <r>    1.3467    1.0000 </r>
       <r>    2.2655    1.0000 </r>
       <r>    2.4693    1.0000 </r>
       <r>    2.9686    1.0000 </r>
       <r>    3.0894    1.0000 </r>
       <r>    3.4251    1.0000 </r>
       <r>    3.4563    1.0000 </r>
       <r>    3.7191    1.0000 </r>
       <r>    3.9158    1.0000 </r>
       <r>    4.2295    1.0000 </r>
       <r>    5.1220    0.0000 </r>
       <r>    5.4388    0.0000 </r>
       <r>    5.4630    0.0000 </r>
       <r>    5.6678    0.0000 </r>
       <r>    5.6886    0.0000 </r>
       <r>    5.8976    0.0000 </r>
       <r>    7.0104    0.0000 </r>
       <r>    7.3933    0.0000 </r>
       <r>    7.4092    0.0000 </r>
       <r>    7.8845    0.0000 </r>
       <r>    7.9247    0.0000 </r>
       <r>    8.3157    0.0000 </r>
      </set>
      <set comment="kpoint 18">
       <r>  -57.9897    1.0000 </r>
       <r>  -57.9894    1.0000 </r>
       <r>  -57.1556    1.0000 </r>
       <r>  -57.1551    1.0000 </r>
       <r>  -31.4544    1.0000 </r>
       <r>  -31.4529    1.0000 </r>
       <r>  -31.3004    1.0000 </r>
       <r>  -31.2993    1.0000 </r>
       <r>  -31.2633    1.0000 </r>
       <r>  -31.2620    1.0000 </r>
       <r>  -30.9227    1.0000 </r>
       <r>  -30.9056    1.0000 </r>
       <r>  -30.4911    1.0000 </r>
       <r>  -30.4851    1.0000 </r>
       <r>  -30.4823    1.0000 </r>
       <r>  -30.4765    1.0000 </r>
       <r>   -4.3740    1.0000 </r>
       <r>   -2.0262    1.0000 </r>
       <r>   -1.8853    1.0000 </r>
       <r>   -1.8238    1.0000 </r>
       <r>   -1.2385    1.0000 </r>
       <r>   -0.8550    1.0000 </r>
       <r>    0.8467    1.0000 </r>
       <r>    0.9676    1.0000 </r>
       <r>    1.2534    1.0000 </r>
       <r>    1.5375    1.0000 </r>
       <r>    1.6146    1.0000 </r>
       <r>    2.4765    1.0000 </r>
       <r>    2.6374    1.0000 </r>
       <r>    2.7059    1.0000 </r>
       <r>    2.9865    1.0000 </r>
       <r>    3.1444    1.0000 </r>
       <r>    3.2241    1.0000 </r>
       <r>    3.5324    1.0000 </r>
       <r>    4.0084    1.0000 </r>
       <r>    4.1592    1.0000 </r>
       <r>    4.4042    1.0000 </r>
       <r>    5.0876    0.0000 </r>
       <r>    5.3995    0.0000 </r>
       <r>    5.5822    0.0000 </r>
       <r>    5.5958    0.0000 </r>
       <r>    5.9524    0.0000 </r>
       <r>    6.9231    0.0000 </r>
       <r>    7.4656    0.0000 </r>
       <r>    7.6651    0.0000 </r>
       <r>    7.7164    0.0000 </r>
       <r>    8.0937    0.0000 </r>
       <r>    8.2343    0.0000 </r>
      </set>
      <set comment="kpoint 19">
       <r>  -57.9896    1.0000 </r>
       <r>  -57.9895    1.0000 </r>
       <r>  -57.1556    1.0000 </r>
       <r>  -57.1552    1.0000 </r>
       <r>  -31.4542    1.0000 </r>
       <r>  -31.4529    1.0000 </r>
       <r>  -31.2977    1.0000 </r>
       <r>  -31.2969    1.0000 </r>
       <r>  -31.2587    1.0000 </r>
       <r>  -31.2578    1.0000 </r>
       <r>  -30.9202    1.0000 </r>
       <r>  -30.9084    1.0000 </r>
       <r>  -30.4971    1.0000 </r>
       <r>  -30.4944    1.0000 </r>
       <r>  -30.4810    1.0000 </r>
       <r>  -30.4784    1.0000 </r>
       <r>   -3.9689    1.0000 </r>
       <r>   -2.6490    1.0000 </r>
       <r>   -1.8994    1.0000 </r>
       <r>   -1.6675    1.0000 </r>
       <r>   -1.4812    1.0000 </r>
       <r>   -1.1424    1.0000 </r>
       <r>    1.1464    1.0000 </r>
       <r>    1.4114    1.0000 </r>
       <r>    1.6190    1.0000 </r>
       <r>    1.9691    1.0000 </r>
       <r>    2.0473    1.0000 </r>
       <r>    2.3921    1.0000 </r>
       <r>    2.5096    1.0000 </r>
       <r>    2.5715    1.0000 </r>
       <r>    2.7286    1.0000 </r>
       <r>    3.0137    1.0000 </r>
       <r>    3.2519    1.0000 </r>
       <r>    3.4056    1.0000 </r>
       <r>    3.6073    1.0000 </r>
       <r>    3.9522    1.0000 </r>
       <r>    4.4318    1.0000 </r>
       <r>    4.7774    1.0000 </r>
       <r>    5.2509    0.0000 </r>
       <r>    5.3954    0.0000 </r>
       <r>    5.5010    0.0000 </r>
       <r>    5.7032    0.0000 </r>
       <r>    7.0545    0.0000 </r>
       <r>    7.5142    0.0000 </r>
       <r>    7.6376    0.0000 </r>
       <r>    7.8664    0.0000 </r>
       <r>    7.9720    0.0000 </r>
       <r>    8.5344    0.0000 </r>
      </set>
      <set comment="kpoint 20">
       <r>  -57.9895    1.0000 </r>
       <r>  -57.9895    1.0000 </r>
       <r>  -57.1555    1.0000 </r>
       <r>  -57.1552    1.0000 </r>
       <r>  -31.4540    1.0000 </r>
       <r>  -31.4531    1.0000 </r>
       <r>  -31.2973    1.0000 </r>
       <r>  -31.2967    1.0000 </r>
       <r>  -31.2580    1.0000 </r>
       <r>  -31.2573    1.0000 </r>
       <r>  -30.9164    1.0000 </r>
       <r>  -30.9122    1.0000 </r>
       <r>  -30.4975    1.0000 </r>
       <r>  -30.4960    1.0000 </r>
       <r>  -30.4804    1.0000 </r>
       <r>  -30.4790    1.0000 </r>
       <r>   -3.4143    1.0000 </r>
       <r>   -3.3830    1.0000 </r>
       <r>   -1.7928    1.0000 </r>
       <r>   -1.7252    1.0000 </r>
       <r>   -1.4433    1.0000 </r>
       <r>   -1.2631    1.0000 </r>
       <r>    1.4458    1.0000 </r>
       <r>    1.5671    1.0000 </r>
       <r>    1.8881    1.0000 </r>
       <r>    1.9684    1.0000 </r>
       <r>    2.0026    1.0000 </r>
       <r>    2.1652    1.0000 </r>
       <r>    2.2810    1.0000 </r>
       <r>    2.5515    1.0000 </r>
       <r>    3.0062    1.0000 </r>
       <r>    3.1425    1.0000 </r>
       <r>    3.2002    1.0000 </r>
       <r>    3.4733    1.0000 </r>
       <r>    3.5975    1.0000 </r>
       <r>    3.6699    1.0000 </r>
       <r>    4.5778    1.0000 </r>
       <r>    4.7622    1.0000 </r>
       <r>    5.0058    0.9448 </r>
       <r>    5.1914    0.0000 </r>
       <r>    5.4700    0.0000 </r>
       <r>    5.5839    0.0000 </r>
       <r>    7.2797    0.0000 </r>
       <r>    7.4513    0.0000 </r>
       <r>    7.8585    0.0000 </r>
       <r>    7.9495    0.0000 </r>
       <r>    8.0305    0.0000 </r>
       <r>    8.3211    0.0000 </r>
      </set>
      <set comment="kpoint 21">
       <r>  -57.9896    1.0000 </r>
       <r>  -57.9895    1.0000 </r>
       <r>  -57.1554    1.0000 </r>
       <r>  -57.1553    1.0000 </r>
       <r>  -31.4538    1.0000 </r>
       <r>  -31.4535    1.0000 </r>
       <r>  -31.2997    1.0000 </r>
       <r>  -31.2984    1.0000 </r>
       <r>  -31.2621    1.0000 </r>
       <r>  -31.2607    1.0000 </r>
       <r>  -30.9163    1.0000 </r>
       <r>  -30.9121    1.0000 </r>
       <r>  -30.4929    1.0000 </r>
       <r>  -30.4877    1.0000 </r>
       <r>  -30.4821    1.0000 </r>
       <r>  -30.4770    1.0000 </r>
       <r>   -3.9777    1.0000 </r>
       <r>   -2.7709    1.0000 </r>
       <r>   -1.9477    1.0000 </r>
       <r>   -1.7887    1.0000 </r>
       <r>   -1.3329    1.0000 </r>
       <r>   -0.9314    1.0000 </r>
       <r>    1.0330    1.0000 </r>
       <r>    1.3402    1.0000 </r>
       <r>    1.4866    1.0000 </r>
       <r>    1.7743    1.0000 </r>
       <r>    2.0980    1.0000 </r>
       <r>    2.5028    1.0000 </r>
       <r>    2.5746    1.0000 </r>
       <r>    2.7070    1.0000 </r>
       <r>    2.8046    1.0000 </r>
       <r>    2.9431    1.0000 </r>
       <r>    3.0928    1.0000 </r>
       <r>    3.4077    1.0000 </r>
       <r>    3.9062    1.0000 </r>
       <r>    4.1238    1.0000 </r>
       <r>    4.7321    1.0000 </r>
       <r>    4.7914    1.0000 </r>
       <r>    5.1671    0.0000 </r>
       <r>    5.3145    0.0000 </r>
       <r>    5.5206    0.0000 </r>
       <r>    5.5736    0.0000 </r>
       <r>    7.3947    0.0000 </r>
       <r>    7.5591    0.0000 </r>
       <r>    7.8536    0.0000 </r>
       <r>    7.9963    0.0000 </r>
       <r>    8.0415    0.0000 </r>
       <r>    8.1817    0.0000 </r>
      </set>
      <set comment="kpoint 22">
       <r>  -57.9897    1.0000 </r>
       <r>  -57.9894    1.0000 </r>
       <r>  -57.1553    1.0000 </r>
       <r>  -57.1552    1.0000 </r>
       <r>  -31.4539    1.0000 </r>
       <r>  -31.4535    1.0000 </r>
       <r>  -31.3027    1.0000 </r>
       <r>  -31.3024    1.0000 </r>
       <r>  -31.2662    1.0000 </r>
       <r>  -31.2658    1.0000 </r>
       <r>  -30.9200    1.0000 </r>
       <r>  -30.9082    1.0000 </r>
       <r>  -30.4853    1.0000 </r>
       <r>  -30.4835    1.0000 </r>
       <r>  -30.4772    1.0000 </r>
       <r>  -30.4755    1.0000 </r>
       <r>   -4.3908    1.0000 </r>
       <r>   -2.1269    1.0000 </r>
       <r>   -2.0561    1.0000 </r>
       <r>   -1.9463    1.0000 </r>
       <r>   -0.8988    1.0000 </r>
[...]
       <r>  -57.1546    1.0000 </r>
       <r>  -31.4560    1.0000 </r>
       <r>  -31.4516    1.0000 </r>
       <r>  -31.3053    1.0000 </r>
       <r>  -31.3052    1.0000 </r>
       <r>  -31.2686    1.0000 </r>
       <r>  -31.2685    1.0000 </r>
       <r>  -30.9227    1.0000 </r>
       <r>  -30.9054    1.0000 </r>
       <r>  -30.4819    1.0000 </r>
       <r>  -30.4819    1.0000 </r>
       <r>  -30.4730    1.0000 </r>
       <r>  -30.4728    1.0000 </r>
       <r>   -3.5808    1.0000 </r>
       <r>   -3.2865    1.0000 </r>
       <r>   -2.0996    1.0000 </r>
       <r>   -2.0334    1.0000 </r>
       <r>   -0.8644    1.0000 </r>
       <r>   -0.7416    1.0000 </r>
       <r>    0.4629    1.0000 </r>
       <r>    0.6718    1.0000 </r>
       <r>    1.2610    1.0000 </r>
       <r>    2.0632    1.0000 </r>
       <r>    2.1651    1.0000 </r>
       <r>    2.1856    1.0000 </r>
       <r>    2.3319    1.0000 </r>
       <r>    2.4328    1.0000 </r>
       <r>    2.5397    1.0000 </r>
       <r>    3.0392    1.0000 </r>
       <r>    4.2369    1.0000 </r>
       <r>    4.3471    1.0000 </r>
       <r>    4.3760    1.0000 </r>
       <r>    5.1931    0.0000 </r>
       <r>    5.3966    0.0000 </r>
       <r>    5.4601    0.0000 </r>
       <r>    5.4688    0.0000 </r>
       <r>    5.6619    0.0000 </r>
       <r>    5.8664    0.0000 </r>
       <r>    5.9490    0.0000 </r>
       <r>    6.3347    0.0000 </r>
       <r>    6.4277    0.0000 </r>
       <r>    6.4412    0.0000 </r>
       <r>    6.4552    0.0000 </r>
       <r>    7.8654    0.0000 </r>
       <r>    8.1122    0.0000 </r>
      </set>
      <set comment="kpoint 116">
       <r>  -57.9897    1.0000 </r>
       <r>  -57.9895    1.0000 </r>
       <r>  -57.1559    1.0000 </r>
       <r>  -57.1546    1.0000 </r>
       <r>  -31.4562    1.0000 </r>
       <r>  -31.4515    1.0000 </r>
       <r>  -31.3053    1.0000 </r>
       <r>  -31.3052    1.0000 </r>
       <r>  -31.2686    1.0000 </r>
       <r>  -31.2685    1.0000 </r>
       <r>  -30.9236    1.0000 </r>
       <r>  -30.9045    1.0000 </r>
       <r>  -30.4820    1.0000 </r>
       <r>  -30.4818    1.0000 </r>
       <r>  -30.4729    1.0000 </r>
       <r>  -30.4729    1.0000 </r>
       <r>   -3.4915    1.0000 </r>
       <r>   -3.3440    1.0000 </r>
       <r>   -2.1297    1.0000 </r>
       <r>   -2.0284    1.0000 </r>
       <r>   -0.8794    1.0000 </r>
       <r>   -0.7565    1.0000 </r>
       <r>    0.4568    1.0000 </r>
       <r>    0.6718    1.0000 </r>
       <r>    1.1620    1.0000 </r>
       <r>    2.0794    1.0000 </r>
       <r>    2.2404    1.0000 </r>
       <r>    2.2532    1.0000 </r>
       <r>    2.3183    1.0000 </r>
       <r>    2.4134    1.0000 </r>
       <r>    2.5159    1.0000 </r>
       <r>    3.0410    1.0000 </r>
       <r>    4.2447    1.0000 </r>
       <r>    4.3053    1.0000 </r>
       <r>    4.3866    1.0000 </r>
       <r>    5.1878    0.0000 </r>
       <r>    5.3955    0.0000 </r>
       <r>    5.5371    0.0000 </r>
       <r>    5.6712    0.0000 </r>
       <r>    5.7402    0.0000 </r>
       <r>    5.9323    0.0000 </r>
       <r>    6.1674    0.0000 </r>
       <r>    6.2216    0.0000 </r>
       <r>    6.2373    0.0000 </r>
       <r>    6.2547    0.0000 </r>
       <r>    6.3907    0.0000 </r>
       <r>    7.8830    0.0000 </r>
       <r>    8.1344    0.0000 </r>
      </set>
     </set>
    </set>
   </array>
  </eigenvalues>
  <separator name="orbital magnetization" >
   <v name="MAGDIPOLOUT">      0.00000000      0.00000000      0.00000000</v>
  </separator>
  <dos>
   <i name="efermi">      5.02836190 </i>
   <total>
    <array>
     <dimension dim="1">gridpoints</dimension>
     <dimension dim="2">spin</dimension>
     <field>energy</field>
     <field>total</field>
     <field>integrated</field>
     <set>
      <set comment="spin 1">
       <r>   -61.3507     0.0000     0.0000 </r>
       <r>   -61.1042     0.0000     0.0000 </r>
       <r>   -60.8578     0.0000     0.0000 </r>
       <r>   -60.6113     0.0000     0.0000 </r>
       <r>   -60.3648     0.0000     0.0000 </r>
       <r>   -60.1184     0.0000     0.0000 </r>
       <r>   -59.8719     0.0000     0.0000 </r>
       <r>   -59.6254     0.0000     0.0000 </r>
       <r>   -59.3790     0.0000     0.0000 </r>
       <r>   -59.1325     0.0000     0.0000 </r>
       <r>   -58.8860     0.0000     0.0000 </r>
       <r>   -58.6396     0.0000     0.0000 </r>
       <r>   -58.3931     0.0000     0.0000 </r>
       <r>   -58.1467     0.0000     0.0000 </r>
       <r>   -57.9002    16.2295     4.0000 </r>
       <r>   -57.6537     0.0000     4.0000 </r>
       <r>   -57.4073     0.0000     4.0000 </r>
       <r>   -57.1608     5.6849     5.4011 </r>
       <r>   -56.9143     0.0000     8.0000 </r>
       <r>   -56.6679     0.0000     8.0000 </r>
       <r>   -56.4214     0.0000     8.0000 </r>
       <r>   -56.1749     0.0000     8.0000 </r>
       <r>   -55.9285     0.0000     8.0000 </r>
       <r>   -55.6820     0.0000     8.0000 </r>
       <r>   -55.4355     0.0000     8.0000 </r>
       <r>   -55.1891     0.0000     8.0000 </r>
       <r>   -54.9426     0.0000     8.0000 </r>
       <r>   -54.6962     0.0000     8.0000 </r>
       <r>   -54.4497     0.0000     8.0000 </r>
       <r>   -54.2032     0.0000     8.0000 </r>
       <r>   -53.9568     0.0000     8.0000 </r>
       <r>   -53.7103     0.0000     8.0000 </r>
       <r>   -53.4638     0.0000     8.0000 </r>
       <r>   -53.2174     0.0000     8.0000 </r>
       <r>   -52.9709     0.0000     8.0000 </r>
       <r>   -52.7244     0.0000     8.0000 </r>
       <r>   -52.4780     0.0000     8.0000 </r>
       <r>   -52.2315     0.0000     8.0000 </r>
       <r>   -51.9850     0.0000     8.0000 </r>
       <r>   -51.7386     0.0000     8.0000 </r>
       <r>   -51.4921     0.0000     8.0000 </r>
       <r>   -51.2457     0.0000     8.0000 </r>
       <r>   -50.9992     0.0000     8.0000 </r>
       <r>   -50.7527     0.0000     8.0000 </r>
       <r>   -50.5063     0.0000     8.0000 </r>
       <r>   -50.2598     0.0000     8.0000 </r>
       <r>   -50.0133     0.0000     8.0000 </r>
       <r>   -49.7669     0.0000     8.0000 </r>
       <r>   -49.5204     0.0000     8.0000 </r>
       <r>   -49.2739     0.0000     8.0000 </r>
       <r>   -49.0275     0.0000     8.0000 </r>
       <r>   -48.7810     0.0000     8.0000 </r>
       <r>   -48.5346     0.0000     8.0000 </r>
       <r>   -48.2881     0.0000     8.0000 </r>
       <r>   -48.0416     0.0000     8.0000 </r>
       <r>   -47.7952     0.0000     8.0000 </r>
       <r>   -47.5487     0.0000     8.0000 </r>
       <r>   -47.3022     0.0000     8.0000 </r>
       <r>   -47.0558     0.0000     8.0000 </r>
       <r>   -46.8093     0.0000     8.0000 </r>
       <r>   -46.5628     0.0000     8.0000 </r>
       <r>   -46.3164     0.0000     8.0000 </r>
       <r>   -46.0699     0.0000     8.0000 </r>
       <r>   -45.8234     0.0000     8.0000 </r>
       <r>   -45.5770     0.0000     8.0000 </r>
       <r>   -45.3305     0.0000     8.0000 </r>
       <r>   -45.0841     0.0000     8.0000 </r>
       <r>   -44.8376     0.0000     8.0000 </r>
       <r>   -44.5911     0.0000     8.0000 </r>
       <r>   -44.3447     0.0000     8.0000 </r>
       <r>   -44.0982     0.0000     8.0000 </r>
       <r>   -43.8517     0.0000     8.0000 </r>
       <r>   -43.6053     0.0000     8.0000 </r>
       <r>   -43.3588     0.0000     8.0000 </r>
       <r>   -43.1123     0.0000     8.0000 </r>
       <r>   -42.8659     0.0000     8.0000 </r>
       <r>   -42.6194     0.0000     8.0000 </r>
       <r>   -42.3729     0.0000     8.0000 </r>
       <r>   -42.1265     0.0000     8.0000 </r>
       <r>   -41.8800     0.0000     8.0000 </r>
       <r>   -41.6336     0.0000     8.0000 </r>
       <r>   -41.3871     0.0000     8.0000 </r>
       <r>   -41.1406     0.0000     8.0000 </r>
       <r>   -40.8942     0.0000     8.0000 </r>
       <r>   -40.6477     0.0000     8.0000 </r>
       <r>   -40.4012     0.0000     8.0000 </r>
       <r>   -40.1548     0.0000     8.0000 </r>
       <r>   -39.9083     0.0000     8.0000 </r>
       <r>   -39.6618     0.0000     8.0000 </r>
       <r>   -39.4154     0.0000     8.0000 </r>
       <r>   -39.1689     0.0000     8.0000 </r>
       <r>   -38.9224     0.0000     8.0000 </r>
       <r>   -38.6760     0.0000     8.0000 </r>
       <r>   -38.4295     0.0000     8.0000 </r>
       <r>   -38.1831     0.0000     8.0000 </r>
       <r>   -37.9366     0.0000     8.0000 </r>
       <r>   -37.6901     0.0000     8.0000 </r>
       <r>   -37.4437     0.0000     8.0000 </r>
       <r>   -37.1972     0.0000     8.0000 </r>
       <r>   -36.9507     0.0000     8.0000 </r>
       <r>   -36.7043     0.0000     8.0000 </r>
       <r>   -36.4578     0.0000     8.0000 </r>
       <r>   -36.2113     0.0000     8.0000 </r>
       <r>   -35.9649     0.0000     8.0000 </r>
       <r>   -35.7184     0.0000     8.0000 </r>
       <r>   -35.4719     0.0000     8.0000 </r>
       <r>   -35.2255     0.0000     8.0000 </r>
       <r>   -34.9790     0.0000     8.0000 </r>
       <r>   -34.7326     0.0000     8.0000 </r>
       <r>   -34.4861     0.0000     8.0000 </r>
       <r>   -34.2396     0.0000     8.0000 </r>
       <r>   -33.9932     0.0000     8.0000 </r>
       <r>   -33.7467     0.0000     8.0000 </r>
       <r>   -33.5002     0.0000     8.0000 </r>
       <r>   -33.2538     0.0000     8.0000 </r>
       <r>   -33.0073     0.0000     8.0000 </r>
       <r>   -32.7608     0.0000     8.0000 </r>
       <r>   -32.5144     0.0000     8.0000 </r>
       <r>   -32.2679     0.0000     8.0000 </r>
       <r>   -32.0214     0.0000     8.0000 </r>
       <r>   -31.7750     0.0000     8.0000 </r>
       <r>   -31.5285     0.0000     8.0000 </r>
       <r>   -31.2821    14.8199    15.6526 </r>
       <r>   -31.0356     0.0000    20.0000 </r>
       <r>   -30.7891    16.2295    24.0000 </r>
       <r>   -30.5427     0.0061    24.0015 </r>
       <r>   -30.2962     0.0000    32.0000 </r>
       <r>   -30.0497     0.0000    32.0000 </r>
       <r>   -29.8033     0.0000    32.0000 </r>
       <r>   -29.5568     0.0000    32.0000 </r>
       <r>   -29.3103     0.0000    32.0000 </r>
       <r>   -29.0639     0.0000    32.0000 </r>
       <r>   -28.8174     0.0000    32.0000 </r>
       <r>   -28.5710     0.0000    32.0000 </r>
       <r>   -28.3245     0.0000    32.0000 </r>
       <r>   -28.0780     0.0000    32.0000 </r>
       <r>   -27.8316     0.0000    32.0000 </r>
       <r>   -27.5851     0.0000    32.0000 </r>
       <r>   -27.3386     0.0000    32.0000 </r>
       <r>   -27.0922     0.0000    32.0000 </r>
       <r>   -26.8457     0.0000    32.0000 </r>
       <r>   -26.5992     0.0000    32.0000 </r>
       <r>   -26.3528     0.0000    32.0000 </r>
       <r>   -26.1063     0.0000    32.0000 </r>
       <r>   -25.8598     0.0000    32.0000 </r>
       <r>   -25.6134     0.0000    32.0000 </r>
       <r>   -25.3669     0.0000    32.0000 </r>
       <r>   -25.1205     0.0000    32.0000 </r>
       <r>   -24.8740     0.0000    32.0000 </r>
       <r>   -24.6275     0.0000    32.0000 </r>
       <r>   -24.3811     0.0000    32.0000 </r>
       <r>   -24.1346     0.0000    32.0000 </r>
       <r>   -23.8881     0.0000    32.0000 </r>
       <r>   -23.6417     0.0000    32.0000 </r>
       <r>   -23.3952     0.0000    32.0000 </r>
       <r>   -23.1487     0.0000    32.0000 </r>
       <r>   -22.9023     0.0000    32.0000 </r>
       <r>   -22.6558     0.0000    32.0000 </r>
       <r>   -22.4093     0.0000    32.0000 </r>
       <r>   -22.1629     0.0000    32.0000 </r>
       <r>   -21.9164     0.0000    32.0000 </r>
       <r>   -21.6700     0.0000    32.0000 </r>
       <r>   -21.4235     0.0000    32.0000 </r>
       <r>   -21.1770     0.0000    32.0000 </r>
       <r>   -20.9306     0.0000    32.0000 </r>
       <r>   -20.6841     0.0000    32.0000 </r>
       <r>   -20.4376     0.0000    32.0000 </r>
       <r>   -20.1912     0.0000    32.0000 </r>
       <r>   -19.9447     0.0000    32.0000 </r>
       <r>   -19.6982     0.0000    32.0000 </r>
       <r>   -19.4518     0.0000    32.0000 </r>
       <r>   -19.2053     0.0000    32.0000 </r>
       <r>   -18.9588     0.0000    32.0000 </r>
       <r>   -18.7124     0.0000    32.0000 </r>
       <r>   -18.4659     0.0000    32.0000 </r>
       <r>   -18.2195     0.0000    32.0000 </r>
       <r>   -17.9730     0.0000    32.0000 </r>
       <r>   -17.7265     0.0000    32.0000 </r>
       <r>   -17.4801     0.0000    32.0000 </r>
       <r>   -17.2336     0.0000    32.0000 </r>
       <r>   -16.9871     0.0000    32.0000 </r>
       <r>   -16.7407     0.0000    32.0000 </r>
       <r>   -16.4942     0.0000    32.0000 </r>
       <r>   -16.2477     0.0000    32.0000 </r>
       <r>   -16.0013     0.0000    32.0000 </r>
       <r>   -15.7548     0.0000    32.0000 </r>
       <r>   -15.5083     0.0000    32.0000 </r>
       <r>   -15.2619     0.0000    32.0000 </r>
       <r>   -15.0154     0.0000    32.0000 </r>
       <r>   -14.7690     0.0000    32.0000 </r>
       <r>   -14.5225     0.0000    32.0000 </r>
       <r>   -14.2760     0.0000    32.0000 </r>
       <r>   -14.0296     0.0000    32.0000 </r>
       <r>   -13.7831     0.0000    32.0000 </r>
       <r>   -13.5366     0.0000    32.0000 </r>
       <r>   -13.2902     0.0000    32.0000 </r>
       <r>   -13.0437     0.0000    32.0000 </r>
       <r>   -12.7972     0.0000    32.0000 </r>
       <r>   -12.5508     0.0000    32.0000 </r>
       <r>   -12.3043     0.0000    32.0000 </r>
       <r>   -12.0578     0.0000    32.0000 </r>
       <r>   -11.8114     0.0000    32.0000 </r>
       <r>   -11.5649     0.0000    32.0000 </r>
       <r>   -11.3185     0.0000    32.0000 </r>
       <r>   -11.0720     0.0000    32.0000 </r>
       <r>   -10.8255     0.0000    32.0000 </r>
       <r>   -10.5791     0.0000    32.0000 </r>
       <r>   -10.3326     0.0000    32.0000 </r>
       <r>   -10.0861     0.0000    32.0000 </r>
       <r>    -9.8397     0.0000    32.0000 </r>
       <r>    -9.5932     0.0000    32.0000 </r>
       <r>    -9.3467     0.0000    32.0000 </r>
       <r>    -9.1003     0.0000    32.0000 </r>
       <r>    -8.8538     0.0000    32.0000 </r>
       <r>    -8.6074     0.0000    32.0000 </r>
       <r>    -8.3609     0.0000    32.0000 </r>
       <r>    -8.1144     0.0000    32.0000 </r>
       <r>    -7.8680     0.0000    32.0000 </r>
       <r>    -7.6215     0.0000    32.0000 </r>
       <r>    -7.3750     0.0000    32.0000 </r>
       <r>    -7.1286     0.0000    32.0000 </r>
       <r>    -6.8821     0.0000    32.0000 </r>
       <r>    -6.6356     0.0000    32.0000 </r>
       <r>    -6.3892     0.0000    32.0000 </r>
       <r>    -6.1427     0.0000    32.0000 </r>
       <r>    -5.8962     0.0000    32.0000 </r>
       <r>    -5.6498     0.0000    32.0000 </r>
       <r>    -5.4033     0.0000    32.0000 </r>
       <r>    -5.1569     0.0000    32.0000 </r>
       <r>    -4.9104     0.0000    32.0000 </r>
       <r>    -4.6639     0.0203    32.0050 </r>
       <r>    -4.4175     0.2446    32.1164 </r>
       <r>    -4.1710     0.5865    32.3639 </r>
       <r>    -3.9245     1.0045    32.7221 </r>
       <r>    -3.6781     1.2879    33.2001 </r>
       <r>    -3.4316     1.4351    33.7925 </r>
       <r>    -3.1851     1.1331    34.3915 </r>
       <r>    -2.9387     1.1349    34.8205 </r>
       <r>    -2.6922     0.6878    35.1287 </r>
       <r>    -2.4457     0.5362    35.3873 </r>
       <r>    -2.1993     0.7041    35.6327 </r>
       <r>    -1.9528     5.7342    37.1888 </r>
       <r>    -1.7064     6.0527    39.6397 </r>
       <r>    -1.4599     2.3236    40.5217 </r>
       <r>    -1.2134     3.3448    41.9978 </r>
       <r>    -0.9670     2.3194    43.0921 </r>
       <r>    -0.7205     1.6080    43.7024 </r>
       <r>    -0.4740     0.2898    43.9286 </r>
       <r>    -0.2276     0.1688    43.9906 </r>
       <r>     0.0189     0.0000    44.0000 </r>
       <r>     0.2654     0.0207    44.0051 </r>
       <r>     0.5118     0.5139    44.1318 </r>
       <r>     0.7583     1.1028    44.4351 </r>
       <r>     1.0048     1.8126    45.1304 </r>
       <r>     1.2512     5.0252    46.8355 </r>
       <r>     1.4977     3.6947    48.3341 </r>
       <r>     1.7441     5.9653    50.5570 </r>
       <r>     1.9906     4.9867    52.2444 </r>
       <r>     2.2371     5.9215    54.5258 </r>
       <r>     2.4835     6.7791    56.9310 </r>
       <r>     2.7300     7.8914    60.0011 </r>
       <r>     2.9765     5.9677    62.3178 </r>
       <r>     3.2229     6.5964    65.3095 </r>
       <r>     3.4694     3.4744    67.0604 </r>
       <r>     3.7159     3.0148    68.3196 </r>
       <r>     3.9623     3.1669    69.5305 </r>
       <r>     4.2088     4.3969    71.1959 </r>
       <r>     4.4553     3.4273    72.5182 </r>
       <r>     4.7017     3.8928    74.0207 </r>
       <r>     4.9482     3.4045    75.4666 </r>
       <r>     5.1946     4.4019    77.1410 </r>
       <r>     5.4411     6.0765    79.3650 </r>
       <r>     5.6876     6.7030    82.0908 </r>
       <r>     5.9340     1.5593    83.2619 </r>
       <r>     6.1805     0.7688    83.5619 </r>
       <r>     6.4270     1.0432    84.0071 </r>
       <r>     6.6734     1.4679    84.4587 </r>
       <r>     6.9199     2.0316    85.2915 </r>
       <r>     7.1664     3.5082    86.3391 </r>
       <r>     7.4128     3.9126    87.5817 </r>
       <r>     7.6593     6.0437    89.7090 </r>
       <r>     7.9058     4.7983    91.6622 </r>
       <r>     8.1522     4.9345    93.5580 </r>
       <r>     8.3987     1.8394    94.6319 </r>
       <r>     8.6451     2.1375    95.3176 </r>
       <r>     8.8916     0.8943    95.7357 </r>
       <r>     9.1381     0.6626    95.9694 </r>
       <r>     9.3845     0.0207    96.0000 </r>
       <r>     9.6310     0.0000    96.0000 </r>
       <r>     9.8775     0.0000    96.0000 </r>
       <r>    10.1239     0.0000    96.0000 </r>
       <r>    10.3704     0.0000    96.0000 </r>
       <r>    10.6169     0.0000    96.0000 </r>
       <r>    10.8633     0.0000    96.0000 </r>
       <r>    11.1098     0.0000    96.0000 </r>
       <r>    11.3563     0.0000    96.0000 </r>
       <r>    11.6027     0.0000    96.0000 </r>
       <r>    11.8492     0.0000    96.0000 </r>
       <r>    12.0956     0.0000    96.0000 </r>
       <r>    12.3421     0.0000    96.0000 </r>
       <r>    12.5886     0.0000    96.0000 </r>
      </set>
     </set>
    </array>
   </total>
  </dos>
 </calculation>
 <structure name="finalpos" >
  <crystal>
   <varray name="basis" >
    <v>       5.54806895       0.00000000      -3.16212474 </v>
    <v>      -1.87320924       5.22227501      -3.16212474 </v>
    <v>       0.00000000       0.00000000       6.38593000 </v>
   </varray>
   <i name="volume">    185.02300990 </i>
   <varray name="rec_basis" >
    <v>       0.18024289       0.06465241       0.00000000 </v>
    <v>       0.00000000       0.19148743       0.00000000 </v>
    <v>       0.08925098       0.12683291       0.15659426 </v>
   </varray>
  </crystal>
  <varray name="positions" >
   <v>       0.24194000       0.25806000       0.50000000 </v>
   <v>       0.75806000       0.74194000       0.50000000 </v>
   <v>       0.25806000       0.75806000       0.01612000 </v>
   <v>       0.74194000       0.24194000       0.98388000 </v>
   <v>       0.00000000       0.00000000       0.00000000 </v>
   <v>       0.00000000       0.50000000       0.50000000 </v>
   <v>       0.50000000       0.00000000       0.50000000 </v>
   <v>       0.50000000       0.50000000       0.00000000 </v>
   <v>       0.25000000       0.25000000       0.00000000 </v>
   <v>       0.75000000       0.75000000       0.00000000 </v>
  </varray>
 </structure>
</modeling>
