 vasp.6.2.0 18Jan21 (build Jan 05 2022 15:41:44) complex                        
  
 executed on             LinuxIFC date 2025.05.07  21:26:59
 running on   24 total cores
 distrk:  each k-point on   12 cores,    2 groups
 distr:  one band on NCORE=   2 cores,    6 groups


--------------------------------------------------------------------------------------------------------


 INCAR:
   SYSTEM = routine with relax: pwdword
   ICHARG = 2
   NPAR = 6
   KPAR = 2
   NCORE = 2
   ADDGRID = T
   PREC = Acc
   ENCUT = 600
   METAGGA = R2SCAN
   LASPH = .TRUE.
   LMIXTAU = .FALSE.
   ALGO = A
   EDIFF = 1E-9
   NELM = 100
   NELMIN = 6
   IALGO = 38
   LREAL = F
   NSW = 0
   ISIF = -1
   ISMEAR = 0
   SIGMA = 0.02

 POTCAR:    PAW_PBE B 06Sep2000                   
 POTCAR:    PAW_PBE Si 05Jan2001                  
 -----------------------------------------------------------------------------
|                                                                             |
|           W    W    AA    RRRRR   N    N  II  N    N   GGGG   !!!           |
|           W    W   A  A   R    R  NN   N  II  NN   N  G    G  !!!           |
|           W    W  A    A  R    R  N N  N  II  N N  N  G       !!!           |
|           W WW W  AAAAAA  RRRRR   N  N N  II  N  N N  G  GGG   !            |
|           WW  WW  A    A  R   R   N   NN  II  N   NN  G    G                |
|           W    W  A    A  R    R  N    N  II  N    N   GGGG   !!!           |
|                                                                             |
|     For optimal performance we recommend to set                             |
|       NCORE = 2 up to number-of-cores-per-socket                            |
|     NCORE specifies how many cores store one orbital (NPAR=cpu/NCORE).      |
|     This setting can greatly improve the performance of VASP for DFT.       |
|     The default, NCORE=1 might be grossly inefficient on modern             |
|     multi-core architectures or massively parallel machines. Do your        |
|     own testing! More info at https://www.vasp.at/wiki/index.php/NCORE      |
|     Unfortunately you need to use the default for GW and RPA                |
|     calculations (for HF NCORE is supported but not extensively tested      |
|     yet).                                                                   |
|                                                                             |
 -----------------------------------------------------------------------------

 POTCAR:    PAW_PBE B 06Sep2000                   
   VRHFIN =B: s2p1                                                                                  
   LEXCH  = PE                                                                                      
   EATOM  =    71.1703 eV,    5.2309 Ry                                                             
                                                                                                    
   TITEL  = PAW_PBE B 06Sep2000                                                                     
   LULTRA =        F    use ultrasoft PP ?                                                          
   IUNSCR =        1    unscreen: 0-lin 1-nonlin 2-no                                               
   RPACOR =    1.200    partial core radius                                                         
   POMASS =   10.811; ZVAL   =    3.000    mass and valenz                                          
   RCORE  =    1.700    outmost cutoff radius                                                       
   RWIGS  =    1.710; RWIGS  =    0.905    wigner-seitz radius (au A)                               
   ENMAX  =  318.614; ENMIN  =  238.960 eV                                                          
   ICORE  =        2    local potential                                                             
   LCOR   =        T    correct aug charges                                                         
   LPAW   =        T    paw PP                                                                      
   EAUG   =  535.514                                                                                
   DEXC   =    0.000                                                                                
   RMAX   =    1.732    core radius for proj-oper                                                   
   RAUG   =    1.300    factor for augmentation sphere                                              
   RDEP   =    1.757    radius for radial grids                                                     
   RDEPT  =    1.436    core radius for aug-charge                                                  
                                                                                                    
   Atomic configuration                                                                             
    4 entries                                                                                       
     n  l   j            E        occ.                                                              
     1  0  0.50      -180.5896   2.0000                                                             
     2  0  0.50        -9.4431   2.0000                                                             
     2  1  0.50        -3.6068   1.0000                                                             
     3  2  1.50        -4.0817   0.0000                                                             
   Description                                                                                      
     l       E           TYP  RCUT    TYP  RCUT                                                     
     0     -9.4430752     23  1.500                                                                 
     0      0.8675899     23  1.500                                                                 
     1     -3.6067955     23  1.700                                                                 
     1      6.1086146     23  1.700                                                                 
     2     -4.0817478      7  1.700                                                                 
  local pseudopotential read in
  partial core-charges read in
  partial kinetic energy density read in
  atomic valenz-charges read in
  non local Contribution for L=           0  read in
    real space projection operators read in
  non local Contribution for L=           0  read in
    real space projection operators read in
  non local Contribution for L=           1  read in
    real space projection operators read in
  non local Contribution for L=           1  read in
    real space projection operators read in
    PAW grid and wavefunctions read in
 
   number of l-projection  operators is LMAX  =           4
   number of lm-projection operators is LMMAX =           8
 
 POTCAR:    PAW_PBE Si 05Jan2001                  
   VRHFIN =Si: s2p2                                                                                 
   LEXCH  = PE                                                                                      
   EATOM  =   103.0669 eV,    7.5752 Ry                                                             
                                                                                                    
   TITEL  = PAW_PBE Si 05Jan2001                                                                    
   LULTRA =        F    use ultrasoft PP ?                                                          
   IUNSCR =        1    unscreen: 0-lin 1-nonlin 2-no                                               
   RPACOR =    1.500    partial core radius                                                         
   POMASS =   28.085; ZVAL   =    4.000    mass and valenz                                          
   RCORE  =    1.900    outmost cutoff radius                                                       
   RWIGS  =    2.480; RWIGS  =    1.312    wigner-seitz radius (au A)                               
   ENMAX  =  245.345; ENMIN  =  184.009 eV                                                          
   ICORE  =        2    local potential                                                             
   LCOR   =        T    correct aug charges                                                         
   LPAW   =        T    paw PP                                                                      
   EAUG   =  322.069                                                                                
   DEXC   =    0.000                                                                                
   RMAX   =    1.950    core radius for proj-oper                                                   
   RAUG   =    1.300    factor for augmentation sphere                                              
   RDEP   =    1.993    radius for radial grids                                                     
   RDEPT  =    1.837    core radius for aug-charge                                                  
                                                                                                    
   Atomic configuration                                                                             
    6 entries                                                                                       
     n  l   j            E        occ.                                                              
     1  0  0.50     -1785.8828   2.0000                                                             
     2  0  0.50      -139.4969   2.0000                                                             
     2  1  1.50       -95.5546   6.0000                                                             
     3  0  0.50       -10.8127   2.0000                                                             
     3  1  0.50        -4.0811   2.0000                                                             
     3  2  1.50        -4.0817   0.0000                                                             
   Description                                                                                      
     l       E           TYP  RCUT    TYP  RCUT                                                     
     0    -10.8127223     23  1.900                                                                 
     0     -7.6451159     23  1.900                                                                 
     1     -4.0811372     23  1.900                                                                 
     1      2.4879257     23  1.900                                                                 
     2     -4.0817478      7  1.900                                                                 
  local pseudopotential read in
  partial core-charges read in
  partial kinetic energy density read in
  atomic valenz-charges read in
  non local Contribution for L=           0  read in
    real space projection operators read in
  non local Contribution for L=           0  read in
    real space projection operators read in
  non local Contribution for L=           1  read in
    real space projection operators read in
  non local Contribution for L=           1  read in
    real space projection operators read in
    PAW grid and wavefunctions read in
 
   number of l-projection  operators is LMAX  =           4
   number of lm-projection operators is LMMAX =           8
 
  PAW_PBE B 06Sep2000                   :
 energy of atom  1       EATOM=  -71.1703
 kinetic energy error for atom=    0.0007 (will be added to EATOM!!)
  PAW_PBE Si 05Jan2001                  :
 energy of atom  2       EATOM= -103.0669
 kinetic energy error for atom=    0.0003 (will be added to EATOM!!)
 
 
 POSCAR: EA256
  positions in direct lattice
  No initial velocities read in

 METAGGA = R2SCA    LMAXTAU =  6    LMIXTAU =  F

 exchange correlation table for  LEXCH =        8
   RHO(1)=    0.500       N(1)  =     2000
   RHO(2)=  100.500       N(2)  =     4000
 


--------------------------------------------------------------------------------------------------------


 ion  position               nearest neighbor table
   1  0.333  0.667  0.750-   6 2.51   7 2.51   7 2.51   6 2.51   8 2.51   8 2.51   5 2.64   5 2.64
                             4 2.64   4 2.64   3 2.64   3 2.64
   2  0.667  0.333  0.250-   3 2.51   4 2.51   3 2.51   4 2.51   5 2.51   5 2.51   8 2.64   8 2.64
                             7 2.64   7 2.64   6 2.64   6 2.64
   3  0.169  0.338  0.250-   5 2.47   4 2.47   2 2.51   2 2.51   5 2.54   4 2.54   1 2.64   1 2.64
                             7 2.67   7 2.67   8 2.67   8 2.67
   4  0.662  0.831  0.250-   5 2.47   3 2.47   2 2.51   2 2.51   5 2.54   3 2.54   1 2.64   1 2.64
                             6 2.67   6 2.67   8 2.67   8 2.67
   5  0.169  0.831  0.250-   3 2.47   4 2.47   2 2.51   2 2.51   3 2.54   4 2.54   1 2.64   1 2.64
                             6 2.67   7 2.67   7 2.67   6 2.67
   6  0.831  0.662  0.750-   8 2.47   7 2.47   1 2.51   1 2.51   8 2.54   7 2.54   2 2.64   2 2.64
                             4 2.67   4 2.67   5 2.67   5 2.67
   7  0.338  0.169  0.750-   8 2.47   6 2.47   1 2.51   1 2.51   8 2.54   6 2.54   2 2.64   2 2.64
                             3 2.67   3 2.67   5 2.67   5 2.67
   8  0.831  0.169  0.750-   6 2.47   7 2.47   1 2.51   1 2.51   7 2.54   6 2.54   2 2.64   2 2.64
                             3 2.67   4 2.67   4 2.67   3 2.67
 
  LATTYP: Found a hexagonal cell.
 ALAT       =     5.0128254278
 C/A-ratio  =     0.8883700548
  
  Lattice vectors:
  
 A1 = (   2.5064130000,  -4.3412340000,   0.0000000000)
 A2 = (   2.5064130000,   4.3412340000,   0.0000000000)
 A3 = (   0.0000000000,   0.0000000000,   4.4532440000)


Analysis of symmetry for initial positions (statically):
=====================================================================
 Subroutine PRICEL returns:
 Original cell was already a primitive cell.
 

 Routine SETGRP: Setting up the symmetry group for a 
 hexagonal supercell.


 Subroutine GETGRP returns: Found 24 space group operations
 (whereof 12 operations were pure point group operations)
 out of a pool of 24 trial point group operations.


The static configuration has the point symmetry D_3d.
 The point group associated with its full space group is D_6h.


Analysis of symmetry for dynamics (positions and initial velocities):
=====================================================================
 Subroutine PRICEL returns:
 Original cell was already a primitive cell.
 

 Routine SETGRP: Setting up the symmetry group for a 
 hexagonal supercell.


 Subroutine GETGRP returns: Found 24 space group operations
 (whereof 12 operations were pure point group operations)
 out of a pool of 24 trial point group operations.


The dynamic configuration has the point symmetry D_3d.
 The point group associated with its full space group is D_6h.


 Subroutine INISYM returns: Found 24 space group operations
 (whereof 12 operations are pure point group operations),
 and found     1 'primitive' translations


----------------------------------------------------------------------------------------

                                     Primitive cell                                     

  volume of cell :      96.9108

  direct lattice vectors                    reciprocal lattice vectors
     2.506413000 -4.341234000  0.000000000     0.199488273 -0.115174625  0.000000000
     2.506413000  4.341234000  0.000000000     0.199488273  0.115174625  0.000000000
     0.000000000  0.000000000  4.453244000     0.000000000  0.000000000  0.224555403

  length of vectors
     5.012825428  5.012825428  4.453244000     0.230349225  0.230349225  0.224555403

  position of ions in fractional coordinates (direct lattice)
     0.333333000  0.666667000  0.750000000
     0.666667000  0.333333000  0.250000000
     0.169138000  0.338275000  0.250000000
     0.661725000  0.830862000  0.250000000
     0.169138000  0.830862000  0.250000000
     0.830862000  0.661725000  0.750000000
     0.338275000  0.169138000  0.750000000
     0.830862000  0.169138000  0.750000000

  ion indices of the primitive-cell ions
   primitive index   ion index
                 1           1
                 2           2
                 3           3
                 4           4
                 5           5
                 6           6
                 7           7
                 8           8

----------------------------------------------------------------------------------------

 
 
 KPOINTS: EA                                      

Automatic generation of k-mesh.
 Grid dimensions read from file:
 generate k-points for:    8    8    8

 Generating k-lattice:

  Cartesian coordinates                     Fractional coordinates (reciprocal lattice)
     0.024936034 -0.014396828  0.000000000     0.125000000  0.000000000  0.000000000
     0.024936034  0.014396828  0.000000000     0.000000000  0.125000000  0.000000000
     0.000000000  0.000000000  0.028069425     0.000000000  0.000000000  0.125000000

  Length of vectors
     0.028793653  0.028793653  0.028069425

  Shift w.r.t. Gamma in fractional coordinates (k-lattice)
     0.000000000  0.000000000  0.000000000

 
 Subroutine IBZKPT returns following result:
 ===========================================
 
 Found     50 irreducible k-points:
 
 Following reciprocal coordinates:
            Coordinates               Weight
  0.000000  0.000000  0.000000      1.000000
  0.125000  0.000000  0.000000      6.000000
  0.250000  0.000000  0.000000      6.000000
  0.375000 -0.000000  0.000000      6.000000
  0.500000  0.000000  0.000000      3.000000
  0.125000  0.125000  0.000000      6.000000
  0.250000  0.125000  0.000000     12.000000
  0.375000  0.125000  0.000000     12.000000
  0.250000  0.250000  0.000000      6.000000
  0.375000  0.250000  0.000000      6.000000
  0.000000  0.000000  0.125000      2.000000
  0.125000  0.000000  0.125000     12.000000
  0.250000  0.000000  0.125000     12.000000
  0.375000 -0.000000  0.125000     12.000000
  0.500000  0.000000  0.125000      6.000000
  0.125000  0.125000  0.125000     12.000000
  0.250000  0.125000  0.125000     24.000000
  0.375000  0.125000  0.125000     24.000000
  0.250000  0.250000  0.125000     12.000000
  0.375000  0.250000  0.125000     12.000000
  0.000000  0.000000  0.250000      2.000000
  0.125000  0.000000  0.250000     12.000000
  0.250000  0.000000  0.250000     12.000000
  0.375000 -0.000000  0.250000     12.000000
  0.500000  0.000000  0.250000      6.000000
  0.125000  0.125000  0.250000     12.000000
  0.250000  0.125000  0.250000     24.000000
  0.375000  0.125000  0.250000     24.000000
  0.250000  0.250000  0.250000     12.000000
  0.375000  0.250000  0.250000     12.000000
  0.000000  0.000000  0.375000      2.000000
  0.125000  0.000000  0.375000     12.000000
  0.250000  0.000000  0.375000     12.000000
  0.375000 -0.000000  0.375000     12.000000
  0.500000  0.000000  0.375000      6.000000
  0.125000  0.125000  0.375000     12.000000
  0.250000  0.125000  0.375000     24.000000
  0.375000  0.125000  0.375000     24.000000
  0.250000  0.250000  0.375000     12.000000
  0.375000  0.250000  0.375000     12.000000
  0.000000  0.000000  0.500000      1.000000
  0.125000  0.000000  0.500000      6.000000
  0.250000  0.000000  0.500000      6.000000
  0.375000 -0.000000  0.500000      6.000000
  0.500000  0.000000  0.500000      3.000000
  0.125000  0.125000  0.500000      6.000000
  0.250000  0.125000  0.500000     12.000000
  0.375000  0.125000  0.500000     12.000000
  0.250000  0.250000  0.500000      6.000000
  0.375000  0.250000  0.500000      6.000000
 
 Following cartesian coordinates:
            Coordinates               Weight
  0.000000  0.000000  0.000000      1.000000
  0.024936 -0.014397  0.000000      6.000000
  0.049872 -0.028794  0.000000      6.000000
  0.074808 -0.043190  0.000000      6.000000
  0.099744 -0.057587  0.000000      3.000000
  0.049872  0.000000  0.000000      6.000000
  0.074808 -0.014397  0.000000     12.000000
  0.099744 -0.028794  0.000000     12.000000
  0.099744  0.000000  0.000000      6.000000
  0.124680 -0.014397  0.000000      6.000000
  0.000000  0.000000  0.028069      2.000000
  0.024936 -0.014397  0.028069     12.000000
  0.049872 -0.028794  0.028069     12.000000
  0.074808 -0.043190  0.028069     12.000000
  0.099744 -0.057587  0.028069      6.000000
  0.049872  0.000000  0.028069     12.000000
  0.074808 -0.014397  0.028069     24.000000
  0.099744 -0.028794  0.028069     24.000000
  0.099744  0.000000  0.028069     12.000000
  0.124680 -0.014397  0.028069     12.000000
  0.000000  0.000000  0.056139      2.000000
  0.024936 -0.014397  0.056139     12.000000
  0.049872 -0.028794  0.056139     12.000000
  0.074808 -0.043190  0.056139     12.000000
  0.099744 -0.057587  0.056139      6.000000
  0.049872  0.000000  0.056139     12.000000
  0.074808 -0.014397  0.056139     24.000000
  0.099744 -0.028794  0.056139     24.000000
  0.099744  0.000000  0.056139     12.000000
  0.124680 -0.014397  0.056139     12.000000
  0.000000  0.000000  0.084208      2.000000
  0.024936 -0.014397  0.084208     12.000000
  0.049872 -0.028794  0.084208     12.000000
  0.074808 -0.043190  0.084208     12.000000
  0.099744 -0.057587  0.084208      6.000000
  0.049872  0.000000  0.084208     12.000000
  0.074808 -0.014397  0.084208     24.000000
  0.099744 -0.028794  0.084208     24.000000
  0.099744  0.000000  0.084208     12.000000
  0.124680 -0.014397  0.084208     12.000000
  0.000000  0.000000  0.112278      1.000000
  0.024936 -0.014397  0.112278      6.000000
  0.049872 -0.028794  0.112278      6.000000
  0.074808 -0.043190  0.112278      6.000000
  0.099744 -0.057587  0.112278      3.000000
  0.049872  0.000000  0.112278      6.000000
  0.074808 -0.014397  0.112278     12.000000
  0.099744 -0.028794  0.112278     12.000000
  0.099744  0.000000  0.112278      6.000000
  0.124680 -0.014397  0.112278      6.000000
 


--------------------------------------------------------------------------------------------------------




 Dimension of arrays:
   k-points           NKPTS =     50   k-points in BZ     NKDIM =     50   number of bands    NBANDS=     24
   number of dos      NEDOS =    301   number of ions     NIONS =      8
   non local maximal  LDIM  =      4   non local SUM 2l+1 LMDIM =      8
   total plane-waves  NPLWV =  57600
   max r-space proj   IRMAX =      1   max aug-charges    IRDMAX= 159160
   dimension x,y,z NGX =    40 NGY =   40 NGZ =   36
   dimension x,y,z NGXF=    80 NGYF=   80 NGZF=   72
   support grid    NGXF=   160 NGYF=  160 NGZF=  144
   ions per type =               2   6
   NGX,Y,Z   is equivalent  to a cutoff of  13.27, 13.27, 13.44 a.u.
   NGXF,Y,Z  is equivalent  to a cutoff of  26.53, 26.53, 26.88 a.u.

 SYSTEM =  routine with relax: pwdword             
 POSCAR =  EA256                                   

 Startparameter for this run:
   NWRITE =      2    write-flag & timer
   PREC   = acc       normal or accurate (medium, high low for compatibility)
   ISTART =      0    job   : 0-new  1-cont  2-samecut
   ICHARG =      2    charge: 1-file 2-atom 10-const
   ISPIN  =      1    spin polarized calculation?
   LNONCOLLINEAR =      F non collinear calculations
   LSORBIT =      F    spin-orbit coupling
   INIWAV =      1    electr: 0-lowe 1-rand  2-diag
   LASPH  =      T    aspherical Exc in radial PAW
   METAGGA=      F    non-selfconsistent MetaGGA calc.

 Electronic Relaxation 1
   ENCUT  =  600.0 eV  44.10 Ry    6.64 a.u.  10.01 10.01  8.89*2*pi/ulx,y,z
   ENINI  =  600.0     initial cutoff
   ENAUG  =  535.5 eV  augmentation charge cutoff
   NELM   =    100;   NELMIN=  6; NELMDL= -5     # of ELM steps 
   EDIFF  = 0.1E-08   stopping-criterion for ELM
   LREAL  =      F    real-space projection
   NLSPLINE    = F    spline interpolate recip. space projectors
   LCOMPAT=      F    compatible to vasp.4.4
   GGA_COMPAT  = T    GGA compatible to vasp.4.4-vasp.4.6
   LMAXPAW     = -100 max onsite density
   LMAXMIX     =    2 max onsite mixed and CHGCAR
   VOSKOWN=      0    Vosko Wilk Nusair interpolation
   ROPT   =    0.00000   0.00000
 Ionic relaxation
   EDIFFG = 0.1E-07   stopping-criterion for IOM
   NSW    =      0    number of steps for IOM
   NBLOCK =      1;   KBLOCK =      1    inner block; outer block 
   IBRION =     -1    ionic relax: 0-MD 1-quasi-New 2-CG
   NFREE  =      0    steps in history (QN), initial steepest desc. (CG)
   ISIF   =     -1    stress and relaxation
   IWAVPR =     10    prediction:  0-non 1-charg 2-wave 3-comb
   ISYM   =      2    0-nonsym 1-usesym 2-fastsym
   LCORR  =      T    Harris-Foulkes like correction to forces

   POTIM  = 0.5000    time-step for ionic-motion
   TEIN   =    0.0    initial temperature
   TEBEG  =    0.0;   TEEND  =   0.0 temperature during run
   SMASS  =  -3.00    Nose mass-parameter (am)
   estimated Nose-frequenzy (Omega)   =  0.10E-29 period in steps = 0.13E+47 mass=  -0.574E-27a.u.
   SCALEE = 1.0000    scale energy and forces
   NPACO  =    256;   APACO  = 16.0  distance and # of slots for P.C.
   PSTRESS=    0.0 pullay stress

  Mass of Ions in am
   POMASS =  10.81 28.09
  Ionic Valenz
   ZVAL   =   3.00  4.00
  Atomic Wigner-Seitz radii
   RWIGS  =  -1.00 -1.00
  virtual crystal weights 
   VCA    =   1.00  1.00
   NELECT =      30.0000    total number of electrons
   NUPDOWN=      -1.0000    fix difference up-down

 DOS related values:
   EMIN   =  10.00;   EMAX   =-10.00  energy-range for DOS
   EFERMI =   0.00
   ISMEAR =     0;   SIGMA  =   0.02  broadening in eV -4-tet -1-fermi 0-gaus

 Electronic relaxation 2 (details)
   IALGO  =     58    algorithm
   LDIAG  =      T    sub-space diagonalisation (order eigenvalues)
   LSUBROT=      F    optimize rotation matrix (better conditioning)
   TURBO    =      0    0=normal 1=particle mesh
   IRESTART =      0    0=no restart 2=restart with 2 vectors
   NREBOOT  =      0    no. of reboots
   NMIN     =      0    reboot dimension
   EREF     =   0.00    reference energy to select bands
   IMIX   =      4    mixing-type and parameters
     AMIX     =   0.40;   BMIX     =  1.00
     AMIX_MAG =   1.60;   BMIX_MAG =  1.00
     AMIN     =   0.10
     WC   =   100.;   INIMIX=   1;  MIXPRE=   1;  MAXMIX= -45

 Intra band minimization:
   WEIMIN = 0.0000     energy-eigenvalue tresh-hold
   EBREAK =  0.10E-10  absolut break condition
   DEPER  =   0.30     relativ break condition  

   TIME   =   0.40     timestep for ELM

  volume/ion in A,a.u.               =      12.11        81.75
  Fermi-wavevector in a.u.,A,eV,Ry     =   1.107451  2.092779 16.686831  1.226447
  Thomas-Fermi vector in A             =   2.243965
 
 Write flags
   LWAVE        =      T    write WAVECAR
   LDOWNSAMPLE  =      F    k-point downsampling of WAVECAR
   LCHARG       =      T    write CHGCAR
   LVTOT        =      F    write LOCPOT, total local potential
   LVHAR        =      F    write LOCPOT, Hartree potential only
   LELF         =      F    write electronic localiz. function (ELF)
   LORBIT       =      0    0 simple, 1 ext, 2 COOP (PROOUT), +10 PAW based schemes


 Dipole corrections
   LMONO  =      F    monopole corrections only (constant potential shift)
   LDIPOL =      F    correct potential (dipole corrections)
   IDIPOL =      0    1-x, 2-y, 3-z, 4-all directions 
   EPSILON=  1.0000000 bulk dielectric constant

 Exchange correlation treatment:
   GGA     =    --    GGA type
   LEXCH   =     8    internal setting for exchange type
   VOSKOWN=      0    Vosko Wilk Nusair interpolation
   LHFCALC =     F    Hartree Fock is set to
   LHFONE  =     F    Hartree Fock one center treatment
   AEXX    =    0.0000 exact exchange contribution

 Linear response parameters
   LEPSILON=     F    determine dielectric tensor
   LRPA    =     F    only Hartree local field effects (RPA)
   LNABLA  =     F    use nabla operator in PAW spheres
   LVEL    =     F    velocity operator in full k-point grid
   LINTERFAST=   F  fast interpolation
   KINTER  =     0    interpolate to denser k-point grid
   CSHIFT  =0.1000    complex shift for real part using Kramers Kronig
   OMEGAMAX=  -1.0    maximum frequency
   DEG_THRESHOLD= 0.2000000E-02 threshold for treating states as degnerate
   RTIME   =   -0.100 relaxation time in fs
  (WPLASMAI=    0.000 imaginary part of plasma frequency in eV, 0.658/RTIME)
   DFIELD  = 0.0000000 0.0000000 0.0000000 field for delta impulse in time
 
 Orbital magnetization related:
   ORBITALMAG=     F  switch on orbital magnetization
   LCHIMAG   =     F  perturbation theory with respect to B field
   DQ        =  0.001000  dq finite difference perturbation B field
   LLRAUG    =     F  two centre corrections for induced B field



--------------------------------------------------------------------------------------------------------


 Static calculation
 charge density and potential will be updated during run
 non-spin polarized calculation
 Conjugate gradient for all bands (Freysoldt, et al. PRB 79, 241103 (2009))
 preconditioned conjugated gradient                                        
 perform sub-space diagonalisation
    before iterative eigenvector-optimisation
 modified Broyden-mixing scheme, WC =      100.0
 initial mixing is a Kerker type mixing with AMIX =  0.4000 and BMIX =      1.0000
 Hartree-type preconditioning will be used
 using additional bands            9
 reciprocal scheme for non local part
 use partial core corrections
 no Harris-corrections to forces 
 use gradient corrections 
 use of overlap-Matrix (Vanderbilt PP)
 Gauss-broadening in eV      SIGMA  =   0.02


--------------------------------------------------------------------------------------------------------


  energy-cutoff  :      600.00
  volume of cell :       96.91
      direct lattice vectors                 reciprocal lattice vectors
     2.506413000 -4.341234000  0.000000000     0.199488273 -0.115174625  0.000000000
     2.506413000  4.341234000  0.000000000     0.199488273  0.115174625  0.000000000
     0.000000000  0.000000000  4.453244000     0.000000000  0.000000000  0.224555403

  length of vectors
     5.012825428  5.012825428  4.453244000     0.230349225  0.230349225  0.224555403


 
 k-points in units of 2pi/SCALE and weight: EA                                      
   0.00000000  0.00000000  0.00000000       0.002
   0.02493603 -0.01439683  0.00000000       0.012
   0.04987207 -0.02879366  0.00000000       0.012
   0.07480810 -0.04319048  0.00000000       0.012
   0.09974414 -0.05758731  0.00000000       0.006
   0.04987207  0.00000000  0.00000000       0.012
   0.07480810 -0.01439683  0.00000000       0.023
   0.09974414 -0.02879366  0.00000000       0.023
   0.09974414  0.00000000  0.00000000       0.012
   0.12468017 -0.01439683  0.00000000       0.012
   0.00000000  0.00000000  0.02806943       0.004
   0.02493603 -0.01439683  0.02806943       0.023
   0.04987207 -0.02879366  0.02806943       0.023
   0.07480810 -0.04319048  0.02806943       0.023
   0.09974414 -0.05758731  0.02806943       0.012
   0.04987207  0.00000000  0.02806943       0.023
   0.07480810 -0.01439683  0.02806943       0.047
   0.09974414 -0.02879366  0.02806943       0.047
   0.09974414  0.00000000  0.02806943       0.023
   0.12468017 -0.01439683  0.02806943       0.023
   0.00000000  0.00000000  0.05613885       0.004
   0.02493603 -0.01439683  0.05613885       0.023
   0.04987207 -0.02879366  0.05613885       0.023
   0.07480810 -0.04319048  0.05613885       0.023
   0.09974414 -0.05758731  0.05613885       0.012
   0.04987207  0.00000000  0.05613885       0.023
   0.07480810 -0.01439683  0.05613885       0.047
   0.09974414 -0.02879366  0.05613885       0.047
   0.09974414  0.00000000  0.05613885       0.023
   0.12468017 -0.01439683  0.05613885       0.023
   0.00000000  0.00000000  0.08420828       0.004
   0.02493603 -0.01439683  0.08420828       0.023
   0.04987207 -0.02879366  0.08420828       0.023
   0.07480810 -0.04319048  0.08420828       0.023
   0.09974414 -0.05758731  0.08420828       0.012
   0.04987207  0.00000000  0.08420828       0.023
   0.07480810 -0.01439683  0.08420828       0.047
   0.09974414 -0.02879366  0.08420828       0.047
   0.09974414  0.00000000  0.08420828       0.023
   0.12468017 -0.01439683  0.08420828       0.023
   0.00000000  0.00000000  0.11227770       0.002
   0.02493603 -0.01439683  0.11227770       0.012
   0.04987207 -0.02879366  0.11227770       0.012
   0.07480810 -0.04319048  0.11227770       0.012
   0.09974414 -0.05758731  0.11227770       0.006
   0.04987207  0.00000000  0.11227770       0.012
   0.07480810 -0.01439683  0.11227770       0.023
   0.09974414 -0.02879366  0.11227770       0.023
   0.09974414  0.00000000  0.11227770       0.012
   0.12468017 -0.01439683  0.11227770       0.012
 
 k-points in reciprocal lattice and weights: EA                                      
   0.00000000  0.00000000  0.00000000       0.002
   0.12500000  0.00000000  0.00000000       0.012
   0.25000000  0.00000000  0.00000000       0.012
   0.37500000 -0.00000000  0.00000000       0.012
   0.50000000  0.00000000  0.00000000       0.006
   0.12500000  0.12500000  0.00000000       0.012
   0.25000000  0.12500000  0.00000000       0.023
   0.37500000  0.12500000  0.00000000       0.023
   0.25000000  0.25000000  0.00000000       0.012
   0.37500000  0.25000000  0.00000000       0.012
   0.00000000  0.00000000  0.12500000       0.004
   0.12500000  0.00000000  0.12500000       0.023
   0.25000000  0.00000000  0.12500000       0.023
   0.37500000 -0.00000000  0.12500000       0.023
   0.50000000  0.00000000  0.12500000       0.012
   0.12500000  0.12500000  0.12500000       0.023
   0.25000000  0.12500000  0.12500000       0.047
   0.37500000  0.12500000  0.12500000       0.047
   0.25000000  0.25000000  0.12500000       0.023
   0.37500000  0.25000000  0.12500000       0.023
   0.00000000  0.00000000  0.25000000       0.004
   0.12500000  0.00000000  0.25000000       0.023
   0.25000000  0.00000000  0.25000000       0.023
   0.37500000 -0.00000000  0.25000000       0.023
   0.50000000  0.00000000  0.25000000       0.012
   0.12500000  0.12500000  0.25000000       0.023
   0.25000000  0.12500000  0.25000000       0.047
   0.37500000  0.12500000  0.25000000       0.047
   0.25000000  0.25000000  0.25000000       0.023
   0.37500000  0.25000000  0.25000000       0.023
   0.00000000  0.00000000  0.37500000       0.004
   0.12500000  0.00000000  0.37500000       0.023
   0.25000000  0.00000000  0.37500000       0.023
   0.37500000 -0.00000000  0.37500000       0.023
   0.50000000  0.00000000  0.37500000       0.012
   0.12500000  0.12500000  0.37500000       0.023
   0.25000000  0.12500000  0.37500000       0.047
   0.37500000  0.12500000  0.37500000       0.047
   0.25000000  0.25000000  0.37500000       0.023
   0.37500000  0.25000000  0.37500000       0.023
   0.00000000  0.00000000  0.50000000       0.002
   0.12500000  0.00000000  0.50000000       0.012
   0.25000000  0.00000000  0.50000000       0.012
   0.37500000 -0.00000000  0.50000000       0.012
   0.50000000  0.00000000  0.50000000       0.006
   0.12500000  0.12500000  0.50000000       0.012
   0.25000000  0.12500000  0.50000000       0.023
   0.37500000  0.12500000  0.50000000       0.023
   0.25000000  0.25000000  0.50000000       0.012
   0.37500000  0.25000000  0.50000000       0.012
 
 position of ions in fractional coordinates (direct lattice) 
   0.33333300  0.66666700  0.75000000
   0.66666700  0.33333300  0.25000000
   0.16913800  0.33827500  0.25000000
   0.66172500  0.83086200  0.25000000
   0.16913800  0.83086200  0.25000000
   0.83086200  0.66172500  0.75000000
   0.33827500  0.16913800  0.75000000
   0.83086200  0.16913800  0.75000000
 
 position of ions in cartesian coordinates  (Angst):
   2.50641300  1.44708089  3.33993300
   2.50641300 -1.44708089  1.11331100
   1.27178654  0.73426330  1.11331100
   3.74103946  0.73426330  1.11331100
   2.50641300  2.87269873  1.11331100
   3.74103946 -0.73426330  3.33993300
   1.27178654 -0.73426330  3.33993300
   2.50641300 -2.87269873  3.33993300
 


--------------------------------------------------------------------------------------------------------


 k-point   1 :   0.0000 0.0000 0.0000  plane waves:    3215
 k-point   2 :   0.1250 0.0000 0.0000  plane waves:    3241
 k-point   3 :   0.2500 0.0000 0.0000  plane waves:    3233
 k-point   4 :   0.3750-0.0000 0.0000  plane waves:    3218
 k-point   5 :   0.5000 0.0000 0.0000  plane waves:    3216
 k-point   6 :   0.1250 0.1250 0.0000  plane waves:    3240
 k-point   7 :   0.2500 0.1250 0.0000  plane waves:    3225
 k-point   8 :   0.3750 0.1250 0.0000  plane waves:    3231
 k-point   9 :   0.2500 0.2500 0.0000  plane waves:    3234
 k-point  10 :   0.3750 0.2500 0.0000  plane waves:    3232
 k-point  11 :   0.0000 0.0000 0.1250  plane waves:    3216
 k-point  12 :   0.1250 0.0000 0.1250  plane waves:    3225
 k-point  13 :   0.2500 0.0000 0.1250  plane waves:    3222
 k-point  14 :   0.3750-0.0000 0.1250  plane waves:    3221
 k-point  15 :   0.5000 0.0000 0.1250  plane waves:    3220
 k-point  16 :   0.1250 0.1250 0.1250  plane waves:    3227
 k-point  17 :   0.2500 0.1250 0.1250  plane waves:    3231
 k-point  18 :   0.3750 0.1250 0.1250  plane waves:    3227
 k-point  19 :   0.2500 0.2500 0.1250  plane waves:    3245
 k-point  20 :   0.3750 0.2500 0.1250  plane waves:    3240
 k-point  21 :   0.0000 0.0000 0.2500  plane waves:    3222
 k-point  22 :   0.1250 0.0000 0.2500  plane waves:    3217
 k-point  23 :   0.2500 0.0000 0.2500  plane waves:    3219
 k-point  24 :   0.3750-0.0000 0.2500  plane waves:    3236
 k-point  25 :   0.5000 0.0000 0.2500  plane waves:    3236
 k-point  26 :   0.1250 0.1250 0.2500  plane waves:    3219
 k-point  27 :   0.2500 0.1250 0.2500  plane waves:    3238
 k-point  28 :   0.3750 0.1250 0.2500  plane waves:    3243
 k-point  29 :   0.2500 0.2500 0.2500  plane waves:    3248
 k-point  30 :   0.3750 0.2500 0.2500  plane waves:    3250
 k-point  31 :   0.0000 0.0000 0.3750  plane waves:    3204
 k-point  32 :   0.1250 0.0000 0.3750  plane waves:    3220
 k-point  33 :   0.2500 0.0000 0.3750  plane waves:    3230
 k-point  34 :   0.3750-0.0000 0.3750  plane waves:    3235
 k-point  35 :   0.5000 0.0000 0.3750  plane waves:    3244
 k-point  36 :   0.1250 0.1250 0.3750  plane waves:    3230
 k-point  37 :   0.2500 0.1250 0.3750  plane waves:    3244
 k-point  38 :   0.3750 0.1250 0.3750  plane waves:    3247
 k-point  39 :   0.2500 0.2500 0.3750  plane waves:    3248
 k-point  40 :   0.3750 0.2500 0.3750  plane waves:    3235
 k-point  41 :   0.0000 0.0000 0.5000  plane waves:    3210
 k-point  42 :   0.1250 0.0000 0.5000  plane waves:    3214
 k-point  43 :   0.2500 0.0000 0.5000  plane waves:    3240
 k-point  44 :   0.3750-0.0000 0.5000  plane waves:    3234
 k-point  45 :   0.5000 0.0000 0.5000  plane waves:    3244
 k-point  46 :   0.1250 0.1250 0.5000  plane waves:    3220
 k-point  47 :   0.2500 0.1250 0.5000  plane waves:    3240
 k-point  48 :   0.3750 0.1250 0.5000  plane waves:    3244
 k-point  49 :   0.2500 0.2500 0.5000  plane waves:    3254
 k-point  50 :   0.3750 0.2500 0.5000  plane waves:    3242

 maximum and minimum number of plane-waves per node :      1647     1581

 maximum number of plane-waves:      3254
 maximum index in each direction: 
   IXMAX=   10   IYMAX=   10   IZMAX=    8
   IXMIN=  -10   IYMIN=  -10   IZMIN=   -9


 parallel 3D FFT for wavefunctions:
    minimum data exchange during FFTs selected (reduces bandwidth)
 parallel 3D FFT for charge:
    minimum data exchange during FFTs selected (reduces bandwidth)


 total amount of memory used by VASP MPI-rank0    68149. kBytes
=======================================================================

   base      :      30000. kBytes
   nonl-proj :      10653. kBytes
   fftplans  :       6753. kBytes
   grid      :       4720. kBytes
   one-center:         12. kBytes
   wavefun   :      16011. kBytes
 
     INWAV:  cpu time    0.0000: real time    0.0000
 Broyden mixing: mesh for mixing (old mesh)
   NGX = 21   NGY = 21   NGZ = 17
  (NGX  = 80   NGY  = 80   NGZ  = 72)
  gives a total of   7497 points

 initial charge density was supplied:
 charge density of overlapping atoms calculated
 number of electron      30.0000000 magnetization 
 keeping initial charge density in first step


--------------------------------------------------------------------------------------------------------


 Maximum index for augmentation-charges        13845 (set IRDMAX)


--------------------------------------------------------------------------------------------------------


 First call to EWALD:  gamma=   0.386
 Maximum number of real-space cells 3x 3x 3
 Maximum number of reciprocal cells 3x 3x 3

    FEWALD:  cpu time    0.0022: real time    0.0022


--------------------------------------- Iteration      1(   1)  ---------------------------------------


    POTLOK:  cpu time    0.0552: real time    0.0559
    SETDIJ:  cpu time    0.2045: real time    0.2058
    TRIAL :  cpu time    1.3161: real time    1.3270
    CORREC:  cpu time    0.0004: real time    0.0004
    --------------------------------------------
      LOOP:  cpu time    1.5854: real time    1.6017

 eigenvalue-minimisations  :  2400
 total energy-change (2. order) : 0.3427298E+02  (-0.1623294E+04)
 number of electron      30.0000000 magnetization 
 augmentation part       30.0000000 magnetization 

 Free energy of the ion-electron system (eV)
  ---------------------------------------------------
  alpha Z        PSCENC =        29.82889321
  Ewald energy   TEWEN  =     -1024.44095619
  -Hartree energ DENC   =        -5.27234867
  -exchange      EXHF   =         0.00000000
  -V(xc)+E(xc)   XCENC  =        -8.48557446
  PAW double counting   =       583.06613608     -518.44463209
  entropy T*S    EENTRO =        -0.00035391
  eigenvalues    EBANDS =       217.28325363
  atomic energy  EATOM  =       760.73855882
  ---------------------------------------------------
  free energy    TOTEN  =        34.27297642 eV

  energy without entropy =       34.27333033  energy(sigma->0) =       34.27315338


--------------------------------------------------------------------------------------------------------




--------------------------------------- Iteration      1(   2)  ---------------------------------------


    TRIAL :  cpu time    1.5423: real time    1.5544
    CORREC:  cpu time    0.0005: real time    0.0005
    --------------------------------------------
      LOOP:  cpu time    1.5450: real time    1.5578

 eigenvalue-minimisations  :  3312
 total energy-change (2. order) :-0.9434806E+02  (-0.9132303E+02)
 number of electron      30.0000000 magnetization 
 augmentation part       30.0000000 magnetization 

 Free energy of the ion-electron system (eV)
  ---------------------------------------------------
  alpha Z        PSCENC =        29.82889321
  Ewald energy   TEWEN  =     -1024.44095619
  -Hartree energ DENC   =        -5.27234867
  -exchange      EXHF   =         0.00000000
  -V(xc)+E(xc)   XCENC  =        -8.48557446
  PAW double counting   =       583.06613608     -518.44463209
  entropy T*S    EENTRO =        -0.00050391
  eigenvalues    EBANDS =       122.93534541
  atomic energy  EATOM  =       760.73855882
  ---------------------------------------------------
  free energy    TOTEN  =       -60.07508181 eV

  energy without entropy =      -60.07457790  energy(sigma->0) =      -60.07482985


--------------------------------------------------------------------------------------------------------




--------------------------------------- Iteration      1(   3)  ---------------------------------------


    TRIAL :  cpu time    1.5717: real time    1.5843
    CORREC:  cpu time    0.0004: real time    0.0004
    --------------------------------------------
      LOOP:  cpu time    1.5728: real time    1.5876

 eigenvalue-minimisations  :  3300
 total energy-change (2. order) :-0.2871675E+01  (-0.2838737E+01)
 number of electron      30.0000000 magnetization 
 augmentation part       30.0000000 magnetization 

 Free energy of the ion-electron system (eV)
  ---------------------------------------------------
  alpha Z        PSCENC =        29.82889321
  Ewald energy   TEWEN  =     -1024.44095619
  -Hartree energ DENC   =        -5.27234867
  -exchange      EXHF   =         0.00000000
  -V(xc)+E(xc)   XCENC  =        -8.48557446
  PAW double counting   =       583.06613608     -518.44463209
  entropy T*S    EENTRO =        -0.00033263
  eigenvalues    EBANDS =       120.06349957
  atomic energy  EATOM  =       760.73855882
  ---------------------------------------------------
  free energy    TOTEN  =       -62.94675636 eV

  energy without entropy =      -62.94642373  energy(sigma->0) =      -62.94659005


--------------------------------------------------------------------------------------------------------




--------------------------------------- Iteration      1(   4)  ---------------------------------------


    TRIAL :  cpu time    1.4917: real time    1.5035
    CORREC:  cpu time    0.0005: real time    0.0005
    --------------------------------------------
      LOOP:  cpu time    1.4939: real time    1.5067

 eigenvalue-minimisations  :  3036
 total energy-change (2. order) :-0.1606192E-01  (-0.1605914E-01)
 number of electron      30.0000000 magnetization 
 augmentation part       30.0000000 magnetization 

 Free energy of the ion-electron system (eV)
  ---------------------------------------------------
  alpha Z        PSCENC =        29.82889321
  Ewald energy   TEWEN  =     -1024.44095619
  -Hartree energ DENC   =        -5.27234867
  -exchange      EXHF   =         0.00000000
  -V(xc)+E(xc)   XCENC  =        -8.48557446
  PAW double counting   =       583.06613608     -518.44463209
  entropy T*S    EENTRO =        -0.00034000
  eigenvalues    EBANDS =       120.04744502
  atomic energy  EATOM  =       760.73855882
  ---------------------------------------------------
  free energy    TOTEN  =       -62.96281828 eV

  energy without entropy =      -62.96247828  energy(sigma->0) =      -62.96264828


--------------------------------------------------------------------------------------------------------




--------------------------------------- Iteration      1(   5)  ---------------------------------------


    TRIAL :  cpu time    1.6190: real time    1.6316
    CORREC:  cpu time    0.0004: real time    0.0004
    CHARGE:  cpu time    0.2252: real time    0.2280
    --------------------------------------------
      LOOP:  cpu time    1.8453: real time    1.8630

 eigenvalue-minimisations  :  3324
 total energy-change (2. order) :-0.1344147E-03  (-0.1343967E-03)
 number of electron      30.0000000 magnetization 
 augmentation part       -1.4509223 magnetization 

 Free energy of the ion-electron system (eV)
  ---------------------------------------------------
  alpha Z        PSCENC =        29.82889321
  Ewald energy   TEWEN  =     -1024.44095619
  -Hartree energ DENC   =        -5.27234867
  -exchange      EXHF   =         0.00000000
  -V(xc)+E(xc)   XCENC  =        -8.48557446
  PAW double counting   =       583.06613608     -518.44463209
  entropy T*S    EENTRO =        -0.00034002
  eigenvalues    EBANDS =       120.04731063
  atomic energy  EATOM  =       760.73855882
  ---------------------------------------------------
  free energy    TOTEN  =       -62.96295269 eV

  energy without entropy =      -62.96261267  energy(sigma->0) =      -62.96278268


--------------------------------------------------------------------------------------------------------




--------------------------------------- Iteration      1(   6)  ---------------------------------------


    POTLOK:  cpu time    0.0549: real time    0.0552
    SETDIJ:  cpu time    0.1978: real time    0.1989
    TRIAL :  cpu time    1.0267: real time    1.0351
    CORREC:  cpu time    0.7523: real time    0.7582
    CHARGE:  cpu time    0.2258: real time    0.2281
    --------------------------------------------
      LOOP:  cpu time    2.2627: real time    2.2811

 eigenvalue-minimisations  :     0
 total energy-change (2. order) : 0.4556756E+01  (-0.1987089E+00)
 number of electron      30.0000000 magnetization 
 augmentation part       -1.4518024 magnetization 

 Free energy of the ion-electron system (eV)
  ---------------------------------------------------
  alpha Z        PSCENC =        29.82889321
  Ewald energy   TEWEN  =     -1024.44095619
  -Hartree energ DENC   =        -5.95018056
  -exchange      EXHF   =         0.00000000
  -V(xc)+E(xc)   XCENC  =        -4.99165870
  PAW double counting   =      3619.49882016    -3555.07873747
  entropy T*S    EENTRO =        -0.00048972
  eigenvalues    EBANDS =       121.98940374
  atomic energy  EATOM  =       760.73855882
  ---------------------------------------------------
  free energy    TOTEN  =       -58.40619702 eV

  energy without entropy =      -58.40570730  energy(sigma->0) =      -58.40595216


--------------------------------------------------------------------------------------------------------




--------------------------------------- Iteration      1(   7)  ---------------------------------------


    POTLOK:  cpu time    0.0474: real time    0.0476
    SETDIJ:  cpu time    0.1984: real time    0.1995
    TRIAL :  cpu time    0.9804: real time    0.9876
    CORREC:  cpu time    0.7597: real time    0.7655
    CHARGE:  cpu time    0.2180: real time    0.2199
    --------------------------------------------
      LOOP:  cpu time    2.2123: real time    2.2299

 eigenvalue-minimisations  :     0
 total energy-change (2. order) :-0.2016253E+00  (-0.2302917E-01)
 number of electron      30.0000000 magnetization 
 augmentation part       -1.4401205 magnetization 

 Free energy of the ion-electron system (eV)
  ---------------------------------------------------
  alpha Z        PSCENC =        29.82889321
  Ewald energy   TEWEN  =     -1024.44095619
  -Hartree energ DENC   =        -5.04161005
  -exchange      EXHF   =         0.00000000
  -V(xc)+E(xc)   XCENC  =        -5.15929230
  PAW double counting   =      3751.65572424    -3687.19612398
  entropy T*S    EENTRO =        -0.00036692
  eigenvalues    EBANDS =       121.00747362
  atomic energy  EATOM  =       760.73855882
  ---------------------------------------------------
  free energy    TOTEN  =       -58.60782235 eV

  energy without entropy =      -58.60745543  energy(sigma->0) =      -58.60763889


--------------------------------------------------------------------------------------------------------




--------------------------------------- Iteration      1(   8)  ---------------------------------------


    POTLOK:  cpu time    0.0506: real time    0.0509
    SETDIJ:  cpu time    0.2007: real time    0.2019
    TRIAL :  cpu time    1.0466: real time    1.0543
    CORREC:  cpu time    0.7167: real time    0.7227
    CHARGE:  cpu time    0.2103: real time    0.2122
    --------------------------------------------
      LOOP:  cpu time    2.2354: real time    2.2531

 eigenvalue-minimisations  :     0
 total energy-change (2. order) :-0.2335047E-01  (-0.4414674E-02)
 number of electron      30.0000000 magnetization 
 augmentation part       -1.4353492 magnetization 

 Free energy of the ion-electron system (eV)
  ---------------------------------------------------
  alpha Z        PSCENC =        29.82889321
  Ewald energy   TEWEN  =     -1024.44095619
  -Hartree energ DENC   =        -4.92436678
  -exchange      EXHF   =         0.00000000
  -V(xc)+E(xc)   XCENC  =        -5.20092006
  PAW double counting   =      3835.09410949    -3770.61910237
  entropy T*S    EENTRO =        -0.00026578
  eigenvalues    EBANDS =       120.89297798
  atomic energy  EATOM  =       760.73855882
  ---------------------------------------------------
  free energy    TOTEN  =       -58.63117282 eV

  energy without entropy =      -58.63090704  energy(sigma->0) =      -58.63103993


--------------------------------------------------------------------------------------------------------




--------------------------------------- Iteration      1(   9)  ---------------------------------------


    POTLOK:  cpu time    0.0480: real time    0.0483
    SETDIJ:  cpu time    0.1986: real time    0.1997
    TRIAL :  cpu time    1.0110: real time    1.0183
    CORREC:  cpu time    0.7235: real time    0.7288
    CHARGE:  cpu time    0.2148: real time    0.2167
    --------------------------------------------
      LOOP:  cpu time    2.2038: real time    2.2206

 eigenvalue-minimisations  :     0
 total energy-change (2. order) :-0.4479865E-02  (-0.9283536E-03)
 number of electron      30.0000000 magnetization 
 augmentation part       -1.4341649 magnetization 

 Free energy of the ion-electron system (eV)
  ---------------------------------------------------
  alpha Z        PSCENC =        29.82889321
  Ewald energy   TEWEN  =     -1024.44095619
  -Hartree energ DENC   =        -4.93364100
  -exchange      EXHF   =         0.00000000
  -V(xc)+E(xc)   XCENC  =        -5.20610732
  PAW double counting   =      3857.14409417    -3792.66684935
  entropy T*S    EENTRO =        -0.00026361
  eigenvalues    EBANDS =       120.90062077
  atomic energy  EATOM  =       760.73855882
  ---------------------------------------------------
  free energy    TOTEN  =       -58.63565269 eV

  energy without entropy =      -58.63538907  energy(sigma->0) =      -58.63552088


--------------------------------------------------------------------------------------------------------




--------------------------------------- Iteration      1(  10)  ---------------------------------------


    POTLOK:  cpu time    0.0483: real time    0.0486
    SETDIJ:  cpu time    0.1995: real time    0.2006
    TRIAL :  cpu time    0.9830: real time    0.9901
    CORREC:  cpu time    0.7255: real time    0.7309
    CHARGE:  cpu time    0.2114: real time    0.2134
    --------------------------------------------
      LOOP:  cpu time    2.1770: real time    2.1936

 eigenvalue-minimisations  :     0
 total energy-change (2. order) :-0.9438508E-03  (-0.1059352E-03)
 number of electron      30.0000000 magnetization 
 augmentation part       -1.4333237 magnetization 

 Free energy of the ion-electron system (eV)
  ---------------------------------------------------
  alpha Z        PSCENC =        29.82889321
  Ewald energy   TEWEN  =     -1024.44095619
  -Hartree energ DENC   =        -4.92996171
  -exchange      EXHF   =         0.00000000
  -V(xc)+E(xc)   XCENC  =        -5.20570014
  PAW double counting   =      3858.54507679    -3794.06795061
  entropy T*S    EENTRO =        -0.00026735
  eigenvalues    EBANDS =       120.89570692
  atomic energy  EATOM  =       760.73855882
  ---------------------------------------------------
  free energy    TOTEN  =       -58.63659654 eV

  energy without entropy =      -58.63632919  energy(sigma->0) =      -58.63646286


--------------------------------------------------------------------------------------------------------




--------------------------------------- Iteration      1(  11)  ---------------------------------------


    POTLOK:  cpu time    0.0491: real time    0.0494
    SETDIJ:  cpu time    0.1969: real time    0.1981
    TRIAL :  cpu time    0.9819: real time    0.9893
    CORREC:  cpu time    0.7435: real time    0.7492
    CHARGE:  cpu time    0.2143: real time    0.2163
    --------------------------------------------
      LOOP:  cpu time    2.1960: real time    2.2132

 eigenvalue-minimisations  :     0
 total energy-change (2. order) :-0.1113046E-03  (-0.1156664E-04)
 number of electron      30.0000000 magnetization 
 augmentation part       -1.4330772 magnetization 

 Free energy of the ion-electron system (eV)
  ---------------------------------------------------
  alpha Z        PSCENC =        29.82889321
  Ewald energy   TEWEN  =     -1024.44095619
  -Hartree energ DENC   =        -4.92587728
  -exchange      EXHF   =         0.00000000
  -V(xc)+E(xc)   XCENC  =        -5.20675830
  PAW double counting   =      3859.37250808    -3794.89505901
  entropy T*S    EENTRO =        -0.00026858
  eigenvalues    EBANDS =       120.89225019
  atomic energy  EATOM  =       760.73855882
  ---------------------------------------------------
  free energy    TOTEN  =       -58.63670784 eV

  energy without entropy =      -58.63643926  energy(sigma->0) =      -58.63657355


--------------------------------------------------------------------------------------------------------




--------------------------------------- Iteration      1(  12)  ---------------------------------------


    POTLOK:  cpu time    0.0485: real time    0.0488
    SETDIJ:  cpu time    0.1970: real time    0.1982
    TRIAL :  cpu time    1.0101: real time    1.0175
    CORREC:  cpu time    0.7256: real time    0.7310
    CHARGE:  cpu time    0.2115: real time    0.2135
    --------------------------------------------
      LOOP:  cpu time    2.2055: real time    2.2226

 eigenvalue-minimisations  :     0
 total energy-change (2. order) :-0.1245009E-04  (-0.1719406E-05)
 number of electron      30.0000000 magnetization 
 augmentation part       -1.4330639 magnetization 

 Free energy of the ion-electron system (eV)
  ---------------------------------------------------
  alpha Z        PSCENC =        29.82889321
  Ewald energy   TEWEN  =     -1024.44095619
  -Hartree energ DENC   =        -4.92770785
  -exchange      EXHF   =         0.00000000
  -V(xc)+E(xc)   XCENC  =        -5.20688181
  PAW double counting   =      3858.62767621    -3794.15020411
  entropy T*S    EENTRO =        -0.00026901
  eigenvalues    EBANDS =       120.89417002
  atomic energy  EATOM  =       760.73855882
  ---------------------------------------------------
  free energy    TOTEN  =       -58.63672029 eV

  energy without entropy =      -58.63645128  energy(sigma->0) =      -58.63658578


--------------------------------------------------------------------------------------------------------




--------------------------------------- Iteration      1(  13)  ---------------------------------------


    POTLOK:  cpu time    0.0489: real time    0.0491
    SETDIJ:  cpu time    0.1990: real time    0.2002
    TRIAL :  cpu time    0.9760: real time    0.9839
    CORREC:  cpu time    0.7596: real time    0.7655
    CHARGE:  cpu time    0.2234: real time    0.2254
    --------------------------------------------
      LOOP:  cpu time    2.2076: real time    2.2259

 eigenvalue-minimisations  :     0
 total energy-change (2. order) :-0.1769809E-05  (-0.1917394E-06)
 number of electron      30.0000000 magnetization 
 augmentation part       -1.4330486 magnetization 

 Free energy of the ion-electron system (eV)
  ---------------------------------------------------
  alpha Z        PSCENC =        29.82889321
  Ewald energy   TEWEN  =     -1024.44095619
  -Hartree energ DENC   =        -4.92755288
  -exchange      EXHF   =         0.00000000
  -V(xc)+E(xc)   XCENC  =        -5.20700548
  PAW double counting   =      3858.08353541    -3793.60604061
  entropy T*S    EENTRO =        -0.00026916
  eigenvalues    EBANDS =       120.89411469
  atomic energy  EATOM  =       760.73855882
  ---------------------------------------------------
  free energy    TOTEN  =       -58.63672206 eV

  energy without entropy =      -58.63645290  energy(sigma->0) =      -58.63658748


--------------------------------------------------------------------------------------------------------




--------------------------------------- Iteration      1(  14)  ---------------------------------------


    POTLOK:  cpu time    0.0493: real time    0.0496
    SETDIJ:  cpu time    0.1959: real time    0.1969
    TRIAL :  cpu time    1.0032: real time    1.0104
    CORREC:  cpu time    0.7362: real time    0.7419
    CHARGE:  cpu time    0.2138: real time    0.2160
    --------------------------------------------
      LOOP:  cpu time    2.1997: real time    2.2180

 eigenvalue-minimisations  :     0
 total energy-change (2. order) :-0.2004272E-06  (-0.2371032E-07)
 number of electron      30.0000000 magnetization 
 augmentation part       -1.4330437 magnetization 

 Free energy of the ion-electron system (eV)
  ---------------------------------------------------
  alpha Z        PSCENC =        29.82889321
  Ewald energy   TEWEN  =     -1024.44095619
  -Hartree energ DENC   =        -4.92764950
  -exchange      EXHF   =         0.00000000
  -V(xc)+E(xc)   XCENC  =        -5.20698718
  PAW double counting   =      3857.97957149    -3793.50207838
  entropy T*S    EENTRO =        -0.00026919
  eigenvalues    EBANDS =       120.89419462
  atomic energy  EATOM  =       760.73855882
  ---------------------------------------------------
  free energy    TOTEN  =       -58.63672226 eV

  energy without entropy =      -58.63645307  energy(sigma->0) =      -58.63658766


--------------------------------------------------------------------------------------------------------




--------------------------------------- Iteration      1(  15)  ---------------------------------------


    POTLOK:  cpu time    0.0494: real time    0.0499
    SETDIJ:  cpu time    0.2036: real time    0.2052
    TRIAL :  cpu time    0.9821: real time    0.9897
    CORREC:  cpu time    0.7387: real time    0.7445
    CHARGE:  cpu time    0.2198: real time    0.2219
    --------------------------------------------
      LOOP:  cpu time    2.2007: real time    2.2191

 eigenvalue-minimisations  :     0
 total energy-change (2. order) :-0.1629815E-07  (-0.5737679E-08)
 number of electron      30.0000000 magnetization 
 augmentation part       -1.4330422 magnetization 

 Free energy of the ion-electron system (eV)
  ---------------------------------------------------
  alpha Z        PSCENC =        29.82889321
  Ewald energy   TEWEN  =     -1024.44095619
  -Hartree energ DENC   =        -4.92763773
  -exchange      EXHF   =         0.00000000
  -V(xc)+E(xc)   XCENC  =        -5.20698922
  PAW double counting   =      3857.97455174    -3793.49705777
  entropy T*S    EENTRO =        -0.00026921
  eigenvalues    EBANDS =       120.89418407
  atomic energy  EATOM  =       760.73855882
  ---------------------------------------------------
  free energy    TOTEN  =       -58.63672228 eV

  energy without entropy =      -58.63645307  energy(sigma->0) =      -58.63658767


--------------------------------------------------------------------------------------------------------




--------------------------------------- Iteration      1(  16)  ---------------------------------------


    POTLOK:  cpu time    0.0492: real time    0.0495
    SETDIJ:  cpu time    0.1958: real time    0.1969
    TRIAL :  cpu time    0.9610: real time    0.9675
    CORREC:  cpu time    0.7275: real time    0.7337
    CHARGE:  cpu time    0.2127: real time    0.2147
    --------------------------------------------
      LOOP:  cpu time    2.1549: real time    2.1718

 eigenvalue-minimisations  :     0
 total energy-change (2. order) :-0.1450644E-09  (-0.3638835E-08)
 number of electron      30.0000000 magnetization 
 augmentation part       -1.4330410 magnetization 

 Free energy of the ion-electron system (eV)
  ---------------------------------------------------
  alpha Z        PSCENC =        29.82889321
  Ewald energy   TEWEN  =     -1024.44095619
  -Hartree energ DENC   =        -4.92762151
  -exchange      EXHF   =         0.00000000
  -V(xc)+E(xc)   XCENC  =        -5.20699334
  PAW double counting   =      3857.97748772    -3793.49999291
  entropy T*S    EENTRO =        -0.00026922
  eigenvalues    EBANDS =       120.89417114
  atomic energy  EATOM  =       760.73855882
  ---------------------------------------------------
  free energy    TOTEN  =       -58.63672228 eV

  energy without entropy =      -58.63645306  energy(sigma->0) =      -58.63658767


--------------------------------------------------------------------------------------------------------




--------------------------------------- Iteration      1(  17)  ---------------------------------------


    POTLOK:  cpu time    0.0488: real time    0.0491
    SETDIJ:  cpu time    0.1974: real time    0.1985
    TRIAL :  cpu time    1.0089: real time    1.0163
    CORREC:  cpu time    0.7437: real time    0.7491
    CHARGE:  cpu time    0.2136: real time    0.2156
    --------------------------------------------
      LOOP:  cpu time    2.2215: real time    2.2382

 eigenvalue-minimisations  :     0
 total energy-change (2. order) : 0.1082299E-09  (-0.2016152E-08)
 number of electron      30.0000000 magnetization 
 augmentation part       -1.4330402 magnetization 

 Free energy of the ion-electron system (eV)
  ---------------------------------------------------
  alpha Z        PSCENC =        29.82889321
  Ewald energy   TEWEN  =     -1024.44095619
  -Hartree energ DENC   =        -4.92761166
  -exchange      EXHF   =         0.00000000
  -V(xc)+E(xc)   XCENC  =        -5.20699629
  PAW double counting   =      3857.97895138    -3793.50145597
  entropy T*S    EENTRO =        -0.00026922
  eigenvalues    EBANDS =       120.89416366
  atomic energy  EATOM  =       760.73855882
  ---------------------------------------------------
  free energy    TOTEN  =       -58.63672228 eV

  energy without entropy =      -58.63645305  energy(sigma->0) =      -58.63658767


--------------------------------------------------------------------------------------------------------




--------------------------------------- Iteration      1(  18)  ---------------------------------------


    POTLOK:  cpu time    0.0493: real time    0.0497
    SETDIJ:  cpu time    0.1985: real time    0.1996
    TRIAL :  cpu time    1.0142: real time    1.0217
    CORREC:  cpu time    0.7692: real time    0.7762
    CHARGE:  cpu time    0.2220: real time    0.2242
    --------------------------------------------
      LOOP:  cpu time    2.2539: real time    2.2742

 eigenvalue-minimisations  :     0
 total energy-change (2. order) : 0.1713488E-08  (-0.1728176E-08)
 number of electron      30.0000000 magnetization 
 augmentation part       -1.4330394 magnetization 

 Free energy of the ion-electron system (eV)
  ---------------------------------------------------
  alpha Z        PSCENC =        29.82889321
  Ewald energy   TEWEN  =     -1024.44095619
  -Hartree energ DENC   =        -4.92760630
  -exchange      EXHF   =         0.00000000
  -V(xc)+E(xc)   XCENC  =        -5.20699818
  PAW double counting   =      3857.97948545    -3793.50198967
  entropy T*S    EENTRO =        -0.00026923
  eigenvalues    EBANDS =       120.89415982
  atomic energy  EATOM  =       760.73855882
  ---------------------------------------------------
  free energy    TOTEN  =       -58.63672228 eV

  energy without entropy =      -58.63645304  energy(sigma->0) =      -58.63658766


--------------------------------------------------------------------------------------------------------




--------------------------------------- Iteration      1(  19)  ---------------------------------------


    POTLOK:  cpu time    0.0493: real time    0.0497
    SETDIJ:  cpu time    0.1979: real time    0.1990
    TRIAL :  cpu time    0.9952: real time    1.0024
    CORREC:  cpu time    0.7394: real time    0.7450
    CHARGE:  cpu time    0.2170: real time    0.2191
    --------------------------------------------
      LOOP:  cpu time    2.2011: real time    2.2184

 eigenvalue-minimisations  :     0
 total energy-change (2. order) : 0.3574314E-09  (-0.1006897E-08)
 number of electron      30.0000000 magnetization 
 augmentation part       -1.4330389 magnetization 

 Free energy of the ion-electron system (eV)
  ---------------------------------------------------
  alpha Z        PSCENC =        29.82889321
  Ewald energy   TEWEN  =     -1024.44095619
  -Hartree energ DENC   =        -4.92760165
  -exchange      EXHF   =         0.00000000
  -V(xc)+E(xc)   XCENC  =        -5.20700001
  PAW double counting   =      3857.97975080    -3793.50225465
  entropy T*S    EENTRO =        -0.00026924
  eigenvalues    EBANDS =       120.89415663
  atomic energy  EATOM  =       760.73855882
  ---------------------------------------------------
  free energy    TOTEN  =       -58.63672227 eV

  energy without entropy =      -58.63645304  energy(sigma->0) =      -58.63658766


--------------------------------------------------------------------------------------------------------




--------------------------------------- Iteration      1(  20)  ---------------------------------------


    POTLOK:  cpu time    0.0500: real time    0.0503
    SETDIJ:  cpu time    0.1979: real time    0.1992
    TRIAL :  cpu time    0.9833: real time    0.9911
    CORREC:  cpu time    0.7299: real time    0.7353
    EDDIAG:  cpu time    0.2612: real time    0.2631
    CHARGE:  cpu time    0.2082: real time    0.2102
    --------------------------------------------
      LOOP:  cpu time    2.4317: real time    2.4508

 eigenvalue-minimisations  :     0
 total energy-change (2. order) : 0.4570211E-09  (-0.6880876E-09)
 number of electron      30.0000000 magnetization 
 augmentation part       -1.4330384 magnetization 

 Free energy of the ion-electron system (eV)
  ---------------------------------------------------
  alpha Z        PSCENC =        29.82889321
  Ewald energy   TEWEN  =     -1024.44095619
  -Hartree energ DENC   =        -4.92759889
  -exchange      EXHF   =         0.00000000
  -V(xc)+E(xc)   XCENC  =        -5.20700123
  PAW double counting   =      3857.97976475    -3793.50226835
  entropy T*S    EENTRO =        -0.00026924
  eigenvalues    EBANDS =       120.89415485
  atomic energy  EATOM  =       760.73855882
  ---------------------------------------------------
  free energy    TOTEN  =       -58.63672227 eV

  energy without entropy =      -58.63645304  energy(sigma->0) =      -58.63658765


--------------------------------------------------------------------------------------------------------


  average scaling for gradient   2.0007


 average (electrostatic) potential at core
  the test charge radii are     0.7672  0.9892
  (the norm of the test charge is              1.0000)
       1 -24.8234       2 -24.8234       3 -82.8038       4 -82.8038       5 -82.8038
       6 -82.8038       7 -82.8038       8 -82.8038
 
 
 
 E-fermi :  10.3611     XC(G=0): -12.3373     alpha+bet :-17.1400

 Fermi energy:        10.3610711687

 k-point     1 :       0.0000    0.0000    0.0000
  band No.  band energies     occupation 
      1      -5.7371      2.00000
      2       1.1925      2.00000
      3       1.8964      2.00000
      4       2.0224      2.00000
      5       2.0224      2.00000
      6       2.1874      2.00000
      7       2.1897      2.00000
      8       2.3734      2.00000
      9       2.3734      2.00000
     10       8.1212      2.00000
     11       8.4920      2.00000
     12       8.4921      2.00000
     13       8.8095      2.00000
     14       8.8915      2.00000
     15       9.1872      2.00000
     16       9.1872      2.00000
     17       9.8264      2.00000
     18       9.8264      2.00000
     19      10.2014      2.00000
     20      11.3666      0.00000
     21      11.3666      0.00000
     22      15.2097      0.00000
     23      15.2097      0.00000
     24      16.6494      0.00000

 k-point     2 :       0.1250    0.0000    0.0000
  band No.  band energies     occupation 
      1      -5.6126      2.00000
      2       0.2765      2.00000
      3       1.0788      2.00000
      4       1.3230      2.00000
      5       1.6287      2.00000
      6       2.3111      2.00000
      7       3.0840      2.00000
      8       3.3044      2.00000
      9       4.1096      2.00000
     10       7.1895      2.00000
     11       7.8263      2.00000
     12       7.9763      2.00000
     13       8.1246      2.00000
     14       8.6416      2.00000
     15       8.9372      2.00000
     16       9.6600      2.00000
     17      10.4125      0.00028
     18      11.0075      0.00000
     19      11.0335      0.00000
     20      11.8451      0.00000
     21      12.4237      0.00000
     22      13.9282      0.00000
     23      14.4420      0.00000
     24      16.0181      0.00000

 k-point     3 :       0.2500    0.0000    0.0000
  band No.  band energies     occupation 
      1      -5.2400      2.00000
      2      -1.2845      2.00000
      3       0.6019      2.00000
      4       0.7123      2.00000
      5       1.8747      2.00000
      6       2.6749      2.00000
      7       4.3073      2.00000
      8       4.5950      2.00000
      9       5.2634      2.00000
     10       6.5103      2.00000
     11       6.8416      2.00000
     12       7.3810      2.00000
     13       7.6486      2.00000
     14       8.1708      2.00000
     15       8.5257      2.00000
     16      10.5336      0.00000
     17      11.4528      0.00000
     18      12.0751      0.00000
     19      12.1915      0.00000
     20      12.5070      0.00000
     21      12.9311      0.00000
     22      12.9825      0.00000
     23      14.4416      0.00000
     24      16.1368      0.00000

 k-point     4 :       0.3750   -0.0000    0.0000
  band No.  band energies     occupation 
      1      -4.6234      2.00000
      2      -2.6237      2.00000
      3       0.2692      2.00000
      4       0.3419      2.00000
      5       2.4418      2.00000
      6       3.2789      2.00000
      7       4.2563      2.00000
      8       5.2130      2.00000
      9       5.6266      2.00000
     10       5.9741      2.00000
     11       7.1972      2.00000
     12       7.4636      2.00000
     13       7.8524      2.00000
     14       8.2323      2.00000
     15       9.0321      2.00000
     16       9.5740      2.00000
     17      10.1872      2.00000
     18      12.3127      0.00000
     19      13.0863      0.00000
     20      13.4177      0.00000
     21      14.2784      0.00000
     22      14.3363      0.00000
     23      15.1221      0.00000
     24      15.6262      0.00000

 k-point     5 :       0.5000    0.0000    0.0000
  band No.  band energies     occupation 
      1      -3.8944      2.00000
      2      -3.5945      2.00000
      3       0.1561      2.00000
      4       0.2181      2.00000
      5       3.1857      2.00000
      6       3.3090      2.00000
      7       4.0352      2.00000
      8       4.2228      2.00000
      9       6.3160      2.00000
     10       6.6163      2.00000
     11       7.7427      2.00000
     12       7.7721      2.00000
     13       8.0702      2.00000
     14       8.1298      2.00000
     15       8.1730      2.00000
     16       8.5418      2.00000
     17      11.2843      0.00000
     18      11.9918      0.00000
     19      13.3911      0.00000
     20      14.1099      0.00000
     21      14.2317      0.00000
     22      14.5103      0.00000
     23      14.8107      0.00000
     24      15.2343      0.00000

 k-point     6 :       0.1250    0.1250    0.0000
  band No.  band energies     occupation 
      1      -5.3641      2.00000
      2      -0.5204      2.00000
      3      -0.3402      2.00000
      4       1.6758      2.00000
      5       2.4407      2.00000
      6       2.5537      2.00000
      7       2.5683      2.00000
      8       5.0659      2.00000
      9       5.1477      2.00000
     10       6.7057      2.00000
     11       6.7275      2.00000
     12       7.2562      2.00000
     13       7.3841      2.00000
     14       8.6947      2.00000
     15       9.4474      2.00000
     16       9.5669      2.00000
     17      11.2002      0.00000
     18      11.7992      0.00000
     19      12.0857      0.00000
     20      12.1761      0.00000
     21      13.2405      0.00000
     22      13.6164      0.00000
     23      14.1763      0.00000
     24      14.9327      0.00000

 k-point     7 :       0.2500    0.1250    0.0000
  band No.  band energies     occupation 
      1      -4.8689      2.00000
      2      -1.8973      2.00000
      3      -0.8994      2.00000
      4       1.9158      2.00000
      5       2.2719      2.00000
      6       3.0379      2.00000
      7       3.8967      2.00000
      8       4.8894      2.00000
      9       5.6062      2.00000
     10       5.9214      2.00000
     11       6.8732      2.00000
     12       7.1738      2.00000
     13       7.9301      2.00000
     14       8.5072      2.00000
     15       9.4413      2.00000
     16       9.5066      2.00000
     17      11.0376      0.00000
     18      11.9965      0.00000
     19      12.2740      0.00000
     20      13.3815      0.00000
     21      14.1011      0.00000
     22      14.6416      0.00000
     23      15.0000      0.00000
     24      15.4463      0.00000

 k-point     8 :       0.3750    0.1250    0.0000
  band No.  band energies     occupation 
      1      -4.1390      2.00000
      2      -3.1068      2.00000
      3      -1.1446      2.00000
      4       1.7421      2.00000
      5       2.9051      2.00000
      6       3.7576      2.00000
      7       3.8194      2.00000
      8       4.7384      2.00000
      9       5.4122      2.00000
     10       5.6254      2.00000
     11       6.6405      2.00000
     12       7.2997      2.00000
     13       8.5489      2.00000
     14       8.7786      2.00000
     15       9.3975      2.00000
     16      10.3417      1.83132
     17      10.4077      0.00098
     18      12.1711      0.00000
     19      13.0676      0.00000
     20      13.1055      0.00000
     21      13.9577      0.00000
     22      14.7578      0.00000
     23      15.5281      0.00000
     24      15.8597      0.00000

 k-point     9 :       0.2500    0.2500    0.0000
  band No.  band energies     occupation 
      1      -4.2555      2.00000
      2      -2.3620      2.00000
      3      -2.1364      2.00000
      4       2.7378      2.00000
      5       3.4783      2.00000
      6       3.6399      2.00000
      7       3.6408      2.00000
      8       4.5814      2.00000
      9       4.6191      2.00000
     10       5.4918      2.00000
     11       5.6585      2.00000
     12       7.2587      2.00000
     13       9.3413      2.00000
     14       9.3580      2.00000
     15       9.6679      2.00000
     16      10.4990      0.00000
     17      10.9952      0.00000
     18      11.9310      0.00000
     19      12.6536      0.00000
     20      13.2223      0.00000
     21      13.7283      0.00000
     22      14.7203      0.00000
     23      14.8561      0.00000
     24      15.3033      0.00000

 k-point    10 :       0.3750    0.2500    0.0000
  band No.  band energies     occupation 
      1      -3.5375      2.00000
      2      -3.2287      2.00000
      3      -2.3516      2.00000
      4       3.3305      2.00000
      5       3.5340      2.00000
      6       3.7219      2.00000
      7       4.3872      2.00000
      8       4.4636      2.00000
      9       4.5842      2.00000
     10       5.1941      2.00000
     11       5.4673      2.00000
     12       5.4831      2.00000
     13       9.8255      2.00000
     14      10.8058      0.00000
     15      11.0343      0.00000
     16      11.0709      0.00000
     17      11.4742      0.00000
     18      12.0234      0.00000
     19      12.2246      0.00000
     20      12.2689      0.00000
     21      12.4942      0.00000
     22      13.6956      0.00000
     23      13.9136      0.00000
     24      15.3556      0.00000

 k-point    11 :       0.0000    0.0000    0.1250
  band No.  band energies     occupation 
      1      -5.6186      2.00000
[...]
     16      13.0743      0.00000
     17      13.9253      0.00000
     18      14.3596      0.00000
     19      14.7720      0.00000
     20      14.7760      0.00000
     21      15.3903      0.00000
     22      15.4831      0.00000
     23      16.5683      0.00000
     24      16.7618      0.00000

 k-point    33 :       0.2500    0.0000    0.3750
  band No.  band energies     occupation 
      1      -4.1793      2.00000
      2      -2.3152      2.00000
      3      -0.2293      2.00000
      4       1.4377      2.00000
      5       1.7597      2.00000
      6       1.8128      2.00000
      7       3.3328      2.00000
      8       3.5562      2.00000
      9       5.5764      2.00000
     10       5.8336      2.00000
     11       7.1888      2.00000
     12       7.5053      2.00000
     13       7.5564      2.00000
     14       8.6619      2.00000
     15       9.1748      2.00000
     16      12.3871      0.00000
     17      12.6244      0.00000
     18      13.1190      0.00000
     19      13.4454      0.00000
     20      13.9577      0.00000
     21      14.0716      0.00000
     22      14.5138      0.00000
     23      15.7421      0.00000
     24      16.8436      0.00000

 k-point    34 :       0.3750   -0.0000    0.3750
  band No.  band energies     occupation 
      1      -3.5669      2.00000
      2      -1.8109      2.00000
      3      -1.4575      2.00000
      4       0.2478      2.00000
      5       1.3543      2.00000
      6       1.3951      2.00000
      7       3.0495      2.00000
      8       3.2291      2.00000
      9       6.9756      2.00000
     10       7.3470      2.00000
     11       8.5377      2.00000
     12       9.0543      2.00000
     13       9.2343      2.00000
     14       9.8046      2.00000
     15      10.5329      0.00000
     16      10.8989      0.00000
     17      11.0645      0.00000
     18      12.1061      0.00000
     19      12.1895      0.00000
     20      12.5275      0.00000
     21      13.5364      0.00000
     22      14.3257      0.00000
     23      14.9369      0.00000
     24      15.6960      0.00000

 k-point    35 :       0.5000    0.0000    0.3750
  band No.  band energies     occupation 
      1      -2.8338      2.00000
      2      -2.5713      2.00000
      3      -0.9176      2.00000
      4      -0.7316      2.00000
      5       1.2305      2.00000
      6       1.2728      2.00000
      7       2.9468      2.00000
      8       3.1145      2.00000
      9       8.4884      2.00000
     10       8.6196      2.00000
     11       9.0677      2.00000
     12       9.1218      2.00000
     13       9.8441      2.00000
     14       9.9264      2.00000
     15      10.4410      0.00000
     16      10.5432      0.00000
     17      10.6343      0.00000
     18      10.8939      0.00000
     19      12.2677      0.00000
     20      12.8397      0.00000
     21      13.3677      0.00000
     22      14.0913      0.00000
     23      14.7257      0.00000
     24      14.7744      0.00000

 k-point    36 :       0.1250    0.1250    0.3750
  band No.  band energies     occupation 
      1      -4.3025      2.00000
      2      -2.4347      2.00000
      3       0.5123      2.00000
      4       0.7157      2.00000
      5       2.3412      2.00000
      6       2.4931      2.00000
      7       3.3519      2.00000
      8       3.5073      2.00000
      9       5.4121      2.00000
     10       5.5455      2.00000
     11       6.4436      2.00000
     12       6.5124      2.00000
     13       8.1332      2.00000
     14       8.1919      2.00000
     15       8.5912      2.00000
     16      12.7521      0.00000
     17      12.7889      0.00000
     18      13.2212      0.00000
     19      13.9678      0.00000
     20      14.1004      0.00000
     21      14.9544      0.00000
     22      15.2958      0.00000
     23      15.8208      0.00000
     24      16.4783      0.00000

 k-point    37 :       0.2500    0.1250    0.3750
  band No.  band energies     occupation 
      1      -3.8107      2.00000
      2      -1.9628      2.00000
      3      -0.8320      2.00000
      4       0.1371      2.00000
      5       1.0208      2.00000
      6       1.9722      2.00000
      7       3.0053      2.00000
      8       4.4102      2.00000
      9       5.4288      2.00000
     10       6.7919      2.00000
     11       7.8502      2.00000
     12       8.7402      2.00000
     13       8.9868      2.00000
     14       9.5029      2.00000
     15      10.2141      2.00000
     16      10.7081      0.00000
     17      12.0180      0.00000
     18      12.2062      0.00000
     19      12.5594      0.00000
     20      13.3817      0.00000
     21      14.1187      0.00000
     22      14.8720      0.00000
     23      15.6458      0.00000
     24      15.8479      0.00000

 k-point    38 :       0.3750    0.1250    0.3750
  band No.  band energies     occupation 
      1      -3.0852      2.00000
      2      -2.0885      2.00000
      3      -1.1924      2.00000
      4      -0.3201      2.00000
      5       0.0521      2.00000
      6       1.7373      2.00000
      7       2.7831      2.00000
      8       4.4869      2.00000
      9       6.7140      2.00000
     10       8.0719      2.00000
     11       8.8814      2.00000
     12       9.4096      2.00000
     13       9.6418      2.00000
     14      10.1674      2.00000
     15      10.4632      0.00000
     16      10.9018      0.00000
     17      11.1895      0.00000
     18      11.4577      0.00000
     19      12.3444      0.00000
     20      13.1747      0.00000
     21      13.5672      0.00000
     22      13.8213      0.00000
     23      15.0965      0.00000
     24      15.3731      0.00000

 k-point    39 :       0.2500    0.2500    0.3750
  band No.  band energies     occupation 
      1      -3.2013      2.00000
      2      -1.4640      2.00000
      3      -1.3182      2.00000
      4      -0.9582      2.00000
      5       0.5717      2.00000
      6       0.7619      2.00000
      7       4.3830      2.00000
      8       4.5675      2.00000
      9       6.3422      2.00000
     10       6.5909      2.00000
     11       8.5621      2.00000
     12       9.5290      2.00000
     13       9.9346      2.00000
     14      10.1334      2.00000
     15      10.4283      0.00000
     16      11.0003      0.00000
     17      11.1010      0.00000
     18      12.2614      0.00000
     19      12.5273      0.00000
     20      13.5767      0.00000
     21      14.1454      0.00000
     22      14.3909      0.00000
     23      15.0842      0.00000
     24      15.3797      0.00000

 k-point    40 :       0.3750    0.2500    0.3750
  band No.  band energies     occupation 
      1      -2.4733      2.00000
      2      -2.2123      2.00000
      3      -1.3620      2.00000
      4      -0.5668      2.00000
      5      -0.2704      2.00000
      6       0.5614      2.00000
      7       4.3915      2.00000
      8       5.6005      2.00000
      9       6.4148      2.00000
     10       6.9336      2.00000
     11       8.2994      2.00000
     12       8.3245      2.00000
     13      10.2270      2.00000
     14      10.2671      2.00000
     15      10.9208      0.00000
     16      11.9500      0.00000
     17      11.9620      0.00000
     18      12.5443      0.00000
     19      13.1357      0.00000
     20      13.5846      0.00000
     21      14.1011      0.00000
     22      14.3176      0.00000
     23      14.3945      0.00000
     24      14.4948      0.00000

 k-point    41 :       0.0000    0.0000    0.5000
  band No.  band energies     occupation 
      1      -3.8499      2.00000
      2      -3.8499      2.00000
      3       3.1353      2.00000
      4       3.1353      2.00000
      5       3.6196      2.00000
      6       3.6196      2.00000
      7       3.6196      2.00000
      8       3.6196      2.00000
      9       4.4261      2.00000
     10       4.4261      2.00000
     11       4.5757      2.00000
     12       4.5757      2.00000
     13       4.5757      2.00000
     14       4.5757      2.00000
     15      10.7118      0.00000
     16      10.7118      0.00000
     17      15.6455      0.00000
     18      15.6455      0.00000
     19      16.3796      0.00000
     20      16.3796      0.00000
     21      16.3796      0.00000
     22      16.3798      0.00000
     23      17.6602      0.00000
     24      17.6607      0.00000

 k-point    42 :       0.1250    0.0000    0.5000
  band No.  band energies     occupation 
      1      -3.7270      2.00000
      2      -3.7270      2.00000
      3       2.0699      2.00000
      4       2.0699      2.00000
      5       2.9473      2.00000
      6       2.9473      2.00000
      7       3.1268      2.00000
      8       3.1268      2.00000
      9       5.0911      2.00000
     10       5.0911      2.00000
     11       5.3053      2.00000
     12       5.3053      2.00000
     13       6.0872      2.00000
     14       6.0872      2.00000
     15      10.8184      0.00000
     16      10.8184      0.00000
     17      15.0981      0.00000
     18      15.0981      0.00000
     19      15.6139      0.00000
     20      15.6139      0.00000
     21      15.6773      0.00000
     22      15.6774      0.00000
     23      16.7550      0.00000
     24      16.7600      0.00000

 k-point    43 :       0.2500    0.0000    0.5000
  band No.  band energies     occupation 
      1      -3.3595      2.00000
      2      -3.3595      2.00000
      3       0.5583      2.00000
      4       0.5583      2.00000
      5       2.4200      2.00000
      6       2.4200      2.00000
      7       2.5607      2.00000
      8       2.5607      2.00000
      9       6.2676      2.00000
     10       6.2676      2.00000
     11       6.5796      2.00000
     12       6.5796      2.00000
     13       8.2493      2.00000
     14       8.2493      2.00000
     15      11.1329      0.00000
     16      11.1329      0.00000
     17      13.3000      0.00000
     18      13.3000      0.00000
     19      13.8158      0.00000
     20      13.8158      0.00000
     21      14.6744      0.00000
     22      14.6744      0.00000
     23      16.0888      0.00000
     24      16.0890      0.00000

 k-point    44 :       0.3750   -0.0000    0.5000
  band No.  band energies     occupation 
      1      -2.7542      2.00000
      2      -2.7542      2.00000
      3      -0.7554      2.00000
      4      -0.7554      2.00000
      5       2.0894      2.00000
      6       2.0894      2.00000
      7       2.2047      2.00000
      8       2.2047      2.00000
      9       7.6815      2.00000
     10       7.6815      2.00000
     11       8.1064      2.00000
     12       8.1064      2.00000
     13      10.4890      0.00000
     14      10.4890      0.00000
     15      11.3801      0.00000
     16      11.3801      0.00000
     17      11.7003      0.00000
     18      11.7003      0.00000
     19      11.7882      0.00000
     20      11.7882      0.00000
     21      13.7141      0.00000
     22      13.7141      0.00000
     23      15.6472      0.00000
     24      15.6473      0.00000

 k-point    45 :       0.5000    0.0000    0.5000
  band No.  band energies     occupation 
      1      -2.0821      2.00000
      2      -2.0821      2.00000
      3      -1.6653      2.00000
      4      -1.6653      2.00000
      5       1.9777      2.00000
      6       1.9777      2.00000
      7       2.0847      2.00000
      8       2.0847      2.00000
      9       8.9070      2.00000
     10       8.9070      2.00000
     11       9.7004      2.00000
     12       9.7004      2.00000
     13       9.9065      2.00000
     14       9.9065      2.00000
     15      10.0147      2.00000
     16      10.0147      2.00000
     17      11.7823      0.00000
     18      11.7823      0.00000
     19      12.5484      0.00000
     20      12.5484      0.00000
     21      13.5401      0.00000
     22      13.5401      0.00000
     23      13.9495      0.00000
     24      13.9495      0.00000

 k-point    46 :       0.1250    0.1250    0.5000
  band No.  band energies     occupation 
      1      -3.4818      2.00000
      2      -3.4818      2.00000
      3       1.2461      2.00000
      4       1.2461      2.00000
      5       1.5790      2.00000
      6       1.5790      2.00000
      7       3.8276      2.00000
      8       3.8276      2.00000
      9       4.8621      2.00000
     10       4.8621      2.00000
     11       7.1961      2.00000
     12       7.1961      2.00000
     13       7.2594      2.00000
     14       7.2594      2.00000
     15      11.0291      0.00000
     16      11.0291      0.00000
     17      13.4431      0.00000
     18      13.4431      0.00000
     19      14.7416      0.00000
     20      14.7416      0.00000
     21      15.5557      0.00000
     22      15.5580      0.00000
     23      15.9790      0.00000
     24      15.9836      0.00000

 k-point    47 :       0.2500    0.1250    0.5000
  band No.  band energies     occupation 
      1      -2.9943      2.00000
      2      -2.9942      2.00000
      3      -0.0538      2.00000
      4      -0.0538      2.00000
      5       0.9775      2.00000
      6       0.9775      2.00000
      7       3.7321      2.00000
      8       3.7321      2.00000
      9       5.8782      2.00000
     10       5.8782      2.00000
     11       8.5904      2.00000
     12       8.5904      2.00000
     13       9.4735      2.00000
     14       9.4735      2.00000
     15      11.3139      0.00000
     16      11.3139      0.00000
     17      11.4937      0.00000
     18      11.4937      0.00000
     19      13.6417      0.00000
     20      13.6417      0.00000
     21      14.3143      0.00000
     22      14.3143      0.00000
     23      15.4339      0.00000
     24      15.4339      0.00000

 k-point    48 :       0.3750    0.1250    0.5000
  band No.  band energies     occupation 
      1      -2.2843      2.00000
      2      -2.2843      2.00000
      3      -1.2291      2.00000
      4      -1.2291      2.00000
      5       0.7294      2.00000
      6       0.7294      2.00000
      7       3.5456      2.00000
      8       3.5456      2.00000
      9       7.3867      2.00000
     10       7.3867      2.00000
     11       9.3422      2.00000
     12       9.3422      2.00000
     13      10.1867      2.00000
     14      10.1867      2.00000
     15      11.5077      0.00000
     16      11.5077      0.00000
     17      12.0064      0.00000
     18      12.0064      0.00000
     19      12.2169      0.00000
     20      12.2169      0.00000
     21      13.4543      0.00000
     22      13.4543      0.00000
     23      14.7814      0.00000
     24      14.7818      0.00000

 k-point    49 :       0.2500    0.2500    0.5000
  band No.  band energies     occupation 
      1      -2.3927      2.00000
      2      -2.3927      2.00000
      3      -0.5849      2.00000
      4      -0.5849      2.00000
      5      -0.1634      2.00000
      6      -0.1634      2.00000
      7       4.8648      2.00000
      8       4.8648      2.00000
      9       5.8906      2.00000
     10       5.8906      2.00000
     11       9.2230      2.00000
     12       9.2230      2.00000
     13      10.7826      0.00000
     14      10.7826      0.00000
     15      11.0221      0.00000
     16      11.0221      0.00000
     17      11.9633      0.00000
     18      11.9633      0.00000
     19      13.2908      0.00000
     20      13.2908      0.00000
     21      14.0847      0.00000
     22      14.0847      0.00000
     23      14.8255      0.00000
     24      14.8256      0.00000

 k-point    50 :       0.3750    0.2500    0.5000
  band No.  band energies     occupation 
      1      -1.7070      2.00000
      2      -1.7070      2.00000
      3      -1.3734      2.00000
      4      -1.3734      2.00000
      5      -0.4191      2.00000
      6      -0.4191      2.00000
      7       5.0660      2.00000
      8       5.0660      2.00000
      9       6.9104      2.00000
     10       6.9104      2.00000
     11       7.7052      2.00000
     12       7.7052      2.00000
     13      11.8392      0.00000
     14      11.8392      0.00000
     15      12.4092      0.00000
     16      12.4092      0.00000
     17      12.5404      0.00000
     18      12.5404      0.00000
     19      12.9476      0.00000
     20      12.9476      0.00000
     21      13.6987      0.00000
     22      13.6987      0.00000
     23      14.0569      0.00000
     24      14.0569      0.00000


--------------------------------------------------------------------------------------------------------


 soft charge-density along one line, spin component           1
         0         1         2         3         4         5         6         7         8         9
 total charge-density along one line
 
 pseudopotential strength for first ion, spin component:           1
  5.925   8.978   0.000   0.000   0.000   0.000   0.000   0.000
  8.978  13.595   0.000   0.000   0.000   0.000   0.000   0.000
  0.000   0.000  -1.978  -0.000   0.000  -3.298  -0.000   0.000
  0.000   0.000  -0.000  -1.978   0.000  -0.000  -3.298   0.000
  0.000   0.000   0.000   0.000  -1.978   0.000   0.000  -3.298
  0.000   0.000  -3.298  -0.000   0.000  -5.287  -0.000   0.000
  0.000   0.000  -0.000  -3.298   0.000  -0.000  -5.287   0.000
  0.000   0.000   0.000   0.000  -3.298   0.000   0.000  -5.287
 total augmentation occupancy for first ion, spin component:           1
  2.666  -0.503   0.000   0.000  -0.000   0.000  -0.000   0.000
 -0.503   0.138  -0.000  -0.000   0.000   0.000   0.000   0.000
  0.000   0.000   1.739   0.000  -0.000  -0.427   0.000   0.000
 -0.000   0.000   0.000   1.545   0.000  -0.000  -0.369   0.000
 -0.000   0.000   0.000   0.000   1.739   0.000  -0.000  -0.427
  0.000   0.000  -0.427   0.000   0.000   0.111   0.000   0.000
 -0.000   0.000  -0.000  -0.369   0.000  -0.000   0.094   0.000
  0.000   0.000   0.000  -0.000  -0.427   0.000  -0.000   0.111


------------------------ aborting loop because EDIFF is reached ----------------------------------------




--------------------------------------------------------------------------------------------------------



  FREE ENERGIE OF THE ION-ELECTRON SYSTEM (eV)
  ---------------------------------------------------
  free  energy   TOTEN  =       -58.63672227 eV

  energy  without entropy=      -58.63645304  energy(sigma->0) =      -58.63658765
 


--------------------------------------------------------------------------------------------------------


    POTLOK:  cpu time    0.2490: real time    0.2513


--------------------------------------------------------------------------------------------------------


 writing wavefunctions
     LOOP+:  cpu time   42.1943: real time   42.5505
    4ORBIT:  cpu time    0.0000: real time    0.0000

 total amount of memory used by VASP MPI-rank0    68149. kBytes
=======================================================================

   base      :      30000. kBytes
   nonl-proj :      10653. kBytes
   fftplans  :       6753. kBytes
   grid      :       4720. kBytes
   one-center:         12. kBytes
   wavefun   :      16011. kBytes
 
  
  
 General timing and accounting informations for this job:
 ========================================================
  
                  Total CPU time used (sec):       43.813
                            User time (sec):       42.892
                          System time (sec):        0.921
                         Elapsed time (sec):       45.128
  
                   Maximum memory used (kb):      191880.
                   Average memory used (kb):          N/A
  
                          Minor page faults:       104742
                          Major page faults:           30
                 Voluntary context switches:         1154
