<?xml version="1.0" encoding="ISO-8859-1"?>
<modeling>
 <generator>
  <i name="program" type="string">vasp </i>
  <i name="version" type="string">6.2.0  </i>
  <i name="subversion" type="string">18Jan21 (build Jan 05 2022 15:41:44) complex                          parallel </i>
  <i name="platform" type="string">LinuxIFC </i>
  <i name="date" type="string">2025 05 07 </i>
  <i name="time" type="string">15:01:03 </i>
 </generator>
 <incar>
  <i type="string" name="SYSTEM">routine with relax: pwdword</i>
  <i type="string" name="PREC">Acc</i>
  <i type="int" name="IALGO">    38</i>
  <i type="string" name="ALGO">A</i>
  <i type="logical" name="ADDGRID"> T  </i>
  <i type="int" name="ICHARG">     2</i>
  <i type="int" name="NELM">   100</i>
  <i type="int" name="NELMIN">     6</i>
  <i name="EDIFF">      0.00000000</i>
  <i type="int" name="NSW">     0</i>
  <i type="int" name="ISIF">    -1</i>
  <i name="ENCUT">    600.00000000</i>
  <i type="logical" name="LREAL"> F  </i>
  <i type="int" name="ISMEAR">     0</i>
  <i name="SIGMA">      0.02000000</i>
  <i type="logical" name="LASPH"> T  </i>
  <i type="string" name="METAGGA">R2SCAN</i>
  <i type="logical" name="LMIXTAU"> F  </i>
 </incar>
 <primitive_cell>
  <structure name="primitive_cell" >
   <crystal>
    <varray name="basis" >
     <v>      -3.29387652       2.28855831       0.00000000 </v>
     <v>       1.59007149       2.28855831       2.88467828 </v>
     <v>       1.59007149       2.28855831      -2.69208172 </v>
    </varray>
    <i name="volume">     62.33256068 </i>
    <varray name="rec_basis" >
     <v>      -0.20475238       0.14226027       0.00000000 </v>
     <v>       0.09884057       0.14225927       0.17931559 </v>
     <v>       0.10591181       0.15243677      -0.17931559 </v>
    </varray>
   </crystal>
   <varray name="positions" >
    <v>       0.00000000       0.00000000       0.50000000 </v>
    <v>       0.50000000       1.00000000       0.50000000 </v>
    <v>       0.50000000       0.50000000       0.00000000 </v>
    <v>       0.00000000       0.50000000       0.50000000 </v>
    <v>       0.00000000       0.00000000       0.00000000 </v>
   </varray>
  </structure>
  <varray name="primitive_index" >
   <v type="int" >        1 </v>
   <v type="int" >        3 </v>
   <v type="int" >        4 </v>
   <v type="int" >        5 </v>
   <v type="int" >        9 </v>
  </varray>
 </primitive_cell>
 <kpoints>
  <generation param="Gamma">
   <v type="int" name="divisions">       8        8        9 </v>
   <v name="usershift">      0.00000000       0.00000000       0.00000000 </v>
   <v name="genvec1">      0.12500000       0.00000000       0.00000000 </v>
   <v name="genvec2">      0.00000000       0.12500000       0.00000000 </v>
   <v name="genvec3">      0.00000000       0.00000000       0.11111111 </v>
   <v name="shift">      0.00000000       0.00000000       0.00000000 </v>
  </generation>
  <varray name="kpointlist" >
   <v>       0.00000000       0.00000000       0.00000000 </v>
   <v>       0.12500000       0.00000000       0.00000000 </v>
   <v>       0.25000000       0.00000000       0.00000000 </v>
   <v>       0.37500000       0.00000000       0.00000000 </v>
   <v>       0.50000000       0.00000000       0.00000000 </v>
   <v>       0.12500000       0.12500000       0.00000000 </v>
   <v>       0.25000000       0.12500000       0.00000000 </v>
   <v>       0.37500000       0.12500000       0.00000000 </v>
   <v>       0.50000000       0.12500000       0.00000000 </v>
   <v>      -0.37500000       0.12500000       0.00000000 </v>
   <v>      -0.25000000       0.12500000       0.00000000 </v>
   <v>      -0.12500000       0.12500000       0.00000000 </v>
   <v>       0.25000000       0.25000000       0.00000000 </v>
   <v>       0.37500000       0.25000000       0.00000000 </v>
   <v>       0.50000000       0.25000000       0.00000000 </v>
   <v>      -0.37500000       0.25000000       0.00000000 </v>
   <v>      -0.25000000       0.25000000       0.00000000 </v>
   <v>       0.37500000       0.37500000       0.00000000 </v>
   <v>       0.50000000       0.37500000       0.00000000 </v>
   <v>      -0.37500000       0.37500000       0.00000000 </v>
   <v>       0.50000000       0.50000000       0.00000000 </v>
   <v>       0.00000000      -0.00000000       0.11111111 </v>
   <v>       0.12500000      -0.00000000       0.11111111 </v>
   <v>       0.25000000       0.00000000       0.11111111 </v>
   <v>       0.37500000       0.00000000       0.11111111 </v>
   <v>       0.50000000      -0.00000000       0.11111111 </v>
   <v>      -0.37500000      -0.00000000       0.11111111 </v>
   <v>      -0.25000000       0.00000000       0.11111111 </v>
   <v>      -0.12500000       0.00000000       0.11111111 </v>
   <v>       0.12500000       0.12500000       0.11111111 </v>
   <v>       0.25000000       0.12500000       0.11111111 </v>
   <v>       0.37500000       0.12500000       0.11111111 </v>
   <v>       0.50000000       0.12500000       0.11111111 </v>
   <v>      -0.37500000       0.12500000       0.11111111 </v>
   <v>      -0.25000000       0.12500000       0.11111111 </v>
   <v>      -0.12500000       0.12500000       0.11111111 </v>
   <v>       0.25000000       0.25000000       0.11111111 </v>
   <v>       0.37500000       0.25000000       0.11111111 </v>
   <v>       0.50000000       0.25000000       0.11111111 </v>
   <v>      -0.37500000       0.25000000       0.11111111 </v>
   <v>      -0.25000000       0.25000000       0.11111111 </v>
   <v>      -0.12500000       0.25000000       0.11111111 </v>
   <v>       0.37500000       0.37500000       0.11111111 </v>
   <v>       0.50000000       0.37500000       0.11111111 </v>
   <v>      -0.37500000       0.37500000       0.11111111 </v>
   <v>      -0.25000000       0.37500000       0.11111111 </v>
   <v>      -0.12500000       0.37500000       0.11111111 </v>
   <v>       0.50000000       0.50000000       0.11111111 </v>
   <v>      -0.37500000       0.50000000       0.11111111 </v>
   <v>      -0.25000000       0.50000000       0.11111111 </v>
   <v>      -0.12500000       0.50000000       0.11111111 </v>
   <v>      -0.37500000      -0.37500000       0.11111111 </v>
   <v>      -0.25000000      -0.37500000       0.11111111 </v>
   <v>      -0.12500000      -0.37500000       0.11111111 </v>
   <v>      -0.25000000      -0.25000000       0.11111111 </v>
   <v>      -0.12500000      -0.25000000       0.11111111 </v>
   <v>      -0.12500000      -0.12500000       0.11111111 </v>
   <v>       0.00000000       0.00000000       0.22222222 </v>
   <v>       0.12500000       0.00000000       0.22222222 </v>
   <v>       0.25000000       0.00000000       0.22222222 </v>
   <v>       0.37500000       0.00000000       0.22222222 </v>
   <v>       0.50000000       0.00000000       0.22222222 </v>
   <v>      -0.37500000       0.00000000       0.22222222 </v>
   <v>      -0.25000000       0.00000000       0.22222222 </v>
   <v>      -0.12500000       0.00000000       0.22222222 </v>
   <v>       0.12500000       0.12500000       0.22222222 </v>
   <v>       0.25000000       0.12500000       0.22222222 </v>
   <v>       0.37500000       0.12500000       0.22222222 </v>
   <v>       0.50000000       0.12500000       0.22222222 </v>
   <v>      -0.37500000       0.12500000       0.22222222 </v>
   <v>      -0.25000000       0.12500000       0.22222222 </v>
   <v>      -0.12500000       0.12500000       0.22222222 </v>
   <v>       0.25000000       0.25000000       0.22222222 </v>
   <v>       0.37500000       0.25000000       0.22222222 </v>
   <v>       0.50000000       0.25000000       0.22222222 </v>
   <v>      -0.37500000       0.25000000       0.22222222 </v>
   <v>      -0.25000000       0.25000000       0.22222222 </v>
   <v>      -0.12500000       0.25000000       0.22222222 </v>
   <v>       0.37500000       0.37500000       0.22222222 </v>
   <v>       0.50000000       0.37500000       0.22222222 </v>
   <v>      -0.37500000       0.37500000       0.22222222 </v>
   <v>      -0.25000000       0.37500000       0.22222222 </v>
   <v>      -0.12500000       0.37500000       0.22222222 </v>
   <v>       0.50000000       0.50000000       0.22222222 </v>
   <v>      -0.37500000       0.50000000       0.22222222 </v>
   <v>      -0.25000000       0.50000000       0.22222222 </v>
   <v>      -0.12500000       0.50000000       0.22222222 </v>
   <v>      -0.37500000      -0.37500000       0.22222222 </v>
   <v>      -0.25000000      -0.37500000       0.22222222 </v>
   <v>      -0.12500000      -0.37500000       0.22222222 </v>
   <v>      -0.25000000      -0.25000000       0.22222222 </v>
   <v>      -0.12500000      -0.25000000       0.22222222 </v>
   <v>      -0.12500000      -0.12500000       0.22222222 </v>
   <v>       0.00000000       0.00000000       0.33333333 </v>
   <v>       0.12500000       0.00000000       0.33333333 </v>
   <v>       0.25000000       0.00000000       0.33333333 </v>
   <v>       0.37500000       0.00000000       0.33333333 </v>
   <v>       0.50000000       0.00000000       0.33333333 </v>
   <v>      -0.37500000       0.00000000       0.33333333 </v>
   <v>      -0.25000000       0.00000000       0.33333333 </v>
   <v>      -0.12500000       0.00000000       0.33333333 </v>
   <v>       0.12500000       0.12500000       0.33333333 </v>
   <v>       0.25000000       0.12500000       0.33333333 </v>
   <v>       0.37500000       0.12500000       0.33333333 </v>
   <v>       0.50000000       0.12500000       0.33333333 </v>
   <v>      -0.37500000       0.12500000       0.33333333 </v>
   <v>      -0.25000000       0.12500000       0.33333333 </v>
   <v>      -0.12500000       0.12500000       0.33333333 </v>
   <v>       0.25000000       0.25000000       0.33333333 </v>
   <v>       0.37500000       0.25000000       0.33333333 </v>
   <v>       0.50000000       0.25000000       0.33333333 </v>
   <v>      -0.37500000       0.25000000       0.33333333 </v>
   <v>      -0.25000000       0.25000000       0.33333333 </v>
   <v>      -0.12500000       0.25000000       0.33333333 </v>
   <v>       0.37500000       0.37500000       0.33333333 </v>
   <v>       0.50000000       0.37500000       0.33333333 </v>
   <v>      -0.37500000       0.37500000       0.33333333 </v>
   <v>      -0.25000000       0.37500000       0.33333333 </v>
   <v>      -0.12500000       0.37500000       0.33333333 </v>
   <v>       0.50000000       0.50000000       0.33333333 </v>
   <v>      -0.37500000       0.50000000       0.33333333 </v>
   <v>      -0.25000000       0.50000000       0.33333333 </v>
   <v>      -0.12500000       0.50000000       0.33333333 </v>
   <v>      -0.37500000      -0.37500000       0.33333333 </v>
   <v>      -0.25000000      -0.37500000       0.33333333 </v>
   <v>      -0.12500000      -0.37500000       0.33333333 </v>
   <v>      -0.25000000      -0.25000000       0.33333333 </v>
   <v>      -0.12500000      -0.25000000       0.33333333 </v>
   <v>      -0.12500000      -0.12500000       0.33333333 </v>
   <v>       0.00000000       0.00000000       0.44444444 </v>
   <v>       0.12500000       0.00000000       0.44444444 </v>
   <v>       0.25000000       0.00000000       0.44444444 </v>
   <v>       0.37500000       0.00000000       0.44444444 </v>
   <v>       0.50000000       0.00000000       0.44444444 </v>
   <v>      -0.37500000       0.00000000       0.44444444 </v>
   <v>      -0.25000000       0.00000000       0.44444444 </v>
   <v>      -0.12500000       0.00000000       0.44444444 </v>
   <v>       0.12500000       0.12500000       0.44444444 </v>
   <v>       0.25000000       0.12500000       0.44444444 </v>
   <v>       0.37500000       0.12500000       0.44444444 </v>
   <v>       0.50000000       0.12500000       0.44444444 </v>
   <v>      -0.37500000       0.12500000       0.44444444 </v>
   <v>      -0.25000000       0.12500000       0.44444444 </v>
   <v>      -0.12500000       0.12500000       0.44444444 </v>
   <v>       0.25000000       0.25000000       0.44444444 </v>
   <v>       0.37500000       0.25000000       0.44444444 </v>
   <v>       0.50000000       0.25000000       0.44444444 </v>
   <v>      -0.37500000       0.25000000       0.44444444 </v>
   <v>      -0.25000000       0.25000000       0.44444444 </v>
   <v>      -0.12500000       0.25000000       0.44444444 </v>
   <v>       0.37500000       0.37500000       0.44444444 </v>
   <v>       0.50000000       0.37500000       0.44444444 </v>
   <v>      -0.37500000       0.37500000       0.44444444 </v>
   <v>      -0.25000000       0.37500000       0.44444444 </v>
   <v>      -0.12500000       0.37500000       0.44444444 </v>
   <v>       0.50000000       0.50000000       0.44444444 </v>
   <v>      -0.37500000       0.50000000       0.44444444 </v>
   <v>      -0.25000000       0.50000000       0.44444444 </v>
   <v>      -0.12500000       0.50000000       0.44444444 </v>
   <v>      -0.37500000      -0.37500000       0.44444444 </v>
   <v>      -0.25000000      -0.37500000       0.44444444 </v>
   <v>      -0.12500000      -0.37500000       0.44444444 </v>
   <v>      -0.25000000      -0.25000000       0.44444444 </v>
   <v>      -0.12500000      -0.25000000       0.44444444 </v>
   <v>      -0.12500000      -0.12500000       0.44444444 </v>
  </varray>
  <varray name="weights" >
   <v>       0.00173611 </v>
   <v>       0.00694444 </v>
   <v>       0.00694444 </v>
   <v>       0.00694444 </v>
   <v>       0.00347222 </v>
   <v>       0.00347222 </v>
   <v>       0.00694444 </v>
   <v>       0.00694444 </v>
   <v>       0.00694444 </v>
   <v>       0.00694444 </v>
   <v>       0.00694444 </v>
   <v>       0.00347222 </v>
   <v>       0.00347222 </v>
   <v>       0.00694444 </v>
   <v>       0.00694444 </v>
   <v>       0.00694444 </v>
   <v>       0.00347222 </v>
   <v>       0.00347222 </v>
   <v>       0.00694444 </v>
   <v>       0.00347222 </v>
   <v>       0.00173611 </v>
   <v>       0.00347222 </v>
   <v>       0.00694444 </v>
   <v>       0.00694444 </v>
   <v>       0.00694444 </v>
   <v>       0.00694444 </v>
   <v>       0.00694444 </v>
   <v>       0.00694444 </v>
   <v>       0.00694444 </v>
   <v>       0.00347222 </v>
   <v>       0.00694444 </v>
   <v>       0.00694444 </v>
   <v>       0.00694444 </v>
   <v>       0.00694444 </v>
   <v>       0.00694444 </v>
   <v>       0.00694444 </v>
   <v>       0.00347222 </v>
   <v>       0.00694444 </v>
   <v>       0.00694444 </v>
   <v>       0.00694444 </v>
   <v>       0.00694444 </v>
   <v>       0.00694444 </v>
   <v>       0.00347222 </v>
   <v>       0.00694444 </v>
   <v>       0.00694444 </v>
   <v>       0.00694444 </v>
   <v>       0.00694444 </v>
   <v>       0.00347222 </v>
   <v>       0.00694444 </v>
   <v>       0.00694444 </v>
   <v>       0.00694444 </v>
   <v>       0.00347222 </v>
   <v>       0.00694444 </v>
   <v>       0.00694444 </v>
   <v>       0.00347222 </v>
   <v>       0.00694444 </v>
   <v>       0.00347222 </v>
   <v>       0.00347222 </v>
   <v>       0.00694444 </v>
   <v>       0.00694444 </v>
   <v>       0.00694444 </v>
   <v>       0.00694444 </v>
   <v>       0.00694444 </v>
   <v>       0.00694444 </v>
   <v>       0.00694444 </v>
   <v>       0.00347222 </v>
   <v>       0.00694444 </v>
   <v>       0.00694444 </v>
   <v>       0.00694444 </v>
   <v>       0.00694444 </v>
   <v>       0.00694444 </v>
   <v>       0.00694444 </v>
   <v>       0.00347222 </v>
   <v>       0.00694444 </v>
   <v>       0.00694444 </v>
   <v>       0.00694444 </v>
   <v>       0.00694444 </v>
   <v>       0.00694444 </v>
   <v>       0.00347222 </v>
   <v>       0.00694444 </v>
   <v>       0.00694444 </v>
   <v>       0.00694444 </v>
   <v>       0.00694444 </v>
   <v>       0.00347222 </v>
   <v>       0.00694444 </v>
   <v>       0.00694444 </v>
   <v>       0.00694444 </v>
   <v>       0.00347222 </v>
   <v>       0.00694444 </v>
   <v>       0.00694444 </v>
   <v>       0.00347222 </v>
   <v>       0.00694444 </v>
   <v>       0.00347222 </v>
   <v>       0.00347222 </v>
   <v>       0.00694444 </v>
   <v>       0.00694444 </v>
   <v>       0.00694444 </v>
   <v>       0.00694444 </v>
   <v>       0.00694444 </v>
   <v>       0.00694444 </v>
   <v>       0.00694444 </v>
   <v>       0.00347222 </v>
   <v>       0.00694444 </v>
   <v>       0.00694444 </v>
   <v>       0.00694444 </v>
   <v>       0.00694444 </v>
   <v>       0.00694444 </v>
   <v>       0.00694444 </v>
   <v>       0.00347222 </v>
   <v>       0.00694444 </v>
   <v>       0.00694444 </v>
   <v>       0.00694444 </v>
   <v>       0.00694444 </v>
   <v>       0.00694444 </v>
   <v>       0.00347222 </v>
   <v>       0.00694444 </v>
   <v>       0.00694444 </v>
   <v>       0.00694444 </v>
   <v>       0.00694444 </v>
   <v>       0.00347222 </v>
   <v>       0.00694444 </v>
   <v>       0.00694444 </v>
   <v>       0.00694444 </v>
   <v>       0.00347222 </v>
   <v>       0.00694444 </v>
   <v>       0.00694444 </v>
   <v>       0.00347222 </v>
   <v>       0.00694444 </v>
   <v>       0.00347222 </v>
   <v>       0.00347222 </v>
   <v>       0.00694444 </v>
   <v>       0.00694444 </v>
   <v>       0.00694444 </v>
   <v>       0.00694444 </v>
   <v>       0.00694444 </v>
   <v>       0.00694444 </v>
   <v>       0.00694444 </v>
   <v>       0.00347222 </v>
   <v>       0.00694444 </v>
   <v>       0.00694444 </v>
   <v>       0.00694444 </v>
   <v>       0.00694444 </v>
   <v>       0.00694444 </v>
   <v>       0.00694444 </v>
   <v>       0.00347222 </v>
   <v>       0.00694444 </v>
   <v>       0.00694444 </v>
   <v>       0.00694444 </v>
   <v>       0.00694444 </v>
   <v>       0.00694444 </v>
   <v>       0.00347222 </v>
   <v>       0.00694444 </v>
   <v>       0.00694444 </v>
   <v>       0.00694444 </v>
   <v>       0.00694444 </v>
   <v>       0.00347222 </v>
   <v>       0.00694444 </v>
   <v>       0.00694444 </v>
   <v>       0.00694444 </v>
   <v>       0.00347222 </v>
   <v>       0.00694444 </v>
   <v>       0.00694444 </v>
   <v>       0.00347222 </v>
   <v>       0.00694444 </v>
   <v>       0.00347222 </v>
  </varray>
 </kpoints>
 <parameters>
  <separator name="general" >
   <i type="string" name="SYSTEM">routine with relax: pwdword</i>
   <i type="logical" name="LCOMPAT"> F  </i>
  </separator>
  <separator name="electronic" >
   <i type="string" name="PREC">acc</i>
   <i name="ENMAX">    600.00000000</i>
   <i name="ENAUG">    535.51400000</i>
   <i name="EDIFF">      0.00000000</i>
   <i type="int" name="IALGO">    58</i>
   <i type="int" name="IWAVPR">    10</i>
   <i type="int" name="NBANDS">    60</i>
   <i type="int" name="NBANDSLOW">    -1</i>
   <i type="int" name="NBANDSHIGH">    -1</i>
   <i name="NELECT">     98.00000000</i>
   <i type="int" name="TURBO">     0</i>
   <i type="int" name="IRESTART">     0</i>
   <i type="int" name="NREBOOT">     0</i>
   <i type="int" name="NMIN">     0</i>
   <i name="EREF">      0.00000000</i>
   <separator name="electronic smearing" >
    <i type="int" name="ISMEAR">     0</i>
    <i name="SIGMA">      0.02000000</i>
    <i name="KSPACING">      0.50000000</i>
    <i type="logical" name="KGAMMA"> T  </i>
    <i type="logical" name="KBLOWUP"> F  </i>
   </separator>
   <separator name="electronic projectors" >
    <i type="logical" name="LREAL"> F  </i>
    <v name="ROPT">      0.00000000      0.00000000      0.00000000</v>
    <i type="int" name="LMAXPAW">  -100</i>
    <i type="int" name="LMAXMIX">     2</i>
    <i type="logical" name="NLSPLINE"> F  </i>
   </separator>
   <separator name="electronic startup" >
    <i type="int" name="ISTART">     0</i>
    <i type="int" name="ICHARG">     2</i>
    <i type="int" name="INIWAV">     1</i>
   </separator>
   <separator name="electronic spin" >
    <i type="int" name="ISPIN">     1</i>
    <i type="logical" name="LNONCOLLINEAR"> F  </i>
    <v name="MAGMOM">      1.00000000      1.00000000      1.00000000      1.00000000      1.00000000      1.00000000      1.00000000      1.00000000      1.00000000      1.00000000</v>
    <i name="NUPDOWN">     -1.00000000</i>
    <i type="logical" name="LSORBIT"> F  </i>
    <v name="SAXIS">      0.00000000      0.00000000      1.00000000</v>
    <i type="logical" name="LSPIRAL"> F  </i>
    <v name="QSPIRAL">      0.00000000      0.00000000      0.00000000</v>
    <i type="logical" name="LZEROZ"> F  </i>
   </separator>
   <separator name="electronic exchange-correlation" >
    <i type="logical" name="LASPH"> T  </i>
    <i type="logical" name="LMETAGGA"> F  </i>
   </separator>
   <separator name="electronic convergence" >
    <i type="int" name="NELM">   100</i>
    <i type="int" name="NELMDL">    -5</i>
    <i type="int" name="NELMIN">     6</i>
    <i name="ENINI">    600.00000000</i>
    <separator name="electronic convergence detail" >
     <i type="logical" name="LDIAG"> T  </i>
     <i type="logical" name="LSUBROT"> F  </i>
     <i name="WEIMIN">      0.00000000</i>
     <i name="EBREAK">      0.00000000</i>
     <i name="DEPER">      0.30000000</i>
     <i type="int" name="NRMM">     4</i>
     <i name="TIME">      0.40000000</i>
    </separator>
   </separator>
   <separator name="electronic mixer" >
    <i name="AMIX">      0.40000000</i>
    <i name="BMIX">      1.00000000</i>
    <i name="AMIN">      0.10000000</i>
    <i name="AMIX_MAG">      1.60000000</i>
    <i name="BMIX_MAG">      1.00000000</i>
    <separator name="electronic mixer details" >
     <i type="int" name="IMIX">     4</i>
     <i type="logical" name="MIXFIRST"> F  </i>
     <i type="int" name="MAXMIX">   -45</i>
     <i name="WC">    100.00000000</i>
     <i type="int" name="INIMIX">     1</i>
     <i type="int" name="MIXPRE">     1</i>
     <i type="int" name="MREMOVE">     5</i>
    </separator>
   </separator>
   <separator name="electronic dipolcorrection" >
    <i type="logical" name="LDIPOL"> F  </i>
    <i type="logical" name="LMONO"> F  </i>
    <i type="int" name="IDIPOL">     0</i>
    <i name="EPSILON">      1.00000000</i>
    <v name="DIPOL">   -100.00000000   -100.00000000   -100.00000000</v>
    <i name="EFIELD">      0.00000000</i>
   </separator>
  </separator>
  <separator name="grids" >
   <i type="int" name="NGX">    48</i>
   <i type="int" name="NGY">    48</i>
   <i type="int" name="NGZ">    48</i>
   <i type="int" name="NGXF">    96</i>
   <i type="int" name="NGYF">    96</i>
   <i type="int" name="NGZF">    96</i>
   <i type="logical" name="ADDGRID"> T  </i>
  </separator>
  <separator name="ionic" >
   <i type="int" name="NSW">     0</i>
   <i type="int" name="IBRION">    -1</i>
   <i type="int" name="MDALGO">     0</i>
   <i type="int" name="ISIF">    -1</i>
   <i name="PSTRESS">      0.00000000</i>
   <i name="EDIFFG">      0.00000001</i>
   <i type="int" name="NFREE">     0</i>
   <i name="POTIM">      0.50000000</i>
   <i name="SMASS">     -3.00000000</i>
   <i name="SCALEE">      1.00000000</i>
  </separator>
  <separator name="ionic md" >
   <i name="TEBEG">      0.00010000</i>
   <i name="TEEND">      0.00010000</i>
   <i type="int" name="NBLOCK">     1</i>
   <i type="int" name="KBLOCK">     1</i>
   <i type="int" name="NPACO">   256</i>
   <i name="APACO">     16.00000000</i>
  </separator>
  <separator name="symmetry" >
   <i type="int" name="ISYM">     2</i>
   <i name="SYMPREC">      0.00001000</i>
  </separator>
  <separator name="dos" >
   <i type="int" name="LORBIT">     0</i>
   <v name="RWIGS">     -1.00000000     -1.00000000     -1.00000000</v>
   <i type="int" name="NEDOS">   301</i>
   <i name="EMIN">     10.00000000</i>
   <i name="EMAX">    -10.00000000</i>
   <i name="EFERMI">      0.00000000</i>
  </separator>
  <separator name="writing" >
   <i type="int" name="NWRITE">     2</i>
   <i type="logical" name="LWAVE"> T  </i>
   <i type="logical" name="LDOWNSAMPLE"> F  </i>
   <i type="logical" name="LCHARG"> T  </i>
   <i type="logical" name="LPARD"> F  </i>
   <i type="logical" name="LVTOT"> F  </i>
   <i type="logical" name="LVHAR"> F  </i>
   <i type="logical" name="LELF"> F  </i>
   <i type="logical" name="LOPTICS"> F  </i>
   <v name="STM">      0.00000000      0.00000000      0.00000000      0.00000000      0.00000000      0.00000000      0.00000000</v>
  </separator>
  <separator name="performance" >
   <i type="int" name="NPAR">     6</i>
   <i type="int" name="NSIM">     4</i>
   <i type="int" name="NBLK">    -1</i>
   <i type="logical" name="LPLANE"> T  </i>
   <i type="logical" name="LSCALAPACK"> T  </i>
   <i type="logical" name="LSCAAWARE"> F  </i>
   <i type="logical" name="LSCALU"> F  </i>
   <i type="logical" name="LASYNC"> F  </i>
   <i type="logical" name="LORBITALREAL"> F  </i>
  </separator>
  <separator name="miscellaneous" >
   <i type="int" name="IDIOT">     3</i>
   <i type="int" name="PHON_NSTRUCT">    -1</i>
   <i type="logical" name="LMUSIC"> F  </i>
   <v name="POMASS">     10.81100000     95.94000000     28.08500000</v>
   <v name="DARWINR">      0.00000000      0.00000000      0.00000000</v>
   <v name="DARWINV">      1.00000000      1.00000000      1.00000000</v>
   <i type="logical" name="LCORR"> T  </i>
  </separator>
  <i type="logical" name="GGA_COMPAT"> T  </i>
  <i type="logical" name="LBERRY"> F  </i>
  <i type="int" name="ICORELEVEL">     0</i>
  <i type="logical" name="LDAU"> F  </i>
  <i type="int" name="I_CONSTRAINED_M">     0</i>
  <separator name="electronic exchange-correlation" >
   <i type="string" name="GGA">--</i>
   <i type="int" name="VOSKOWN">     0</i>
   <i type="logical" name="LHFCALC"> F  </i>
   <i type="string" name="PRECFOCK"></i>
   <i type="logical" name="LSYMGRAD"> F  </i>
   <i type="logical" name="LHFONE"> F  </i>
   <i type="logical" name="LRHFCALC"> F  </i>
   <i type="logical" name="LTHOMAS"> F  </i>
   <i type="logical" name="LMODELHF"> F  </i>
   <i type="logical" name="LFOCKACE"> F  </i>
   <i name="ENCUT4O">     -1.00000000</i>
   <i type="int" name="EXXOEP">     0</i>
   <i type="int" name="FOURORBIT">     0</i>
   <i name="AEXX">      0.00000000</i>
   <i name="HFALPHA">      0.00000000</i>
   <i name="MCALPHA">      0.00000000</i>
   <i name="ALDAX">      1.00000000</i>
   <i name="AGGAX">      1.00000000</i>
   <i name="ALDAC">      1.00000000</i>
   <i name="AGGAC">      1.00000000</i>
   <i type="int" name="NKREDX">     1</i>
   <i type="int" name="NKREDY">     1</i>
   <i type="int" name="NKREDZ">     1</i>
   <i type="logical" name="SHIFTRED"> F  </i>
   <i type="logical" name="ODDONLY"> F  </i>
   <i type="logical" name="EVENONLY"> F  </i>
   <i type="int" name="LMAXFOCK">     0</i>
   <i type="int" name="NMAXFOCKAE">     0</i>
   <i type="logical" name="LFOCKAEDFT"> F  </i>
   <i name="HFSCREEN">      0.00000000</i>
   <i name="HFSCREENC">      0.00000000</i>
   <i type="int" name="NBANDSGWLOW">     0</i>
  </separator>
  <separator name="vdW DFT" >
   <i type="logical" name="LUSE_VDW"> F  </i>
   <i name="Zab_VDW">     -0.84910000</i>
   <i name="PARAM1">      0.12340000</i>
   <i name="PARAM2">      1.00000000</i>
   <i name="PARAM3">      0.00000000</i>
  </separator>
  <separator name="model GW" >
   <i type="int" name="MODEL_GW">     0</i>
   <i name="MODEL_EPS0">      7.47990728</i>
   <i name="MODEL_ALPHA">      1.00000000</i>
  </separator>
  <separator name="linear response parameters" >
   <i type="logical" name="LEPSILON"> F  </i>
   <i type="logical" name="LRPA"> F  </i>
   <i type="logical" name="LNABLA"> F  </i>
   <i type="logical" name="LVEL"> F  </i>
   <i type="int" name="KINTER">     0</i>
   <i name="CSHIFT">      0.10000000</i>
   <i name="OMEGAMAX">     -1.00000000</i>
   <i name="DEG_THRESHOLD">      0.00200000</i>
   <i name="RTIME">     -0.10000000</i>
   <i name="WPLASMAI">      0.00000000</i>
   <v name="DFIELD">      0.00000000      0.00000000      0.00000000</v>
   <v name="WPLASMA">      0.00000000      0.00000000      0.00000000      0.00000000      0.00000000      0.00000000      0.00000000      0.00000000      0.00000000</v>
  </separator>
  <separator name="orbital magnetization" >
   <i type="logical" name="NUCIND"> F  </i>
   <v name="MAGPOS">      0.00000000      0.00000000      0.00000000</v>
   <i type="logical" name="LNICSALL"> T  </i>
   <i type="logical" name="ORBITALMAG"> F  </i>
   <i type="logical" name="LMAGBLOCH"> F  </i>
   <i type="logical" name="LCHIMAG"> F  </i>
   <i type="logical" name="LGAUGE"> T  </i>
   <i type="int" name="MAGATOM">     0</i>
   <v name="MAGDIPOL">      0.00000000      0.00000000      0.00000000</v>
   <v name="AVECCONST">      0.00000000      0.00000000      0.00000000</v>
  </separator>
  <separator name="response functions" >
   <i type="logical" name="LFINITE_TEMPERATURE"> F  </i>
   <i type="logical" name="LADDER"> F  </i>
   <i type="logical" name="LRPAFORCE"> F  </i>
   <i type="logical" name="LFXC"> F  </i>
   <i type="logical" name="LHARTREE"> T  </i>
   <i type="int" name="IBSE">     0</i>
   <v type="int" name="KPOINT">    -1     0     0     0</v>
   <i type="logical" name="LTCTC"> F  </i>
   <i type="logical" name="LTCTE"> F  </i>
   <i type="logical" name="LTETE"> F  </i>
   <i type="logical" name="LTRIPLET"> F  </i>
   <i type="logical" name="LFXCEPS"> F  </i>
   <i type="logical" name="LFXHEG"> F  </i>
   <i type="int" name="NATURALO">     2</i>
   <i type="logical" name="LHOLEGF"> F  </i>
   <i type="logical" name="L2ORDER"> F  </i>
   <i type="logical" name="LDMP1"> F  </i>
   <i type="logical" name="LMP2LT"> F  </i>
   <i type="logical" name="LSMP2LT"> F  </i>
   <i type="logical" name="LGWLF"> F  </i>
   <i name="ENCUTGW">     -2.00000000</i>
   <i name="ENCUTGWSOFT">     -2.00000000</i>
   <i name="ENCUTLF">     -1.00000000</i>
   <i type="logical" name="LESF_SPLINES"> F  </i>
   <i type="int" name="LMAXMP2">    -1</i>
   <i name="SCISSOR">      0.00000000</i>
   <i type="int" name="NOMEGA">     0</i>
   <i type="int" name="NOMEGAR">     0</i>
   <i type="int" name="NBANDSGW">    -1</i>
   <i type="int" name="NBANDSO">    -1</i>
   <i type="int" name="NBANDSV">    -1</i>
   <i type="int" name="NELM">   100</i>
   <i type="int" name="NELMHF">     1</i>
   <i type="int" name="DIM">     3</i>
   <i type="int" name="IESPILON">     4</i>
   <i type="int" name="ANTIRES">     0</i>
   <i name="OMEGAMAX">    -30.00000000</i>
   <i name="OMEGAMIN">    -30.00000000</i>
   <i name="OMEGATL">   -200.00000000</i>
   <i type="int" name="OMEGAGRID">     0</i>
   <i name="CSHIFT">     -0.10000000</i>
   <i type="logical" name="LSELFENERGY"> F  </i>
   <i type="logical" name="LSPECTRAL"> F  </i>
   <i type="logical" name="LSPECTRALGW"> F  </i>
   <i type="logical" name="LSINGLES"> F  </i>
   <i type="logical" name="LFERMIGW"> F  </i>
   <i type="logical" name="ODDONLYGW"> F  </i>
   <i type="logical" name="EVENONLYGW"> F  </i>
   <i type="int" name="NKREDLFX">     1</i>
   <i type="int" name="NKREDLFY">     1</i>
   <i type="int" name="NKREDLFZ">     1</i>
   <i type="int" name="MAXMEM">  2800</i>
   <i type="int" name="TELESCOPE">     0</i>
   <i type="int" name="NTAUPAR">    -1</i>
   <i type="int" name="NOMEGAPAR">    -1</i>
   <i name="DAMP_NEWTON">      0.80000001</i>
   <i name="LAMBDA">      1.00000000</i>
  </separator>
  <separator name="External order field" >
   <i name="OFIELD_KAPPA">      0.00000000</i>
   <v name="OFIELD_K">      0.00000000      0.00000000      0.00000000</v>
   <i name="OFIELD_Q6_NEAR">      0.00000000</i>
   <i name="OFIELD_Q6_FAR">      0.00000000</i>
   <i name="OFIELD_A">      0.00000000</i>
  </separator>
 </parameters>
 <atominfo>
  <atoms>      10 </atoms>
  <types>       3 </types>
  <array name="atoms" >
   <dimension dim="1">ion</dimension>
   <field type="string">element</field>
   <field type="int">atomtype</field>
   <set>
    <rc><c>B </c><c>   1</c></rc>
    <rc><c>B </c><c>   1</c></rc>
    <rc><c>Mo</c><c>   2</c></rc>
    <rc><c>Mo</c><c>   2</c></rc>
    <rc><c>Mo</c><c>   2</c></rc>
    <rc><c>Mo</c><c>   2</c></rc>
    <rc><c>Mo</c><c>   2</c></rc>
    <rc><c>Mo</c><c>   2</c></rc>
    <rc><c>Si</c><c>   3</c></rc>
    <rc><c>Si</c><c>   3</c></rc>
   </set>
  </array>
  <array name="atomtypes" >
   <dimension dim="1">type</dimension>
   <field type="int">atomspertype</field>
   <field type="string">element</field>
   <field>mass</field>
   <field>valence</field>
   <field type="string">pseudopotential</field>
   <set>
    <rc><c>   2</c><c>B </c><c>     10.81100000</c><c>      3.00000000</c><c>  PAW_PBE B 06Sep2000                   </c></rc>
    <rc><c>   6</c><c>Mo</c><c>     95.94000000</c><c>     14.00000000</c><c>  PAW_PBE Mo_sv 02Feb2006               </c></rc>
    <rc><c>   2</c><c>Si</c><c>     28.08500000</c><c>      4.00000000</c><c>  PAW_PBE Si 05Jan2001                  </c></rc>
   </set>
  </array>
 </atominfo>
 <structure name="initialpos" >
  <crystal>
   <varray name="basis" >
    <v>       4.88394800       0.00000000      -2.69208172 </v>
    <v>      -1.70380503       4.57711662      -2.69208172 </v>
    <v>       0.00000000       0.00000000       5.57676000 </v>
   </varray>
   <i name="volume">    124.66512136 </i>
   <varray name="rec_basis" >
    <v>       0.20475238       0.07621788       0.00000000 </v>
    <v>       0.00000000       0.21847816       0.00000000 </v>
    <v>       0.09884057       0.14225927       0.17931559 </v>
   </varray>
  </crystal>
  <varray name="positions" >
   <v>       0.25000000       0.25000000       0.00000000 </v>
   <v>       0.75000000       0.75000000       0.00000000 </v>
   <v>       0.00000000       0.50000000       0.00000000 </v>
   <v>       0.50000000       0.00000000       0.50000000 </v>
   <v>       0.50000000       0.50000000       0.50000000 </v>
   <v>       0.00000000       0.50000000       0.50000000 </v>
   <v>       0.50000000       0.00000000       0.00000000 </v>
   <v>       0.00000000       0.00000000       0.50000000 </v>
   <v>       0.00000000       0.00000000       0.00000000 </v>
   <v>       0.50000000       0.50000000       0.00000000 </v>
  </varray>
 </structure>
 <calculation>
  <scstep>
   <time name="total">   22.33   22.52</time>
   <energy>
    <i name="alphaZ">    670.15091905 </i>
    <i name="ewald">  -9841.31038699 </i>
    <i name="hartreedc">  -2149.11509438 </i>
    <i name="XCdc">    472.19813549 </i>
    <i name="pawpsdc">   9166.97638771 </i>
    <i name="pawaedc">  -9126.13493418 </i>
    <i name="eentropy">     -0.00072220 </i>
    <i name="bandstr">    390.36215961 </i>
    <i name="atom">  11522.16744521 </i>
    <i name="e_fr_energy">   1105.29390933 </i>
    <i name="e_wo_entrp">   1105.29463154 </i>
    <i name="e_0_energy">   1105.29427043 </i>
   </energy>
  </scstep>
  <scstep>
   <time name="total">   22.71   22.90</time>
   <energy>
    <i name="e_fr_energy">   -176.74756933 </i>
    <i name="e_wo_entrp">   -176.74652979 </i>
    <i name="e_0_energy">   -176.74704956 </i>
   </energy>
  </scstep>
  <scstep>
   <time name="total">   24.97   25.18</time>
   <energy>
    <i name="e_fr_energy">   -228.75168243 </i>
    <i name="e_wo_entrp">   -228.75058322 </i>
    <i name="e_0_energy">   -228.75113282 </i>
   </energy>
  </scstep>
  <scstep>
   <time name="total">   23.40   23.59</time>
   <energy>
    <i name="e_fr_energy">   -229.68079386 </i>
    <i name="e_wo_entrp">   -229.67964113 </i>
    <i name="e_0_energy">   -229.68021750 </i>
   </energy>
  </scstep>
  <scstep>
   <time name="total">   26.57   26.77</time>
   <energy>
    <i name="e_fr_energy">   -229.70285957 </i>
    <i name="e_wo_entrp">   -229.70170633 </i>
    <i name="e_0_energy">   -229.70228295 </i>
   </energy>
  </scstep>
  <scstep>
   <time name="total">   26.14   26.35</time>
   <energy>
    <i name="e_fr_energy">   -152.79083919 </i>
    <i name="e_wo_entrp">   -152.78903540 </i>
    <i name="e_0_energy">   -152.78993730 </i>
   </energy>
  </scstep>
  <scstep>
   <time name="total">   26.74   26.95</time>
   <energy>
    <i name="e_fr_energy">   -177.31455169 </i>
    <i name="e_wo_entrp">   -177.31295103 </i>
    <i name="e_0_energy">   -177.31375136 </i>
   </energy>
  </scstep>
  <scstep>
   <time name="total">   26.19   26.40</time>
   <energy>
    <i name="e_fr_energy">   -181.48064323 </i>
    <i name="e_wo_entrp">   -181.47917479 </i>
    <i name="e_0_energy">   -181.47990901 </i>
   </energy>
  </scstep>
  <scstep>
   <time name="total">   26.32   26.53</time>
   <energy>
    <i name="e_fr_energy">   -182.40692558 </i>
    <i name="e_wo_entrp">   -182.40547179 </i>
    <i name="e_0_energy">   -182.40619868 </i>
   </energy>
  </scstep>
  <scstep>
   <time name="total">   25.78   25.98</time>
   <energy>
    <i name="e_fr_energy">   -182.68854866 </i>
    <i name="e_wo_entrp">   -182.68688834 </i>
    <i name="e_0_energy">   -182.68771850 </i>
   </energy>
  </scstep>
  <scstep>
   <time name="total">   26.15   26.36</time>
   <energy>
    <i name="e_fr_energy">   -182.78667104 </i>
    <i name="e_wo_entrp">   -182.78511025 </i>
    <i name="e_0_energy">   -182.78589065 </i>
   </energy>
  </scstep>
  <scstep>
   <time name="total">   25.56   25.76</time>
   <energy>
    <i name="e_fr_energy">   -182.83394225 </i>
    <i name="e_wo_entrp">   -182.83223790 </i>
    <i name="e_0_energy">   -182.83309008 </i>
   </energy>
  </scstep>
  <scstep>
   <time name="total">   25.60   25.82</time>
   <energy>
    <i name="e_fr_energy">   -182.85483585 </i>
    <i name="e_wo_entrp">   -182.85302134 </i>
    <i name="e_0_energy">   -182.85392859 </i>
   </energy>
  </scstep>
  <scstep>
   <time name="total">   26.04   26.23</time>
   <energy>
    <i name="e_fr_energy">   -182.86424769 </i>
    <i name="e_wo_entrp">   -182.86236866 </i>
    <i name="e_0_energy">   -182.86330818 </i>
   </energy>
  </scstep>
  <scstep>
   <time name="total">   25.59   25.79</time>
   <energy>
    <i name="e_fr_energy">   -182.86804318 </i>
    <i name="e_wo_entrp">   -182.86618068 </i>
    <i name="e_0_energy">   -182.86711193 </i>
   </energy>
  </scstep>
  <scstep>
   <time name="total">   27.83   28.04</time>
   <energy>
    <i name="e_fr_energy">   -182.87016142 </i>
    <i name="e_wo_entrp">   -182.86830171 </i>
    <i name="e_0_energy">   -182.86923156 </i>
   </energy>
  </scstep>
  <scstep>
   <time name="total">   28.05   28.25</time>
   <energy>
    <i name="e_fr_energy">   -182.87119356 </i>
    <i name="e_wo_entrp">   -182.86934223 </i>
    <i name="e_0_energy">   -182.87026790 </i>
   </energy>
  </scstep>
  <scstep>
   <time name="total">   27.82   28.03</time>
   <energy>
    <i name="e_fr_energy">   -182.87158601 </i>
    <i name="e_wo_entrp">   -182.86973045 </i>
    <i name="e_0_energy">   -182.87065823 </i>
   </energy>
  </scstep>
  <scstep>
   <time name="total">   27.59   27.81</time>
   <energy>
    <i name="e_fr_energy">   -182.87175451 </i>
    <i name="e_wo_entrp">   -182.86990470 </i>
    <i name="e_0_energy">   -182.87082960 </i>
   </energy>
  </scstep>
  <scstep>
   <time name="total">   26.38   26.62</time>
   <energy>
    <i name="e_fr_energy">   -182.87186309 </i>
    <i name="e_wo_entrp">   -182.87001483 </i>
    <i name="e_0_energy">   -182.87093896 </i>
   </energy>
  </scstep>
  <scstep>
   <time name="total">   26.23   26.43</time>
   <energy>
    <i name="e_fr_energy">   -182.87190787 </i>
    <i name="e_wo_entrp">   -182.87006374 </i>
    <i name="e_0_energy">   -182.87098581 </i>
   </energy>
  </scstep>
  <scstep>
   <time name="total">   26.69   26.89</time>
   <energy>
    <i name="e_fr_energy">   -182.87192437 </i>
    <i name="e_wo_entrp">   -182.87008120 </i>
    <i name="e_0_energy">   -182.87100279 </i>
   </energy>
  </scstep>
  <scstep>
   <time name="total">   26.87   27.08</time>
   <energy>
    <i name="e_fr_energy">   -182.87193607 </i>
    <i name="e_wo_entrp">   -182.87009440 </i>
    <i name="e_0_energy">   -182.87101524 </i>
   </energy>
  </scstep>
  <scstep>
   <time name="total">   26.21   26.42</time>
   <energy>
    <i name="e_fr_energy">   -182.87194145 </i>
    <i name="e_wo_entrp">   -182.87009921 </i>
    <i name="e_0_energy">   -182.87102033 </i>
   </energy>
  </scstep>
  <scstep>
   <time name="total">   26.22   26.42</time>
   <energy>
    <i name="e_fr_energy">   -182.87194319 </i>
    <i name="e_wo_entrp">   -182.87010092 </i>
    <i name="e_0_energy">   -182.87102206 </i>
   </energy>
  </scstep>
  <scstep>
   <time name="total">   26.56   26.76</time>
   <energy>
    <i name="e_fr_energy">   -182.87194441 </i>
    <i name="e_wo_entrp">   -182.87010170 </i>
    <i name="e_0_energy">   -182.87102306 </i>
   </energy>
  </scstep>
  <scstep>
   <time name="total">   26.65   26.86</time>
   <energy>
    <i name="e_fr_energy">   -182.87194491 </i>
    <i name="e_wo_entrp">   -182.87010152 </i>
    <i name="e_0_energy">   -182.87102322 </i>
   </energy>
  </scstep>
  <scstep>
   <time name="total">   26.57   26.77</time>
   <energy>
    <i name="e_fr_energy">   -182.87194521 </i>
    <i name="e_wo_entrp">   -182.87010157 </i>
    <i name="e_0_energy">   -182.87102339 </i>
   </energy>
  </scstep>
  <scstep>
   <time name="total">   26.60   26.80</time>
   <energy>
    <i name="e_fr_energy">   -182.87194529 </i>
    <i name="e_wo_entrp">   -182.87010148 </i>
    <i name="e_0_energy">   -182.87102339 </i>
   </energy>
  </scstep>
  <scstep>
   <time name="total">   26.64   26.85</time>
   <energy>
    <i name="e_fr_energy">   -182.87194538 </i>
    <i name="e_wo_entrp">   -182.87010162 </i>
    <i name="e_0_energy">   -182.87102350 </i>
   </energy>
  </scstep>
  <scstep>
   <time name="total">   26.78   26.98</time>
   <energy>
    <i name="e_fr_energy">   -182.87194542 </i>
    <i name="e_wo_entrp">   -182.87010175 </i>
    <i name="e_0_energy">   -182.87102358 </i>
   </energy>
  </scstep>
  <scstep>
   <time name="total">   26.61   26.82</time>
   <energy>
    <i name="e_fr_energy">   -182.87194543 </i>
    <i name="e_wo_entrp">   -182.87010178 </i>
    <i name="e_0_energy">   -182.87102360 </i>
   </energy>
  </scstep>
  <scstep>
   <time name="total">   26.38   26.58</time>
   <energy>
    <i name="e_fr_energy">   -182.87194544 </i>
    <i name="e_wo_entrp">   -182.87010178 </i>
    <i name="e_0_energy">   -182.87102361 </i>
   </energy>
  </scstep>
  <scstep>
   <time name="total">   26.52   26.72</time>
   <energy>
    <i name="e_fr_energy">   -182.87194544 </i>
    <i name="e_wo_entrp">   -182.87010178 </i>
    <i name="e_0_energy">   -182.87102361 </i>
   </energy>
  </scstep>
  <scstep>
   <time name="total">   26.82   27.02</time>
   <energy>
    <i name="e_fr_energy">   -182.87194544 </i>
    <i name="e_wo_entrp">   -182.87010180 </i>
    <i name="e_0_energy">   -182.87102362 </i>
   </energy>
  </scstep>
  <scstep>
   <time name="total">   26.01   26.21</time>
   <energy>
    <i name="e_fr_energy">   -182.87194544 </i>
    <i name="e_wo_entrp">   -182.87010180 </i>
    <i name="e_0_energy">   -182.87102362 </i>
   </energy>
  </scstep>
  <scstep>
   <time name="total">   26.70   26.90</time>
   <energy>
    <i name="e_fr_energy">   -182.87194544 </i>
    <i name="e_wo_entrp">   -182.87010176 </i>
    <i name="e_0_energy">   -182.87102360 </i>
   </energy>
  </scstep>
  <scstep>
   <time name="total">   26.56   26.77</time>
   <energy>
    <i name="e_fr_energy">   -182.87194544 </i>
    <i name="e_wo_entrp">   -182.87010180 </i>
    <i name="e_0_energy">   -182.87102362 </i>
   </energy>
  </scstep>
  <scstep>
   <time name="total">   26.10   26.30</time>
   <energy>
    <i name="e_fr_energy">   -182.87194544 </i>
    <i name="e_wo_entrp">   -182.87010180 </i>
    <i name="e_0_energy">   -182.87102362 </i>
   </energy>
  </scstep>
  <scstep>
   <time name="total">   26.49   26.70</time>
   <energy>
    <i name="e_fr_energy">   -182.87194544 </i>
    <i name="e_wo_entrp">   -182.87010180 </i>
    <i name="e_0_energy">   -182.87102362 </i>
   </energy>
  </scstep>
  <scstep>
   <time name="total">   30.39   30.63</time>
   <energy>
    <i name="alphaZ">    670.15091905 </i>
    <i name="ewald">  -9841.31038699 </i>
    <i name="hartreedc">  -2011.28149012 </i>
    <i name="XCdc">    481.54426821 </i>
    <i name="pawpsdc">  13485.81046906 </i>
    <i name="pawaedc"> -13466.46562969 </i>
    <i name="eentropy">     -0.00184364 </i>
    <i name="bandstr">  -1023.48569654 </i>
    <i name="atom">  11522.16744521 </i>
    <i name="e_fr_energy">   -182.87194544 </i>
    <i name="e_wo_entrp">   -182.87010180 </i>
    <i name="e_0_energy">   -182.87102362 </i>
   </energy>
  </scstep>
  <structure>
   <crystal>
    <varray name="basis" >
     <v>       4.88394800       0.00000000      -2.69208172 </v>
     <v>      -1.70380503       4.57711662      -2.69208172 </v>
     <v>       0.00000000       0.00000000       5.57676000 </v>
    </varray>
    <i name="volume">    124.66512136 </i>
    <varray name="rec_basis" >
     <v>       0.20475238       0.07621788       0.00000000 </v>
     <v>       0.00000000       0.21847816       0.00000000 </v>
     <v>       0.09884057       0.14225927       0.17931559 </v>
    </varray>
   </crystal>
   <varray name="positions" >
    <v>       0.25000000       0.25000000       0.00000000 </v>
    <v>       0.75000000       0.75000000       0.00000000 </v>
    <v>       0.00000000       0.50000000       0.00000000 </v>
    <v>       0.50000000       0.00000000       0.50000000 </v>
    <v>       0.50000000       0.50000000       0.50000000 </v>
    <v>       0.00000000       0.50000000       0.50000000 </v>
    <v>       0.50000000       0.00000000       0.00000000 </v>
    <v>       0.00000000       0.00000000       0.50000000 </v>
    <v>       0.00000000       0.00000000       0.00000000 </v>
    <v>       0.50000000       0.50000000       0.00000000 </v>
   </varray>
  </structure>
  <varray name="forces" >
   <v>       0.00000000       0.00000000       0.00000000 </v>
   <v>       0.00000000       0.00000000       0.00000000 </v>
   <v>       0.00000000       0.00000000       0.00000000 </v>
   <v>       0.00000000       0.00000000       0.00000000 </v>
   <v>       0.00000000       0.00000000       0.00000000 </v>
   <v>       0.00000000       0.00000000       0.00000000 </v>
   <v>       0.00000000       0.00000000       0.00000000 </v>
   <v>       0.00000000       0.00000000       0.00000000 </v>
   <v>       0.00000000       0.00000000       0.00000000 </v>
   <v>       0.00000000       0.00000000       0.00000000 </v>
  </varray>
  <varray name="stress" >
   <v>       0.00000000       0.00000000       0.00000000 </v>
   <v>       0.00000000       0.00000000       0.00000000 </v>
   <v>       0.00000000       0.00000000       0.00000000 </v>
  </varray>
  <energy>
   <i name="e_fr_energy">   -182.87194544 </i>
   <i name="e_wo_entrp">   -182.87010180 </i>
   <i name="e_0_energy">   -182.87102362 </i>
  </energy>
  <time name="totalsc"> 1081.79 1090.26</time>
  <eigenvalues>
   <array>
    <dimension dim="1">band</dimension>
    <dimension dim="2">kpoint</dimension>
    <dimension dim="3">spin</dimension>
    <field>eigene</field>
    <field>occ</field>
    <set>
     <set comment="spin 1">
      <set comment="kpoint 1">
       <r>  -50.1849    1.0000 </r>
       <r>  -50.0290    1.0000 </r>
       <r>  -49.9684    1.0000 </r>
       <r>  -49.9684    1.0000 </r>
       <r>  -49.9037    1.0000 </r>
       <r>  -49.8812    1.0000 </r>
       <r>  -24.2393    1.0000 </r>
       <r>  -24.2377    1.0000 </r>
       <r>  -24.0571    1.0000 </r>
       <r>  -24.0570    1.0000 </r>
       <r>  -24.0171    1.0000 </r>
       <r>  -23.9421    1.0000 </r>
       <r>  -23.9421    1.0000 </r>
       <r>  -23.4760    1.0000 </r>
       <r>  -23.4760    1.0000 </r>
       <r>  -23.3749    1.0000 </r>
       <r>  -23.2228    1.0000 </r>
       <r>  -22.9974    1.0000 </r>
       <r>  -22.9863    1.0000 </r>
       <r>  -22.9863    1.0000 </r>
       <r>  -22.9005    1.0000 </r>
       <r>  -22.8611    1.0000 </r>
       <r>  -22.8611    1.0000 </r>
       <r>  -22.8317    1.0000 </r>
       <r>   -0.8131    1.0000 </r>
       <r>    1.2351    1.0000 </r>
       <r>    4.6277    1.0000 </r>
       <r>    5.4904    1.0000 </r>
       <r>    5.9362    1.0000 </r>
       <r>    5.9362    1.0000 </r>
       <r>    6.7180    1.0000 </r>
       <r>    7.1217    1.0000 </r>
       <r>    8.0838    1.0000 </r>
       <r>    8.2414    1.0000 </r>
       <r>    8.2443    1.0000 </r>
       <r>    8.3721    1.0000 </r>
       <r>    8.3722    1.0000 </r>
       <r>    9.3148    1.0000 </r>
       <r>    9.3148    1.0000 </r>
       <r>    9.4919    1.0000 </r>
       <r>    9.4919    1.0000 </r>
       <r>   10.0099    1.0000 </r>
       <r>   10.0099    1.0000 </r>
       <r>   11.1490    1.0000 </r>
       <r>   12.5224    1.0000 </r>
       <r>   12.5224    1.0000 </r>
       <r>   12.5527    1.0000 </r>
       <r>   12.5527    1.0000 </r>
       <r>   12.6838    1.0000 </r>
       <r>   13.0017    0.0060 </r>
       <r>   13.1295    0.0000 </r>
       <r>   13.4865    0.0000 </r>
       <r>   14.0153    0.0000 </r>
       <r>   14.4006    0.0000 </r>
       <r>   15.3800    0.0000 </r>
       <r>   15.4747    0.0000 </r>
       <r>   16.1441    0.0000 </r>
       <r>   16.6162    0.0000 </r>
       <r>   17.1488    0.0000 </r>
       <r>   17.1540    0.0000 </r>
      </set>
      <set comment="kpoint 2">
       <r>  -50.1778    1.0000 </r>
       <r>  -50.0297    1.0000 </r>
       <r>  -49.9714    1.0000 </r>
       <r>  -49.9652    1.0000 </r>
       <r>  -49.9075    1.0000 </r>
       <r>  -49.8846    1.0000 </r>
       <r>  -24.2261    1.0000 </r>
       <r>  -24.2015    1.0000 </r>
       <r>  -24.0564    1.0000 </r>
       <r>  -24.0247    1.0000 </r>
       <r>  -23.9951    1.0000 </r>
       <r>  -23.9252    1.0000 </r>
       <r>  -23.9223    1.0000 </r>
       <r>  -23.4877    1.0000 </r>
       <r>  -23.4722    1.0000 </r>
       <r>  -23.3779    1.0000 </r>
       <r>  -23.2438    1.0000 </r>
       <r>  -23.0213    1.0000 </r>
       <r>  -23.0097    1.0000 </r>
       <r>  -23.0034    1.0000 </r>
       <r>  -22.9155    1.0000 </r>
       <r>  -22.8887    1.0000 </r>
       <r>  -22.8675    1.0000 </r>
       <r>  -22.8467    1.0000 </r>
       <r>   -0.6929    1.0000 </r>
       <r>    1.2995    1.0000 </r>
       <r>    4.2491    1.0000 </r>
       <r>    5.3757    1.0000 </r>
       <r>    6.0626    1.0000 </r>
       <r>    6.3058    1.0000 </r>
       <r>    6.7463    1.0000 </r>
       <r>    7.1565    1.0000 </r>
       <r>    8.0386    1.0000 </r>
       <r>    8.1601    1.0000 </r>
       <r>    8.2132    1.0000 </r>
       <r>    8.4525    1.0000 </r>
       <r>    8.6319    1.0000 </r>
       <r>    9.3024    1.0000 </r>
       <r>    9.3172    1.0000 </r>
       <r>    9.4677    1.0000 </r>
       <r>    9.4997    1.0000 </r>
       <r>    9.9214    1.0000 </r>
       <r>    9.9454    1.0000 </r>
       <r>   11.1776    1.0000 </r>
       <r>   12.3938    1.0000 </r>
       <r>   12.5676    1.0000 </r>
       <r>   12.5682    1.0000 </r>
       <r>   12.6377    1.0000 </r>
       <r>   12.7149    1.0000 </r>
       <r>   12.9861    0.0792 </r>
       <r>   13.1136    0.0000 </r>
       <r>   13.5467    0.0000 </r>
       <r>   13.9199    0.0000 </r>
       <r>   14.2808    0.0000 </r>
       <r>   15.3798    0.0000 </r>
       <r>   15.4673    0.0000 </r>
       <r>   15.7410    0.0000 </r>
       <r>   15.9646    0.0000 </r>
       <r>   16.3237    0.0000 </r>
       <r>   16.7128    0.0000 </r>
      </set>
      <set comment="kpoint 3">
       <r>  -50.1577    1.0000 </r>
       <r>  -50.0373    1.0000 </r>
       <r>  -49.9742    1.0000 </r>
       <r>  -49.9558    1.0000 </r>
       <r>  -49.9182    1.0000 </r>
       <r>  -49.8941    1.0000 </r>
       <r>  -24.1928    1.0000 </r>
       <r>  -24.1057    1.0000 </r>
       <r>  -24.0666    1.0000 </r>
       <r>  -23.9340    1.0000 </r>
       <r>  -23.9309    1.0000 </r>
       <r>  -23.8671    1.0000 </r>
       <r>  -23.8649    1.0000 </r>
       <r>  -23.5117    1.0000 </r>
       <r>  -23.4846    1.0000 </r>
       <r>  -23.3640    1.0000 </r>
       <r>  -23.3090    1.0000 </r>
       <r>  -23.1262    1.0000 </r>
       <r>  -23.0989    1.0000 </r>
       <r>  -23.0579    1.0000 </r>
       <r>  -22.9337    1.0000 </r>
       <r>  -22.9271    1.0000 </r>
       <r>  -22.8824    1.0000 </r>
       <r>  -22.8756    1.0000 </r>
       <r>   -0.3470    1.0000 </r>
       <r>    1.4110    1.0000 </r>
       <r>    3.6871    1.0000 </r>
       <r>    5.0145    1.0000 </r>
       <r>    6.4183    1.0000 </r>
       <r>    6.7576    1.0000 </r>
       <r>    6.8221    1.0000 </r>
       <r>    7.4337    1.0000 </r>
       <r>    7.9461    1.0000 </r>
       <r>    7.9558    1.0000 </r>
       <r>    8.0832    1.0000 </r>
       <r>    8.7009    1.0000 </r>
       <r>    9.1278    1.0000 </r>
       <r>    9.2335    1.0000 </r>
       <r>    9.3336    1.0000 </r>
       <r>    9.5645    1.0000 </r>
       <r>    9.7030    1.0000 </r>
       <r>    9.7158    1.0000 </r>
       <r>    9.9447    1.0000 </r>
       <r>   11.2455    1.0000 </r>
       <r>   11.7756    1.0000 </r>
       <r>   12.4613    1.0000 </r>
       <r>   12.4939    1.0000 </r>
       <r>   12.6031    1.0000 </r>
       <r>   12.7479    1.0000 </r>
       <r>   13.0520    0.0000 </r>
       <r>   13.2313    0.0000 </r>
       <r>   13.7785    0.0000 </r>
       <r>   13.8330    0.0000 </r>
       <r>   14.0602    0.0000 </r>
       <r>   15.0324    0.0000 </r>
       <r>   15.0479    0.0000 </r>
       <r>   15.3101    0.0000 </r>
       <r>   15.6654    0.0000 </r>
       <r>   16.0476    0.0000 </r>
       <r>   16.5651    0.0000 </r>
      </set>
      <set comment="kpoint 4">
       <r>  -50.1277    1.0000 </r>
       <r>  -50.0599    1.0000 </r>
       <r>  -49.9668    1.0000 </r>
       <r>  -49.9418    1.0000 </r>
       <r>  -49.9338    1.0000 </r>
       <r>  -49.9084    1.0000 </r>
       <r>  -24.1524    1.0000 </r>
       <r>  -24.0872    1.0000 </r>
       <r>  -23.9931    1.0000 </r>
       <r>  -23.8784    1.0000 </r>
       <r>  -23.8094    1.0000 </r>
       <r>  -23.7907    1.0000 </r>
       <r>  -23.7354    1.0000 </r>
       <r>  -23.5299    1.0000 </r>
       <r>  -23.5002    1.0000 </r>
       <r>  -23.4173    1.0000 </r>
       <r>  -23.3156    1.0000 </r>
       <r>  -23.3099    1.0000 </r>
       <r>  -23.2428    1.0000 </r>
       <r>  -23.1415    1.0000 </r>
       <r>  -22.9424    1.0000 </r>
       <r>  -22.9422    1.0000 </r>
       <r>  -22.8964    1.0000 </r>
       <r>  -22.8956    1.0000 </r>
       <r>    0.1781    1.0000 </r>
       <r>    1.2868    1.0000 </r>
       <r>    3.4978    1.0000 </r>
       <r>    4.4520    1.0000 </r>
       <r>    6.7313    1.0000 </r>
       <r>    6.9244    1.0000 </r>
       <r>    6.9257    1.0000 </r>
       <r>    7.8351    1.0000 </r>
       <r>    7.9173    1.0000 </r>
       <r>    7.9690    1.0000 </r>
       <r>    8.0288    1.0000 </r>
       <r>    9.0168    1.0000 </r>
       <r>    9.0705    1.0000 </r>
       <r>    9.0778    1.0000 </r>
       <r>    9.4264    1.0000 </r>
       <r>    9.7838    1.0000 </r>
       <r>    9.8746    1.0000 </r>
       <r>   10.0203    1.0000 </r>
       <r>   10.1582    1.0000 </r>
       <r>   11.0169    1.0000 </r>
       <r>   11.4656    1.0000 </r>
       <r>   12.1593    1.0000 </r>
       <r>   12.1978    1.0000 </r>
       <r>   12.3104    1.0000 </r>
       <r>   12.9454    0.9285 </r>
       <r>   13.2037    0.0000 </r>
       <r>   13.4233    0.0000 </r>
       <r>   13.5962    0.0000 </r>
       <r>   13.8217    0.0000 </r>
       <r>   13.8646    0.0000 </r>
       <r>   14.3176    0.0000 </r>
       <r>   14.3580    0.0000 </r>
       <r>   14.7973    0.0000 </r>
       <r>   14.9483    0.0000 </r>
       <r>   16.3720    0.0000 </r>
       <r>   16.6343    0.0000 </r>
      </set>
      <set comment="kpoint 5">
       <r>  -50.0928    1.0000 </r>
       <r>  -50.0928    1.0000 </r>
       <r>  -49.9514    1.0000 </r>
       <r>  -49.9514    1.0000 </r>
       <r>  -49.9252    1.0000 </r>
       <r>  -49.9252    1.0000 </r>
       <r>  -24.1161    1.0000 </r>
       <r>  -24.1161    1.0000 </r>
       <r>  -23.9058    1.0000 </r>
       <r>  -23.9058    1.0000 </r>
       <r>  -23.7365    1.0000 </r>
       <r>  -23.7365    1.0000 </r>
       <r>  -23.5368    1.0000 </r>
       <r>  -23.5368    1.0000 </r>
       <r>  -23.5292    1.0000 </r>
       <r>  -23.5292    1.0000 </r>
       <r>  -23.3972    1.0000 </r>
       <r>  -23.3972    1.0000 </r>
       <r>  -23.2310    1.0000 </r>
       <r>  -23.2310    1.0000 </r>
       <r>  -22.9455    1.0000 </r>
       <r>  -22.9455    1.0000 </r>
       <r>  -22.9020    1.0000 </r>
       <r>  -22.9020    1.0000 </r>
       <r>    0.7887    1.0000 </r>
       <r>    0.7887    1.0000 </r>
       <r>    3.8524    1.0000 </r>
       <r>    3.8524    1.0000 </r>
       <r>    6.7848    1.0000 </r>
       <r>    6.7848    1.0000 </r>
       <r>    7.4441    1.0000 </r>
       <r>    7.4441    1.0000 </r>
       <r>    8.0274    1.0000 </r>
       <r>    8.0274    1.0000 </r>
       <r>    8.6163    1.0000 </r>
       <r>    8.6163    1.0000 </r>
       <r>    9.1049    1.0000 </r>
       <r>    9.1049    1.0000 </r>
       <r>    9.5200    1.0000 </r>
       <r>    9.5200    1.0000 </r>
       <r>   10.3266    1.0000 </r>
       <r>   10.3266    1.0000 </r>
       <r>   10.3994    1.0000 </r>
       <r>   10.3994    1.0000 </r>
       <r>   11.9559    1.0000 </r>
       <r>   11.9559    1.0000 </r>
       <r>   11.9955    1.0000 </r>
       <r>   11.9955    1.0000 </r>
       <r>   13.2189    0.0000 </r>
       <r>   13.2189    0.0000 </r>
       <r>   13.2686    0.0000 </r>
       <r>   13.2686    0.0000 </r>
       <r>   13.8860    0.0000 </r>
       <r>   13.8860    0.0000 </r>
       <r>   13.9574    0.0000 </r>
       <r>   13.9574    0.0000 </r>
       <r>   14.6498    0.0000 </r>
       <r>   14.6498    0.0000 </r>
       <r>   17.0079    0.0000 </r>
       <r>   17.0396    0.0000 </r>
      </set>
      <set comment="kpoint 6">
       <r>  -50.1659    1.0000 </r>
       <r>  -50.0328    1.0000 </r>
       <r>  -49.9687    1.0000 </r>
       <r>  -49.9656    1.0000 </r>
       <r>  -49.9166    1.0000 </r>
       <r>  -49.8873    1.0000 </r>
       <r>  -24.2041    1.0000 </r>
       <r>  -24.1570    1.0000 </r>
       <r>  -24.0319    1.0000 </r>
       <r>  -24.0150    1.0000 </r>
       <r>  -23.9466    1.0000 </r>
       <r>  -23.9061    1.0000 </r>
       <r>  -23.8659    1.0000 </r>
       <r>  -23.4880    1.0000 </r>
       <r>  -23.4853    1.0000 </r>
       <r>  -23.3727    1.0000 </r>
       <r>  -23.2640    1.0000 </r>
       <r>  -23.0820    1.0000 </r>
       <r>  -23.0804    1.0000 </r>
       <r>  -23.0220    1.0000 </r>
       <r>  -22.9405    1.0000 </r>
       <r>  -22.8996    1.0000 </r>
       <r>  -22.8959    1.0000 </r>
       <r>  -22.8577    1.0000 </r>
       <r>   -0.5026    1.0000 </r>
       <r>    1.3717    1.0000 </r>
       <r>    4.0812    1.0000 </r>
       <r>    4.9692    1.0000 </r>
       <r>    5.9659    1.0000 </r>
       <r>    6.5991    1.0000 </r>
       <r>    6.8472    1.0000 </r>
       <r>    7.4378    1.0000 </r>
       <r>    7.9843    1.0000 </r>
       <r>    8.1485    1.0000 </r>
       <r>    8.2811    1.0000 </r>
       <r>    8.5508    1.0000 </r>
       <r>    8.9597    1.0000 </r>
       <r>    9.0782    1.0000 </r>
       <r>    9.4315    1.0000 </r>
       <r>    9.5308    1.0000 </r>
       <r>    9.5545    1.0000 </r>
       <r>    9.7526    1.0000 </r>
       <r>   10.0705    1.0000 </r>
       <r>   11.2971    1.0000 </r>
       <r>   12.1991    1.0000 </r>
       <r>   12.3481    1.0000 </r>
       <r>   12.4063    1.0000 </r>
       <r>   12.7163    1.0000 </r>
       <r>   12.8219    1.0000 </r>
       <r>   12.9455    0.9283 </r>
       <r>   13.0988    0.0000 </r>
       <r>   13.6951    0.0000 </r>
       <r>   13.9356    0.0000 </r>
       <r>   14.1326    0.0000 </r>
       <r>   15.0992    0.0000 </r>
       <r>   15.4294    0.0000 </r>
       <r>   15.5174    0.0000 </r>
       <r>   15.9843    0.0000 </r>
       <r>   16.1884    0.0000 </r>
       <r>   16.4840    0.0000 </r>
      </set>
      <set comment="kpoint 7">
       <r>  -50.1421    1.0000 </r>
       <r>  -50.0452    1.0000 </r>
       <r>  -49.9683    1.0000 </r>
       <r>  -49.9546    1.0000 </r>
       <r>  -49.9317    1.0000 </r>
       <r>  -49.8960    1.0000 </r>
       <r>  -24.1636    1.0000 </r>
       <r>  -24.0658    1.0000 </r>
       <r>  -24.0403    1.0000 </r>
       <r>  -23.9326    1.0000 </r>
       <r>  -23.8668    1.0000 </r>
       <r>  -23.8510    1.0000 </r>
       <r>  -23.7664    1.0000 </r>
       <r>  -23.5245    1.0000 </r>
       <r>  -23.5001    1.0000 </r>
       <r>  -23.3351    1.0000 </r>
       <r>  -23.3272    1.0000 </r>
       <r>  -23.2122    1.0000 </r>
       <r>  -23.2098    1.0000 </r>
       <r>  -23.0798    1.0000 </r>
       <r>  -22.9597    1.0000 </r>
       <r>  -22.9351    1.0000 </r>
       <r>  -22.9103    1.0000 </r>
       <r>  -22.8818    1.0000 </r>
       <r>   -0.1000    1.0000 </r>
       <r>    1.4074    1.0000 </r>
       <r>    3.8190    1.0000 </r>
       <r>    4.4741    1.0000 </r>
       <r>    6.1002    1.0000 </r>
       <r>    6.9000    1.0000 </r>
       <r>    6.9761    1.0000 </r>
       <r>    7.7326    1.0000 </r>
       <r>    7.9172    1.0000 </r>
       <r>    7.9953    1.0000 </r>
       <r>    8.2918    1.0000 </r>
       <r>    8.8467    1.0000 </r>
       <r>    8.9579    1.0000 </r>
       <r>    9.3093    1.0000 </r>
       <r>    9.5138    1.0000 </r>
       <r>    9.7143    1.0000 </r>
       <r>    9.7956    1.0000 </r>
       <r>    9.7972    1.0000 </r>
       <r>   10.0209    1.0000 </r>
       <r>   11.2952    1.0000 </r>
       <r>   11.6075    1.0000 </r>
       <r>   12.1503    1.0000 </r>
       <r>   12.2206    1.0000 </r>
       <r>   12.5007    1.0000 </r>
       <r>   12.8109    1.0000 </r>
       <r>   13.1633    0.0000 </r>
       <r>   13.2724    0.0000 </r>
       <r>   13.8093    0.0000 </r>
       <r>   13.8302    0.0000 </r>
       <r>   13.9201    0.0000 </r>
       <r>   14.6229    0.0000 </r>
       <r>   14.9265    0.0000 </r>
       <r>   15.3376    0.0000 </r>
       <r>   15.4732    0.0000 </r>
       <r>   16.1575    0.0000 </r>
       <r>   16.2446    0.0000 </r>
      </set>
      <set comment="kpoint 8">
       <r>  -50.1102    1.0000 </r>
       <r>  -50.0706    1.0000 </r>
       <r>  -49.9600    1.0000 </r>
       <r>  -49.9495    1.0000 </r>
       <r>  -49.9388    1.0000 </r>
       <r>  -49.9098    1.0000 </r>
       <r>  -24.1204    1.0000 </r>
       <r>  -24.0614    1.0000 </r>
       <r>  -23.9639    1.0000 </r>
       <r>  -23.8601    1.0000 </r>
       <r>  -23.7845    1.0000 </r>
       <r>  -23.7664    1.0000 </r>
       <r>  -23.6217    1.0000 </r>
       <r>  -23.5919    1.0000 </r>
       <r>  -23.4699    1.0000 </r>
       <r>  -23.4346    1.0000 </r>
       <r>  -23.3932    1.0000 </r>
       <r>  -23.3616    1.0000 </r>
       <r>  -23.2558    1.0000 </r>
       <r>  -23.1705    1.0000 </r>
       <r>  -22.9695    1.0000 </r>
       <r>  -22.9599    1.0000 </r>
       <r>  -22.9165    1.0000 </r>
       <r>  -22.8983    1.0000 </r>
       <r>    0.4592    1.0000 </r>
       <r>    1.1593    1.0000 </r>
       <r>    3.9083    1.0000 </r>
       <r>    3.9153    1.0000 </r>
       <r>    6.3489    1.0000 </r>
       <r>    6.8120    1.0000 </r>
       <r>    7.1480    1.0000 </r>
       <r>    7.8629    1.0000 </r>
       <r>    7.8728    1.0000 </r>
       <r>    8.2324    1.0000 </r>
       <r>    8.3158    1.0000 </r>
       <r>    8.9228    1.0000 </r>
       <r>    9.0162    1.0000 </r>
       <r>    9.1797    1.0000 </r>
       <r>    9.4878    1.0000 </r>
       <r>    9.7609    1.0000 </r>
       <r>   10.0495    1.0000 </r>
       <r>   10.2051    1.0000 </r>
       <r>   10.3677    1.0000 </r>
       <r>   10.6366    1.0000 </r>
       <r>   11.7399    1.0000 </r>
       <r>   11.8723    1.0000 </r>
       <r>   12.0420    1.0000 </r>
       <r>   12.1245    1.0000 </r>
       <r>   12.9076    1.0000 </r>
       <r>   13.2578    0.0000 </r>
       <r>   13.2907    0.0000 </r>
       <r>   13.6611    0.0000 </r>
       <r>   13.8021    0.0000 </r>
       <r>   14.0159    0.0000 </r>
       <r>   14.0206    0.0000 </r>
       <r>   14.4489    0.0000 </r>
       <r>   14.8641    0.0000 </r>
       <r>   14.9212    0.0000 </r>
       <r>   16.2998    0.0000 </r>
       <r>   16.5179    0.0000 </r>
      </set>
      <set comment="kpoint 9">
       <r>  -50.1031    1.0000 </r>
       <r>  -50.0758    1.0000 </r>
       <r>  -49.9664    1.0000 </r>
       <r>  -49.9454    1.0000 </r>
       <r>  -49.9266    1.0000 </r>
       <r>  -49.9216    1.0000 </r>
       <r>  -24.0908    1.0000 </r>
       <r>  -24.0835    1.0000 </r>
       <r>  -23.8991    1.0000 </r>
       <r>  -23.8888    1.0000 </r>
       <r>  -23.7678    1.0000 </r>
       <r>  -23.7248    1.0000 </r>
       <r>  -23.6242    1.0000 </r>
       <r>  -23.5414    1.0000 </r>
       <r>  -23.5402    1.0000 </r>
       <r>  -23.4922    1.0000 </r>
       <r>  -23.4216    1.0000 </r>
       <r>  -23.3489    1.0000 </r>
       <r>  -23.2626    1.0000 </r>
       <r>  -23.1613    1.0000 </r>
       <r>  -22.9733    1.0000 </r>
       <r>  -22.9693    1.0000 </r>
       <r>  -22.9152    1.0000 </r>
       <r>  -22.9016    1.0000 </r>
       <r>    0.6416    1.0000 </r>
       <r>    1.0620    1.0000 </r>
       <r>    3.4032    1.0000 </r>
       <r>    4.4043    1.0000 </r>
       <r>    6.4925    1.0000 </r>
       <r>    6.8219    1.0000 </r>
       <r>    7.3566    1.0000 </r>
       <r>    7.6217    1.0000 </r>
       <r>    7.7080    1.0000 </r>
       <r>    8.2037    1.0000 </r>
       <r>    8.4555    1.0000 </r>
       <r>    8.8078    1.0000 </r>
       <r>    9.0452    1.0000 </r>
       <r>    9.1120    1.0000 </r>
       <r>    9.4513    1.0000 </r>
       <r>    9.6645    1.0000 </r>
       <r>   10.1921    1.0000 </r>
       <r>   10.2637    1.0000 </r>
       <r>   10.4368    1.0000 </r>
       <r>   10.5492    1.0000 </r>
       <r>   11.5426    1.0000 </r>
       <r>   12.0171    1.0000 </r>
       <r>   12.0276    1.0000 </r>
       <r>   12.1544    1.0000 </r>
       <r>   13.0315    0.0000 </r>
       <r>   13.2166    0.0000 </r>
       <r>   13.4176    0.0000 </r>
       <r>   13.6341    0.0000 </r>
       <r>   13.7033    0.0000 </r>
       <r>   13.7782    0.0000 </r>
       <r>   14.1674    0.0000 </r>
       <r>   14.2911    0.0000 </r>
       <r>   14.6964    0.0000 </r>
       <r>   14.8547    0.0000 </r>
       <r>   16.3131    0.0000 </r>
       <r>   16.5982    0.0000 </r>
      </set>
      <set comment="kpoint 10">
       <r>  -50.1353    1.0000 </r>
       <r>  -50.0467    1.0000 </r>
       <r>  -49.9773    1.0000 </r>
       <r>  -49.9439    1.0000 </r>
       <r>  -49.9290    1.0000 </r>
       <r>  -49.9061    1.0000 </r>
       <r>  -24.1287    1.0000 </r>
       <r>  -24.0552    1.0000 </r>
       <r>  -23.9943    1.0000 </r>
       <r>  -23.8916    1.0000 </r>
       <r>  -23.8637    1.0000 </r>
       <r>  -23.8205    1.0000 </r>
       <r>  -23.7559    1.0000 </r>
       <r>  -23.5509    1.0000 </r>
       <r>  -23.5074    1.0000 </r>
       <r>  -23.4296    1.0000 </r>
       <r>  -23.3460    1.0000 </r>
       <r>  -23.2214    1.0000 </r>
       <r>  -23.2105    1.0000 </r>
       <r>  -23.0684    1.0000 </r>
       <r>  -22.9699    1.0000 </r>
       <r>  -22.9654    1.0000 </r>
       <r>  -22.9045    1.0000 </r>
       <r>  -22.8939    1.0000 </r>
       <r>    0.0782    1.0000 </r>
       <r>    1.4630    1.0000 </r>
       <r>    3.2076    1.0000 </r>
       <r>    5.0508    1.0000 </r>
       <r>    6.5356    1.0000 </r>
       <r>    6.7684    1.0000 </r>
       <r>    7.3924    1.0000 </r>
       <r>    7.5283    1.0000 </r>
       <r>    7.6285    1.0000 </r>
       <r>    7.8766    1.0000 </r>
       <r>    7.9982    1.0000 </r>
       <r>    8.8634    1.0000 </r>
       <r>    9.0280    1.0000 </r>
       <r>    9.2097    1.0000 </r>
       <r>    9.2240    1.0000 </r>
       <r>    9.7839    1.0000 </r>
       <r>    9.8165    1.0000 </r>
       <r>    9.9375    1.0000 </r>
       <r>   10.2542    1.0000 </r>
       <r>   11.1587    1.0000 </r>
       <r>   11.2850    1.0000 </r>
       <r>   12.0762    1.0000 </r>
       <r>   12.4329    1.0000 </r>
       <r>   12.6996    1.0000 </r>
       <r>   13.0010    0.0068 </r>
       <r>   13.1780    0.0000 </r>
       <r>   13.2159    0.0000 </r>
       <r>   13.7452    0.0000 </r>
       <r>   13.7875    0.0000 </r>
       <r>   13.9651    0.0000 </r>
       <r>   14.2452    0.0000 </r>
       <r>   14.6757    0.0000 </r>
       <r>   14.9109    0.0000 </r>
       <r>   15.2647    0.0000 </r>
       <r>   16.2475    0.0000 </r>
       <r>   16.2800    0.0000 </r>
      </set>
      <set comment="kpoint 11">
       <r>  -50.1611    1.0000 </r>
       <r>  -50.0318    1.0000 </r>
       <r>  -49.9763    1.0000 </r>
       <r>  -49.9587    1.0000 </r>
       <r>  -49.9149    1.0000 </r>
       <r>  -49.8943    1.0000 </r>
       <r>  -24.1703    1.0000 </r>
       <r>  -24.1131    1.0000 </r>
       <r>  -24.0363    1.0000 </r>
       <r>  -23.9616    1.0000 </r>
       <r>  -23.9357    1.0000 </r>
       <r>  -23.9258    1.0000 </r>
       <r>  -23.8515    1.0000 </r>
       <r>  -23.5249    1.0000 </r>
       <r>  -23.4745    1.0000 </r>
       <r>  -23.3841    1.0000 </r>
       <r>  -23.3252    1.0000 </r>
       <r>  -23.0892    1.0000 </r>
       <r>  -23.0703    1.0000 </r>
       <r>  -23.0059    1.0000 </r>
       <r>  -22.9508    1.0000 </r>
       <r>  -22.9486    1.0000 </r>
       <r>  -22.8813    1.0000 </r>
       <r>  -22.8813    1.0000 </r>
       <r>   -0.3788    1.0000 </r>
       <r>    1.4606    1.0000 </r>
       <r>    3.5280    1.0000 </r>
       <r>    5.5645    1.0000 </r>
       <r>    6.3728    1.0000 </r>
       <r>    6.5304    1.0000 </r>
       <r>    7.2136    1.0000 </r>
       <r>    7.2962    1.0000 </r>
       <r>    7.7544    1.0000 </r>
       <r>    7.8235    1.0000 </r>
       <r>    7.8788    1.0000 </r>
       <r>    8.6629    1.0000 </r>
       <r>    8.9184    1.0000 </r>
       <r>    9.2717    1.0000 </r>
       <r>    9.3517    1.0000 </r>
       <r>    9.4335    1.0000 </r>
       <r>    9.5933    1.0000 </r>
       <r>    9.6772    1.0000 </r>
       <r>   10.1629    1.0000 </r>
       <r>   11.1489    1.0000 </r>
       <r>   12.0099    1.0000 </r>
       <r>   12.2188    1.0000 </r>
       <r>   12.6480    1.0000 </r>
       <r>   12.9466    0.9171 </r>
       <r>   13.0307    0.0000 </r>
       <r>   13.1319    0.0000 </r>
       <r>   13.1826    0.0000 </r>
       <r>   13.6467    0.0000 </r>
       <r>   13.6775    0.0000 </r>
       <r>   13.7661    0.0000 </r>
       <r>   14.8353    0.0000 </r>
       <r>   15.3622    0.0000 </r>
       <r>   15.4331    0.0000 </r>
       <r>   15.7601    0.0000 </r>
       <r>   15.8716    0.0000 </r>
       <r>   16.4181    0.0000 </r>
      </set>
      <set comment="kpoint 12">
       <r>  -50.1761    1.0000 </r>
       <r>  -50.0292    1.0000 </r>
       <r>  -49.9686    1.0000 </r>
       <r>  -49.9684    1.0000 </r>
       <r>  -49.9068    1.0000 </r>
       <r>  -49.8872    1.0000 </r>
       <r>  -24.2025    1.0000 </r>
       <r>  -24.1974    1.0000 </r>
       <r>  -24.0325    1.0000 </r>
       <r>  -24.0265    1.0000 </r>
       <r>  -23.9954    1.0000 </r>
       <r>  -23.9432    1.0000 </r>
       <r>  -23.9062    1.0000 </r>
       <r>  -23.4929    1.0000 </r>
       <r>  -23.4759    1.0000 </r>
       <r>  -23.3825    1.0000 </r>
       <r>  -23.2635    1.0000 </r>
       <r>  -23.0227    1.0000 </r>
       <r>  -23.0137    1.0000 </r>
       <r>  -22.9866    1.0000 </r>
       <r>  -22.9191    1.0000 </r>
       <r>  -22.9035    1.0000 </r>
       <r>  -22.8709    1.0000 </r>
       <r>  -22.8575    1.0000 </r>
       <r>   -0.6490    1.0000 </r>
       <r>    1.3336    1.0000 </r>
       <r>    4.0128    1.0000 </r>
       <r>    5.6442    1.0000 </r>
       <r>    6.0843    1.0000 </r>
       <r>    6.7217    1.0000 </r>
       <r>    6.7297    1.0000 </r>
       <r>    6.8863    1.0000 </r>
       <r>    7.9833    1.0000 </r>
       <r>    8.0425    1.0000 </r>
       <r>    8.0498    1.0000 </r>
       <r>    8.4592    1.0000 </r>
       <r>    8.8418    1.0000 </r>
       <r>    9.1671    1.0000 </r>
       <r>    9.3678    1.0000 </r>
       <r>    9.3806    1.0000 </r>
       <r>    9.5992    1.0000 </r>
       <r>    9.6136    1.0000 </r>
       <r>   10.1362    1.0000 </r>
       <r>   11.1414    1.0000 </r>
       <r>   12.3388    1.0000 </r>
       <r>   12.3836    1.0000 </r>
       <r>   12.6537    1.0000 </r>
       <r>   12.8141    1.0000 </r>
       <r>   12.8599    1.0000 </r>
       <r>   13.1586    0.0000 </r>
       <r>   13.2040    0.0000 </r>
       <r>   13.5172    0.0000 </r>
       <r>   13.6714    0.0000 </r>
       <r>   14.0421    0.0000 </r>
       <r>   15.3115    0.0000 </r>
       <r>   15.5838    0.0000 </r>
       <r>   15.6643    0.0000 </r>
       <r>   15.9540    0.0000 </r>
       <r>   16.0688    0.0000 </r>
       <r>   16.4158    0.0000 </r>
      </set>
      <set comment="kpoint 13">
       <r>  -50.1165    1.0000 </r>
       <r>  -50.0583    1.0000 </r>
       <r>  -49.9692    1.0000 </r>
       <r>  -49.9492    1.0000 </r>
       <r>  -49.9417    1.0000 </r>
       <r>  -49.9038    1.0000 </r>
       <r>  -24.1040    1.0000 </r>
       <r>  -23.9968    1.0000 </r>
       <r>  -23.9940    1.0000 </r>
       <r>  -23.9048    1.0000 </r>
       <r>  -23.8028    1.0000 </r>
       <r>  -23.7949    1.0000 </r>
       <r>  -23.6371    1.0000 </r>
       <r>  -23.5971    1.0000 </r>
       <r>  -23.5096    1.0000 </r>
       <r>  -23.3811    1.0000 </r>
       <r>  -23.3675    1.0000 </r>
       <r>  -23.3216    1.0000 </r>
       <r>  -23.2581    1.0000 </r>
       <r>  -23.1216    1.0000 </r>
       <r>  -22.9956    1.0000 </r>
       <r>  -22.9936    1.0000 </r>
       <r>  -22.9147    1.0000 </r>
       <r>  -22.9054    1.0000 </r>
       <r>    0.3335    1.0000 </r>
       <r>    1.3238    1.0000 </r>
       <r>    3.9523    1.0000 </r>
       <r>    4.0374    1.0000 </r>
       <r>    5.8509    1.0000 </r>
       <r>    6.9346    1.0000 </r>
       <r>    7.1912    1.0000 </r>
       <r>    7.7406    1.0000 </r>
       <r>    7.9375    1.0000 </r>
       <r>    8.1015    1.0000 </r>
       <r>    8.5382    1.0000 </r>
       <r>    8.8539    1.0000 </r>
       <r>    9.1453    1.0000 </r>
       <r>    9.1594    1.0000 </r>
       <r>    9.5108    1.0000 </r>
       <r>    9.8240    1.0000 </r>
       <r>    9.8930    1.0000 </r>
       <r>   10.1264    1.0000 </r>
       <r>   10.4184    1.0000 </r>
       <r>   10.6431    1.0000 </r>
       <r>   11.8458    1.0000 </r>
       <r>   11.9415    1.0000 </r>
       <r>   11.9617    1.0000 </r>
       <r>   12.0324    1.0000 </r>
       <r>   12.7354    1.0000 </r>
       <r>   13.3464    0.0000 </r>
       <r>   13.4502    0.0000 </r>
       <r>   13.5560    0.0000 </r>
       <r>   13.9307    0.0000 </r>
       <r>   14.0449    0.0000 </r>
       <r>   14.2100    0.0000 </r>
       <r>   14.8944    0.0000 </r>
       <r>   15.4088    0.0000 </r>
       <r>   15.4682    0.0000 </r>
       <r>   15.4719    0.0000 </r>
       <r>   16.1905    0.0000 </r>
      </set>
      <set comment="kpoint 14">
       <r>  -50.0853    1.0000 </r>
       <r>  -50.0797    1.0000 </r>
       <r>  -49.9663    1.0000 </r>
       <r>  -49.9656    1.0000 </r>
       <r>  -49.9249    1.0000 </r>
       <r>  -49.9174    1.0000 </r>
       <r>  -24.0442    1.0000 </r>
       <r>  -23.9937    1.0000 </r>
       <r>  -23.9134    1.0000 </r>
       <r>  -23.8428    1.0000 </r>
       <r>  -23.7414    1.0000 </r>
       <r>  -23.7259    1.0000 </r>
       <r>  -23.6965    1.0000 </r>
       <r>  -23.5384    1.0000 </r>
       <r>  -23.4965    1.0000 </r>
       <r>  -23.4827    1.0000 </r>
       <r>  -23.4592    1.0000 </r>
       <r>  -23.4248    1.0000 </r>
       <r>  -23.2034    1.0000 </r>
       <r>  -23.1644    1.0000 </r>
       <r>  -23.0477    1.0000 </r>
       <r>  -23.0171    1.0000 </r>
       <r>  -22.9199    1.0000 </r>
       <r>  -22.9131    1.0000 </r>
       <r>    0.8873    1.0000 </r>
       <r>    1.0462    1.0000 </r>
       <r>    3.4531    1.0000 </r>
       <r>    4.4309    1.0000 </r>
       <r>    5.8203    1.0000 </r>
       <r>    6.8642    1.0000 </r>
       <r>    7.2911    1.0000 </r>
       <r>    7.6996    1.0000 </r>
       <r>    7.8229    1.0000 </r>
       <r>    8.2925    1.0000 </r>
       <r>    8.7197    1.0000 </r>
       <r>    8.7228    1.0000 </r>
       <r>    8.8734    1.0000 </r>
       <r>    9.3964    1.0000 </r>
       <r>    9.6492    1.0000 </r>
       <r>    9.7980    1.0000 </r>
       <r>    9.9196    1.0000 </r>
       <r>   10.2565    1.0000 </r>
       <r>   10.5092    1.0000 </r>
       <r>   10.6615    1.0000 </r>
       <r>   11.5437    1.0000 </r>
       <r>   11.7849    1.0000 </r>
       <r>   11.7886    1.0000 </r>
       <r>   12.0828    1.0000 </r>
       <r>   12.6975    1.0000 </r>
       <r>   13.3951    0.0000 </r>
       <r>   13.4110    0.0000 </r>
       <r>   13.6244    0.0000 </r>
       <r>   13.8669    0.0000 </r>
       <r>   13.9603    0.0000 </r>
       <r>   14.4089    0.0000 </r>
       <r>   14.6670    0.0000 </r>
       <r>   14.7980    0.0000 </r>
       <r>   15.2883    0.0000 </r>
       <r>   15.6376    0.0000 </r>
       <r>   16.1971    0.0000 </r>
      </set>
      <set comment="kpoint 15">
       <r>  -50.1066    1.0000 </r>
       <r>  -50.0549    1.0000 </r>
       <r>  -49.9786    1.0000 </r>
       <r>  -49.9544    1.0000 </r>
       <r>  -49.9350    1.0000 </r>
       <r>  -49.9098    1.0000 </r>
       <r>  -24.0154    1.0000 </r>
       <r>  -23.9999    1.0000 </r>
       <r>  -23.8853    1.0000 </r>
       <r>  -23.8558    1.0000 </r>
       <r>  -23.8266    1.0000 </r>
       <r>  -23.7239    1.0000 </r>
       <r>  -23.6366    1.0000 </r>
       <r>  -23.5929    1.0000 </r>
       <r>  -23.5679    1.0000 </r>
       <r>  -23.5419    1.0000 </r>
       <r>  -23.3597    1.0000 </r>
       <r>  -23.3487    1.0000 </r>
       <r>  -23.2765    1.0000 </r>
       <r>  -23.0707    1.0000 </r>
       <r>  -23.0682    1.0000 </r>
       <r>  -23.0279    1.0000 </r>
       <r>  -22.9185    1.0000 </r>
       <r>  -22.9057    1.0000 </r>
       <r>    0.6117    1.0000 </r>
       <r>    1.4283    1.0000 </r>
       <r>    3.0515    1.0000 </r>
       <r>    4.9965    1.0000 </r>
       <r>    5.9419    1.0000 </r>
       <r>    6.8613    1.0000 </r>
       <r>    7.4246    1.0000 </r>
       <r>    7.5163    1.0000 </r>
       <r>    7.6397    1.0000 </r>
       <r>    8.0134    1.0000 </r>
       <r>    8.3656    1.0000 </r>
       <r>    8.7797    1.0000 </r>
       <r>    8.9627    1.0000 </r>
       <r>    9.3274    1.0000 </r>
       <r>    9.3533    1.0000 </r>
       <r>    9.8233    1.0000 </r>
       <r>   10.2012    1.0000 </r>
       <r>   10.3993    1.0000 </r>
       <r>   10.5048    1.0000 </r>
       <r>   10.6550    1.0000 </r>
       <r>   11.3242    1.0000 </r>
       <r>   11.7361    1.0000 </r>
       <r>   12.2207    1.0000 </r>
       <r>   12.2468    1.0000 </r>
       <r>   12.8329    1.0000 </r>
       <r>   13.2852    0.0000 </r>
       <r>   13.3442    0.0000 </r>
       <r>   13.5344    0.0000 </r>
       <r>   13.6954    0.0000 </r>
[...]
       <r>    4.5223    1.0000 </r>
       <r>    6.2146    1.0000 </r>
       <r>    6.6807    1.0000 </r>
       <r>    7.3944    1.0000 </r>
       <r>    7.7445    1.0000 </r>
       <r>    7.8931    1.0000 </r>
       <r>    7.9192    1.0000 </r>
       <r>    8.0653    1.0000 </r>
       <r>    8.9465    1.0000 </r>
       <r>    9.0511    1.0000 </r>
       <r>    9.2094    1.0000 </r>
       <r>    9.3401    1.0000 </r>
       <r>    9.6431    1.0000 </r>
       <r>    9.9488    1.0000 </r>
       <r>   10.0147    1.0000 </r>
       <r>   10.1649    1.0000 </r>
       <r>   10.9533    1.0000 </r>
       <r>   11.5750    1.0000 </r>
       <r>   11.9173    1.0000 </r>
       <r>   12.1861    1.0000 </r>
       <r>   12.3348    1.0000 </r>
       <r>   13.0162    0.0002 </r>
       <r>   13.2860    0.0000 </r>
       <r>   13.3140    0.0000 </r>
       <r>   13.7894    0.0000 </r>
       <r>   13.8341    0.0000 </r>
       <r>   14.0501    0.0000 </r>
       <r>   14.2580    0.0000 </r>
       <r>   14.7219    0.0000 </r>
       <r>   15.2223    0.0000 </r>
       <r>   15.3807    0.0000 </r>
       <r>   16.0861    0.0000 </r>
       <r>   16.1626    0.0000 </r>
      </set>
      <set comment="kpoint 165">
       <r>  -50.1265    1.0000 </r>
       <r>  -50.0439    1.0000 </r>
       <r>  -49.9685    1.0000 </r>
       <r>  -49.9557    1.0000 </r>
       <r>  -49.9425    1.0000 </r>
       <r>  -49.9017    1.0000 </r>
       <r>  -24.0176    1.0000 </r>
       <r>  -23.9964    1.0000 </r>
       <r>  -23.9450    1.0000 </r>
       <r>  -23.9083    1.0000 </r>
       <r>  -23.8929    1.0000 </r>
       <r>  -23.8242    1.0000 </r>
       <r>  -23.6795    1.0000 </r>
       <r>  -23.5782    1.0000 </r>
       <r>  -23.5524    1.0000 </r>
       <r>  -23.4681    1.0000 </r>
       <r>  -23.3442    1.0000 </r>
       <r>  -23.3018    1.0000 </r>
       <r>  -23.2128    1.0000 </r>
       <r>  -23.0333    1.0000 </r>
       <r>  -23.0225    1.0000 </r>
       <r>  -22.9838    1.0000 </r>
       <r>  -22.9361    1.0000 </r>
       <r>  -22.9034    1.0000 </r>
       <r>    0.2486    1.0000 </r>
       <r>    1.5510    1.0000 </r>
       <r>    3.3010    1.0000 </r>
       <r>    5.1302    1.0000 </r>
       <r>    6.2167    1.0000 </r>
       <r>    6.4303    1.0000 </r>
       <r>    7.5317    1.0000 </r>
       <r>    7.6529    1.0000 </r>
       <r>    7.6691    1.0000 </r>
       <r>    7.7877    1.0000 </r>
       <r>    7.9593    1.0000 </r>
       <r>    8.8942    1.0000 </r>
       <r>    9.0327    1.0000 </r>
       <r>    9.0333    1.0000 </r>
       <r>    9.4223    1.0000 </r>
       <r>    9.5226    1.0000 </r>
       <r>    9.9524    1.0000 </r>
       <r>   10.3176    1.0000 </r>
       <r>   10.3456    1.0000 </r>
       <r>   10.9902    1.0000 </r>
       <r>   11.4639    1.0000 </r>
       <r>   11.6437    1.0000 </r>
       <r>   12.2599    1.0000 </r>
       <r>   12.4051    1.0000 </r>
       <r>   13.1742    0.0000 </r>
       <r>   13.1778    0.0000 </r>
       <r>   13.4891    0.0000 </r>
       <r>   13.6071    0.0000 </r>
       <r>   13.8788    0.0000 </r>
       <r>   14.0100    0.0000 </r>
       <r>   14.2124    0.0000 </r>
       <r>   14.5081    0.0000 </r>
       <r>   15.2654    0.0000 </r>
       <r>   15.5006    0.0000 </r>
       <r>   16.0477    0.0000 </r>
       <r>   16.2069    0.0000 </r>
      </set>
     </set>
    </set>
   </array>
  </eigenvalues>
  <separator name="orbital magnetization" >
   <v name="MAGDIPOLOUT">      0.00000000      0.00000000      0.00000000</v>
  </separator>
  <dos>
   <i name="efermi">     12.96615012 </i>
   <total>
    <array>
     <dimension dim="1">gridpoints</dimension>
     <dimension dim="2">spin</dimension>
     <field>energy</field>
     <field>total</field>
     <field>integrated</field>
     <set>
      <set comment="spin 1">
       <r>   -53.5518     0.0000     0.0000 </r>
       <r>   -53.3049     0.0000     0.0000 </r>
       <r>   -53.0580     0.0000     0.0000 </r>
       <r>   -52.8111     0.0000     0.0000 </r>
       <r>   -52.5642     0.0000     0.0000 </r>
       <r>   -52.3173     0.0000     0.0000 </r>
       <r>   -52.0704     0.0000     0.0000 </r>
       <r>   -51.8234     0.0000     0.0000 </r>
       <r>   -51.5765     0.0000     0.0000 </r>
       <r>   -51.3296     0.0000     0.0000 </r>
       <r>   -51.0827     0.0000     0.0000 </r>
       <r>   -50.8358     0.0000     0.0000 </r>
       <r>   -50.5889     0.0000     0.0000 </r>
       <r>   -50.3420     0.0000     0.0000 </r>
       <r>   -50.0951     5.8400     1.4419 </r>
       <r>   -49.8482    31.5219    11.9983 </r>
       <r>   -49.6013     0.0000    12.0000 </r>
       <r>   -49.3544     0.0000    12.0000 </r>
       <r>   -49.1074     0.0000    12.0000 </r>
       <r>   -48.8605     0.0000    12.0000 </r>
       <r>   -48.6136     0.0000    12.0000 </r>
       <r>   -48.3667     0.0000    12.0000 </r>
       <r>   -48.1198     0.0000    12.0000 </r>
       <r>   -47.8729     0.0000    12.0000 </r>
       <r>   -47.6260     0.0000    12.0000 </r>
       <r>   -47.3791     0.0000    12.0000 </r>
       <r>   -47.1322     0.0000    12.0000 </r>
       <r>   -46.8853     0.0000    12.0000 </r>
       <r>   -46.6384     0.0000    12.0000 </r>
       <r>   -46.3914     0.0000    12.0000 </r>
       <r>   -46.1445     0.0000    12.0000 </r>
       <r>   -45.8976     0.0000    12.0000 </r>
       <r>   -45.6507     0.0000    12.0000 </r>
       <r>   -45.4038     0.0000    12.0000 </r>
       <r>   -45.1569     0.0000    12.0000 </r>
       <r>   -44.9100     0.0000    12.0000 </r>
       <r>   -44.6631     0.0000    12.0000 </r>
       <r>   -44.4162     0.0000    12.0000 </r>
       <r>   -44.1693     0.0000    12.0000 </r>
       <r>   -43.9224     0.0000    12.0000 </r>
       <r>   -43.6754     0.0000    12.0000 </r>
       <r>   -43.4285     0.0000    12.0000 </r>
       <r>   -43.1816     0.0000    12.0000 </r>
       <r>   -42.9347     0.0000    12.0000 </r>
       <r>   -42.6878     0.0000    12.0000 </r>
       <r>   -42.4409     0.0000    12.0000 </r>
       <r>   -42.1940     0.0000    12.0000 </r>
       <r>   -41.9471     0.0000    12.0000 </r>
       <r>   -41.7002     0.0000    12.0000 </r>
       <r>   -41.4533     0.0000    12.0000 </r>
       <r>   -41.2064     0.0000    12.0000 </r>
       <r>   -40.9594     0.0000    12.0000 </r>
       <r>   -40.7125     0.0000    12.0000 </r>
       <r>   -40.4656     0.0000    12.0000 </r>
       <r>   -40.2187     0.0000    12.0000 </r>
       <r>   -39.9718     0.0000    12.0000 </r>
       <r>   -39.7249     0.0000    12.0000 </r>
       <r>   -39.4780     0.0000    12.0000 </r>
       <r>   -39.2311     0.0000    12.0000 </r>
       <r>   -38.9842     0.0000    12.0000 </r>
       <r>   -38.7373     0.0000    12.0000 </r>
       <r>   -38.4904     0.0000    12.0000 </r>
       <r>   -38.2434     0.0000    12.0000 </r>
       <r>   -37.9965     0.0000    12.0000 </r>
       <r>   -37.7496     0.0000    12.0000 </r>
       <r>   -37.5027     0.0000    12.0000 </r>
       <r>   -37.2558     0.0000    12.0000 </r>
       <r>   -37.0089     0.0000    12.0000 </r>
       <r>   -36.7620     0.0000    12.0000 </r>
       <r>   -36.5151     0.0000    12.0000 </r>
       <r>   -36.2682     0.0000    12.0000 </r>
       <r>   -36.0213     0.0000    12.0000 </r>
       <r>   -35.7744     0.0000    12.0000 </r>
       <r>   -35.5274     0.0000    12.0000 </r>
       <r>   -35.2805     0.0000    12.0000 </r>
       <r>   -35.0336     0.0000    12.0000 </r>
       <r>   -34.7867     0.0000    12.0000 </r>
       <r>   -34.5398     0.0000    12.0000 </r>
       <r>   -34.2929     0.0000    12.0000 </r>
       <r>   -34.0460     0.0000    12.0000 </r>
       <r>   -33.7991     0.0000    12.0000 </r>
       <r>   -33.5522     0.0000    12.0000 </r>
       <r>   -33.3053     0.0000    12.0000 </r>
       <r>   -33.0584     0.0000    12.0000 </r>
       <r>   -32.8114     0.0000    12.0000 </r>
       <r>   -32.5645     0.0000    12.0000 </r>
       <r>   -32.3176     0.0000    12.0000 </r>
       <r>   -32.0707     0.0000    12.0000 </r>
       <r>   -31.8238     0.0000    12.0000 </r>
       <r>   -31.5769     0.0000    12.0000 </r>
       <r>   -31.3300     0.0000    12.0000 </r>
       <r>   -31.0831     0.0000    12.0000 </r>
       <r>   -30.8362     0.0000    12.0000 </r>
       <r>   -30.5893     0.0000    12.0000 </r>
       <r>   -30.3424     0.0000    12.0000 </r>
       <r>   -30.0954     0.0000    12.0000 </r>
       <r>   -29.8485     0.0000    12.0000 </r>
       <r>   -29.6016     0.0000    12.0000 </r>
       <r>   -29.3547     0.0000    12.0000 </r>
       <r>   -29.1078     0.0000    12.0000 </r>
       <r>   -28.8609     0.0000    12.0000 </r>
       <r>   -28.6140     0.0000    12.0000 </r>
       <r>   -28.3671     0.0000    12.0000 </r>
       <r>   -28.1202     0.0000    12.0000 </r>
       <r>   -27.8733     0.0000    12.0000 </r>
       <r>   -27.6264     0.0000    12.0000 </r>
       <r>   -27.3794     0.0000    12.0000 </r>
       <r>   -27.1325     0.0000    12.0000 </r>
       <r>   -26.8856     0.0000    12.0000 </r>
       <r>   -26.6387     0.0000    12.0000 </r>
       <r>   -26.3918     0.0000    12.0000 </r>
       <r>   -26.1449     0.0000    12.0000 </r>
       <r>   -25.8980     0.0000    12.0000 </r>
       <r>   -25.6511     0.0000    12.0000 </r>
       <r>   -25.4042     0.0000    12.0000 </r>
       <r>   -25.1573     0.0000    12.0000 </r>
       <r>   -24.9104     0.0000    12.0000 </r>
       <r>   -24.6634     0.0000    12.0000 </r>
       <r>   -24.4165     0.0000    12.0000 </r>
       <r>   -24.1696     2.2334    12.5515 </r>
       <r>   -23.9227    15.6303    17.4981 </r>
       <r>   -23.6758    15.7122    24.7024 </r>
       <r>   -23.4289    20.2990    31.6405 </r>
       <r>   -23.1820    14.4096    37.8079 </r>
       <r>   -22.9351    20.5383    44.5086 </r>
       <r>   -22.6882     0.8297    48.0000 </r>
       <r>   -22.4413     0.0000    48.0000 </r>
       <r>   -22.1944     0.0000    48.0000 </r>
       <r>   -21.9474     0.0000    48.0000 </r>
       <r>   -21.7005     0.0000    48.0000 </r>
       <r>   -21.4536     0.0000    48.0000 </r>
       <r>   -21.2067     0.0000    48.0000 </r>
       <r>   -20.9598     0.0000    48.0000 </r>
       <r>   -20.7129     0.0000    48.0000 </r>
       <r>   -20.4660     0.0000    48.0000 </r>
       <r>   -20.2191     0.0000    48.0000 </r>
       <r>   -19.9722     0.0000    48.0000 </r>
       <r>   -19.7253     0.0000    48.0000 </r>
       <r>   -19.4784     0.0000    48.0000 </r>
       <r>   -19.2314     0.0000    48.0000 </r>
       <r>   -18.9845     0.0000    48.0000 </r>
       <r>   -18.7376     0.0000    48.0000 </r>
       <r>   -18.4907     0.0000    48.0000 </r>
       <r>   -18.2438     0.0000    48.0000 </r>
       <r>   -17.9969     0.0000    48.0000 </r>
       <r>   -17.7500     0.0000    48.0000 </r>
       <r>   -17.5031     0.0000    48.0000 </r>
       <r>   -17.2562     0.0000    48.0000 </r>
       <r>   -17.0093     0.0000    48.0000 </r>
       <r>   -16.7624     0.0000    48.0000 </r>
       <r>   -16.5154     0.0000    48.0000 </r>
       <r>   -16.2685     0.0000    48.0000 </r>
       <r>   -16.0216     0.0000    48.0000 </r>
       <r>   -15.7747     0.0000    48.0000 </r>
       <r>   -15.5278     0.0000    48.0000 </r>
       <r>   -15.2809     0.0000    48.0000 </r>
       <r>   -15.0340     0.0000    48.0000 </r>
       <r>   -14.7871     0.0000    48.0000 </r>
       <r>   -14.5402     0.0000    48.0000 </r>
       <r>   -14.2933     0.0000    48.0000 </r>
       <r>   -14.0464     0.0000    48.0000 </r>
       <r>   -13.7994     0.0000    48.0000 </r>
       <r>   -13.5525     0.0000    48.0000 </r>
       <r>   -13.3056     0.0000    48.0000 </r>
       <r>   -13.0587     0.0000    48.0000 </r>
       <r>   -12.8118     0.0000    48.0000 </r>
       <r>   -12.5649     0.0000    48.0000 </r>
       <r>   -12.3180     0.0000    48.0000 </r>
       <r>   -12.0711     0.0000    48.0000 </r>
       <r>   -11.8242     0.0000    48.0000 </r>
       <r>   -11.5773     0.0000    48.0000 </r>
       <r>   -11.3304     0.0000    48.0000 </r>
       <r>   -11.0834     0.0000    48.0000 </r>
       <r>   -10.8365     0.0000    48.0000 </r>
       <r>   -10.5896     0.0000    48.0000 </r>
       <r>   -10.3427     0.0000    48.0000 </r>
       <r>   -10.0958     0.0000    48.0000 </r>
       <r>    -9.8489     0.0000    48.0000 </r>
       <r>    -9.6020     0.0000    48.0000 </r>
       <r>    -9.3551     0.0000    48.0000 </r>
       <r>    -9.1082     0.0000    48.0000 </r>
       <r>    -8.8613     0.0000    48.0000 </r>
       <r>    -8.6144     0.0000    48.0000 </r>
       <r>    -8.3674     0.0000    48.0000 </r>
       <r>    -8.1205     0.0000    48.0000 </r>
       <r>    -7.8736     0.0000    48.0000 </r>
       <r>    -7.6267     0.0000    48.0000 </r>
       <r>    -7.3798     0.0000    48.0000 </r>
       <r>    -7.1329     0.0000    48.0000 </r>
       <r>    -6.8860     0.0000    48.0000 </r>
       <r>    -6.6391     0.0000    48.0000 </r>
       <r>    -6.3922     0.0000    48.0000 </r>
       <r>    -6.1453     0.0000    48.0000 </r>
       <r>    -5.8984     0.0000    48.0000 </r>
       <r>    -5.6514     0.0000    48.0000 </r>
       <r>    -5.4045     0.0000    48.0000 </r>
       <r>    -5.1576     0.0000    48.0000 </r>
       <r>    -4.9107     0.0000    48.0000 </r>
       <r>    -4.6638     0.0000    48.0000 </r>
       <r>    -4.4169     0.0000    48.0000 </r>
       <r>    -4.1700     0.0000    48.0000 </r>
       <r>    -3.9231     0.0000    48.0000 </r>
       <r>    -3.6762     0.0000    48.0000 </r>
       <r>    -3.4293     0.0000    48.0000 </r>
       <r>    -3.1824     0.0000    48.0000 </r>
       <r>    -2.9354     0.0000    48.0000 </r>
       <r>    -2.6885     0.0000    48.0000 </r>
       <r>    -2.4416     0.0000    48.0000 </r>
       <r>    -2.1947     0.0000    48.0000 </r>
       <r>    -1.9478     0.0000    48.0000 </r>
       <r>    -1.7009     0.0000    48.0000 </r>
       <r>    -1.4540     0.0000    48.0000 </r>
       <r>    -1.2071     0.0000    48.0000 </r>
       <r>    -0.9602     0.0000    48.0000 </r>
       <r>    -0.7133     0.0404    48.0100 </r>
       <r>    -0.4664     0.2066    48.1031 </r>
       <r>    -0.2194     0.2264    48.2330 </r>
       <r>     0.0275     0.7191    48.4588 </r>
       <r>     0.2744     0.6021    48.6660 </r>
       <r>     0.5213     1.0525    49.0272 </r>
       <r>     0.7682     1.1820    49.4064 </r>
       <r>     1.0151     1.1670    49.9479 </r>
       <r>     1.2620     1.7276    50.5168 </r>
       <r>     1.5089     2.5859    51.4058 </r>
       <r>     1.7558     0.9583    51.8165 </r>
       <r>     2.0027     0.4964    52.0427 </r>
       <r>     2.2496     0.1132    52.1182 </r>
       <r>     2.4966     0.3960    52.3339 </r>
       <r>     2.7435     0.4003    52.4738 </r>
       <r>     2.9904     0.6347    52.7435 </r>
       <r>     3.2373     0.4545    52.9768 </r>
       <r>     3.4842     0.8062    53.3067 </r>
       <r>     3.7311     0.8155    53.5729 </r>
       <r>     3.9780     1.2364    53.9129 </r>
       <r>     4.2249     0.4551    54.1436 </r>
       <r>     4.4718     1.2616    54.5372 </r>
       <r>     4.7187     0.7927    54.8311 </r>
       <r>     4.9656     0.6475    55.0835 </r>
       <r>     5.2126     0.6291    55.4539 </r>
       <r>     5.4595     1.1249    55.8020 </r>
       <r>     5.7064     1.5913    56.4762 </r>
       <r>     5.9533     1.3662    57.0491 </r>
       <r>     6.2002     1.3966    57.6053 </r>
       <r>     6.4471     1.8567    58.3022 </r>
       <r>     6.6940     1.9591    58.9802 </r>
       <r>     6.9409     2.4205    59.8407 </r>
       <r>     7.1878     2.5693    60.8149 </r>
       <r>     7.4347     2.9529    61.8749 </r>
       <r>     7.6816     5.2056    63.6672 </r>
       <r>     7.9286     5.5305    65.6537 </r>
       <r>     8.1755     4.1136    67.3317 </r>
       <r>     8.4224     3.2433    68.7175 </r>
       <r>     8.6693     4.3616    70.2540 </r>
       <r>     8.9162     4.8897    72.0649 </r>
       <r>     9.1631     5.3225    74.1163 </r>
       <r>     9.4100     5.0286    76.1305 </r>
       <r>     9.6569     4.6648    78.0129 </r>
       <r>     9.9038     4.7968    79.7816 </r>
       <r>    10.1507     5.6912    81.8601 </r>
       <r>    10.3976     4.5579    83.7851 </r>
       <r>    10.6446     4.2091    85.4872 </r>
       <r>    10.8915     2.7605    86.6017 </r>
       <r>    11.1384     2.3357    87.4760 </r>
       <r>    11.3853     2.5493    88.5183 </r>
       <r>    11.6322     3.0900    89.7491 </r>
       <r>    11.8791     3.8774    91.1032 </r>
       <r>    12.1260     5.4341    93.0570 </r>
       <r>    12.3729     3.4410    94.5579 </r>
       <r>    12.6198     3.4168    95.7846 </r>
       <r>    12.8667     3.6578    97.2955 </r>
       <r>    13.1136     5.1798    99.1748 </r>
       <r>    13.3606     6.4947   101.7390 </r>
       <r>    13.6075     4.8414   103.6711 </r>
       <r>    13.8544     7.4886   106.4809 </r>
       <r>    14.1013     4.9101   108.6429 </r>
       <r>    14.3482     3.7196   110.0851 </r>
       <r>    14.5951     3.0230   111.3367 </r>
       <r>    14.8420     3.0958   112.4658 </r>
       <r>    15.0889     3.0982   113.6608 </r>
       <r>    15.3358     2.4729   114.5759 </r>
       <r>    15.5827     3.7832   116.1147 </r>
       <r>    15.8296     2.0798   117.0101 </r>
       <r>    16.0766     2.2030   117.8564 </r>
       <r>    16.3235     3.5768   119.1401 </r>
       <r>    16.5704     1.4329   119.7323 </r>
       <r>    16.8173     0.5123   119.9182 </r>
       <r>    17.0642     0.1665   119.9925 </r>
       <r>    17.3111     0.0141   120.0000 </r>
       <r>    17.5580     0.0000   120.0000 </r>
       <r>    17.8049     0.0000   120.0000 </r>
       <r>    18.0518     0.0000   120.0000 </r>
       <r>    18.2987     0.0000   120.0000 </r>
       <r>    18.5456     0.0000   120.0000 </r>
       <r>    18.7926     0.0000   120.0000 </r>
       <r>    19.0395     0.0000   120.0000 </r>
       <r>    19.2864     0.0000   120.0000 </r>
       <r>    19.5333     0.0000   120.0000 </r>
       <r>    19.7802     0.0000   120.0000 </r>
       <r>    20.0271     0.0000   120.0000 </r>
       <r>    20.2740     0.0000   120.0000 </r>
       <r>    20.5209     0.0000   120.0000 </r>
      </set>
     </set>
    </array>
   </total>
  </dos>
 </calculation>
 <structure name="finalpos" >
  <crystal>
   <varray name="basis" >
    <v>       4.88394800       0.00000000      -2.69208172 </v>
    <v>      -1.70380503       4.57711662      -2.69208172 </v>
    <v>       0.00000000       0.00000000       5.57676000 </v>
   </varray>
   <i name="volume">    124.66512136 </i>
   <varray name="rec_basis" >
    <v>       0.20475238       0.07621788       0.00000000 </v>
    <v>       0.00000000       0.21847816       0.00000000 </v>
    <v>       0.09884057       0.14225927       0.17931559 </v>
   </varray>
  </crystal>
  <varray name="positions" >
   <v>       0.25000000       0.25000000       0.00000000 </v>
   <v>       0.75000000       0.75000000       0.00000000 </v>
   <v>       0.00000000       0.50000000       0.00000000 </v>
   <v>       0.50000000       0.00000000       0.50000000 </v>
   <v>       0.50000000       0.50000000       0.50000000 </v>
   <v>       0.00000000       0.50000000       0.50000000 </v>
   <v>       0.50000000       0.00000000       0.00000000 </v>
   <v>       0.00000000       0.00000000       0.50000000 </v>
   <v>       0.00000000       0.00000000       0.00000000 </v>
   <v>       0.50000000       0.50000000       0.00000000 </v>
  </varray>
 </structure>
</modeling>
