<?xml version="1.0" encoding="ISO-8859-1"?>
<modeling>
 <generator>
  <i name="program" type="string">vasp </i>
  <i name="version" type="string">6.2.0  </i>
  <i name="subversion" type="string">18Jan21 (build Jan 05 2022 15:41:44) complex                          parallel </i>
  <i name="platform" type="string">LinuxIFC </i>
  <i name="date" type="string">2025 05 07 </i>
  <i name="time" type="string">21:30:27 </i>
 </generator>
 <incar>
  <i type="string" name="SYSTEM">routine with relax: pwdword</i>
  <i type="string" name="PREC">Acc</i>
  <i type="int" name="IALGO">    38</i>
  <i type="string" name="ALGO">A</i>
  <i type="logical" name="ADDGRID"> T  </i>
  <i type="int" name="ICHARG">     2</i>
  <i type="int" name="NELM">   100</i>
  <i type="int" name="NELMIN">     6</i>
  <i name="EDIFF">      0.00000000</i>
  <i type="int" name="NSW">     0</i>
  <i type="int" name="ISIF">    -1</i>
  <i name="ENCUT">    600.00000000</i>
  <i type="logical" name="LREAL"> F  </i>
  <i type="int" name="ISMEAR">     0</i>
  <i name="SIGMA">      0.02000000</i>
  <i type="logical" name="LASPH"> T  </i>
  <i type="string" name="METAGGA">R2SCAN</i>
  <i type="logical" name="LMIXTAU"> F  </i>
 </incar>
 <primitive_cell>
  <structure name="primitive_cell" >
   <crystal>
    <varray name="basis" >
     <v>       4.13354800       0.00000000       0.00000000 </v>
     <v>       0.00000000       4.13354800       0.00000000 </v>
     <v>       0.00000000       0.00000000       4.13354800 </v>
    </varray>
    <i name="volume">     70.62670666 </i>
    <varray name="rec_basis" >
     <v>       0.24192292       0.00000000       0.00000000 </v>
     <v>       0.00000000       0.24192292       0.00000000 </v>
     <v>       0.00000000       0.00000000       0.24192292 </v>
    </varray>
   </crystal>
   <varray name="positions" >
    <v>       0.79996000       0.50000000       0.50000000 </v>
    <v>       0.20004000       0.50000000       0.50000000 </v>
    <v>       0.50000000       0.50000000       0.79996000 </v>
    <v>       0.50000000       0.50000000       0.20004000 </v>
    <v>       0.50000000       0.20004000       0.50000000 </v>
    <v>       0.50000000       0.79996000       0.50000000 </v>
    <v>       0.00000000       0.00000000       0.00000000 </v>
   </varray>
  </structure>
  <varray name="primitive_index" >
   <v type="int" >        1 </v>
   <v type="int" >        2 </v>
   <v type="int" >        3 </v>
   <v type="int" >        4 </v>
   <v type="int" >        5 </v>
   <v type="int" >        6 </v>
   <v type="int" >        7 </v>
  </varray>
 </primitive_cell>
 <kpoints>
  <generation param="Gamma">
   <v type="int" name="divisions">       9        9        9 </v>
   <v name="usershift">      0.00000000       0.00000000       0.00000000 </v>
   <v name="genvec1">      0.11111111       0.00000000       0.00000000 </v>
   <v name="genvec2">      0.00000000       0.11111111       0.00000000 </v>
   <v name="genvec3">      0.00000000       0.00000000       0.11111111 </v>
   <v name="shift">      0.00000000       0.00000000       0.00000000 </v>
  </generation>
  <varray name="kpointlist" >
   <v>       0.00000000       0.00000000       0.00000000 </v>
   <v>       0.11111111       0.00000000       0.00000000 </v>
   <v>       0.22222222       0.00000000       0.00000000 </v>
   <v>       0.33333333       0.00000000       0.00000000 </v>
   <v>       0.44444444       0.00000000       0.00000000 </v>
   <v>       0.11111111       0.11111111       0.00000000 </v>
   <v>       0.22222222       0.11111111       0.00000000 </v>
   <v>       0.33333333       0.11111111       0.00000000 </v>
   <v>       0.44444444       0.11111111       0.00000000 </v>
   <v>       0.22222222       0.22222222       0.00000000 </v>
   <v>       0.33333333       0.22222222       0.00000000 </v>
   <v>       0.44444444       0.22222222       0.00000000 </v>
   <v>       0.33333333       0.33333333       0.00000000 </v>
   <v>       0.44444444       0.33333333       0.00000000 </v>
   <v>       0.44444444       0.44444444       0.00000000 </v>
   <v>       0.11111111       0.11111111       0.11111111 </v>
   <v>       0.22222222       0.11111111       0.11111111 </v>
   <v>       0.33333333       0.11111111       0.11111111 </v>
   <v>       0.44444444       0.11111111       0.11111111 </v>
   <v>       0.22222222       0.22222222       0.11111111 </v>
   <v>       0.33333333       0.22222222       0.11111111 </v>
   <v>       0.44444444       0.22222222       0.11111111 </v>
   <v>       0.33333333       0.33333333       0.11111111 </v>
   <v>       0.44444444       0.33333333       0.11111111 </v>
   <v>       0.44444444       0.44444444       0.11111111 </v>
   <v>       0.22222222       0.22222222       0.22222222 </v>
   <v>       0.33333333       0.22222222       0.22222222 </v>
   <v>       0.44444444       0.22222222       0.22222222 </v>
   <v>       0.33333333       0.33333333       0.22222222 </v>
   <v>       0.44444444       0.33333333       0.22222222 </v>
   <v>       0.44444444       0.44444444       0.22222222 </v>
   <v>       0.33333333       0.33333333       0.33333333 </v>
   <v>       0.44444444       0.33333333       0.33333333 </v>
   <v>       0.44444444       0.44444444       0.33333333 </v>
   <v>       0.44444444       0.44444444       0.44444444 </v>
  </varray>
  <varray name="weights" >
   <v>       0.00137174 </v>
   <v>       0.00823045 </v>
   <v>       0.00823045 </v>
   <v>       0.00823045 </v>
   <v>       0.00823045 </v>
   <v>       0.01646091 </v>
   <v>       0.03292181 </v>
   <v>       0.03292181 </v>
   <v>       0.03292181 </v>
   <v>       0.01646091 </v>
   <v>       0.03292181 </v>
   <v>       0.03292181 </v>
   <v>       0.01646091 </v>
   <v>       0.03292181 </v>
   <v>       0.01646091 </v>
   <v>       0.01097394 </v>
   <v>       0.03292181 </v>
   <v>       0.03292181 </v>
   <v>       0.03292181 </v>
   <v>       0.03292181 </v>
   <v>       0.06584362 </v>
   <v>       0.06584362 </v>
   <v>       0.03292181 </v>
   <v>       0.06584362 </v>
   <v>       0.03292181 </v>
   <v>       0.01097394 </v>
   <v>       0.03292181 </v>
   <v>       0.03292181 </v>
   <v>       0.03292181 </v>
   <v>       0.06584362 </v>
   <v>       0.03292181 </v>
   <v>       0.01097394 </v>
   <v>       0.03292181 </v>
   <v>       0.03292181 </v>
   <v>       0.01097394 </v>
  </varray>
 </kpoints>
 <parameters>
  <separator name="general" >
   <i type="string" name="SYSTEM">routine with relax: pwdword</i>
   <i type="logical" name="LCOMPAT"> F  </i>
  </separator>
  <separator name="electronic" >
   <i type="string" name="PREC">acc</i>
   <i name="ENMAX">    600.00000000</i>
   <i name="ENAUG">    535.51400000</i>
   <i name="EDIFF">      0.00000000</i>
   <i type="int" name="IALGO">    58</i>
   <i type="int" name="IWAVPR">    10</i>
   <i type="int" name="NBANDS">    18</i>
   <i type="int" name="NBANDSLOW">    -1</i>
   <i type="int" name="NBANDSHIGH">    -1</i>
   <i name="NELECT">     22.00000000</i>
   <i type="int" name="TURBO">     0</i>
   <i type="int" name="IRESTART">     0</i>
   <i type="int" name="NREBOOT">     0</i>
   <i type="int" name="NMIN">     0</i>
   <i name="EREF">      0.00000000</i>
   <separator name="electronic smearing" >
    <i type="int" name="ISMEAR">     0</i>
    <i name="SIGMA">      0.02000000</i>
    <i name="KSPACING">      0.50000000</i>
    <i type="logical" name="KGAMMA"> T  </i>
    <i type="logical" name="KBLOWUP"> T  </i>
   </separator>
   <separator name="electronic projectors" >
    <i type="logical" name="LREAL"> F  </i>
    <v name="ROPT">      0.00000000      0.00000000</v>
    <i type="int" name="LMAXPAW">  -100</i>
    <i type="int" name="LMAXMIX">     2</i>
    <i type="logical" name="NLSPLINE"> F  </i>
   </separator>
   <separator name="electronic startup" >
    <i type="int" name="ISTART">     0</i>
    <i type="int" name="ICHARG">     2</i>
    <i type="int" name="INIWAV">     1</i>
   </separator>
   <separator name="electronic spin" >
    <i type="int" name="ISPIN">     1</i>
    <i type="logical" name="LNONCOLLINEAR"> F  </i>
    <v name="MAGMOM">      1.00000000      1.00000000      1.00000000      1.00000000      1.00000000      1.00000000      1.00000000</v>
    <i name="NUPDOWN">     -1.00000000</i>
    <i type="logical" name="LSORBIT"> F  </i>
    <v name="SAXIS">      0.00000000      0.00000000      1.00000000</v>
    <i type="logical" name="LSPIRAL"> F  </i>
    <v name="QSPIRAL">      0.00000000      0.00000000      0.00000000</v>
    <i type="logical" name="LZEROZ"> F  </i>
   </separator>
   <separator name="electronic exchange-correlation" >
    <i type="logical" name="LASPH"> T  </i>
    <i type="logical" name="LMETAGGA"> F  </i>
   </separator>
   <separator name="electronic convergence" >
    <i type="int" name="NELM">   100</i>
    <i type="int" name="NELMDL">    -5</i>
    <i type="int" name="NELMIN">     6</i>
    <i name="ENINI">    600.00000000</i>
    <separator name="electronic convergence detail" >
     <i type="logical" name="LDIAG"> T  </i>
     <i type="logical" name="LSUBROT"> F  </i>
     <i name="WEIMIN">      0.00000000</i>
     <i name="EBREAK">      0.00000000</i>
     <i name="DEPER">      0.30000000</i>
     <i type="int" name="NRMM">     4</i>
     <i name="TIME">      0.40000000</i>
    </separator>
   </separator>
   <separator name="electronic mixer" >
    <i name="AMIX">      0.40000000</i>
    <i name="BMIX">      1.00000000</i>
    <i name="AMIN">      0.10000000</i>
    <i name="AMIX_MAG">      1.60000000</i>
    <i name="BMIX_MAG">      1.00000000</i>
    <separator name="electronic mixer details" >
     <i type="int" name="IMIX">     4</i>
     <i type="logical" name="MIXFIRST"> F  </i>
     <i type="int" name="MAXMIX">   -45</i>
     <i name="WC">    100.00000000</i>
     <i type="int" name="INIMIX">     1</i>
     <i type="int" name="MIXPRE">     1</i>
     <i type="int" name="MREMOVE">     5</i>
    </separator>
   </separator>
   <separator name="electronic dipolcorrection" >
    <i type="logical" name="LDIPOL"> F  </i>
    <i type="logical" name="LMONO"> F  </i>
    <i type="int" name="IDIPOL">     0</i>
    <i name="EPSILON">      1.00000000</i>
    <v name="DIPOL">   -100.00000000   -100.00000000   -100.00000000</v>
    <i name="EFIELD">      0.00000000</i>
   </separator>
  </separator>
  <separator name="grids" >
   <i type="int" name="NGX">    36</i>
   <i type="int" name="NGY">    36</i>
   <i type="int" name="NGZ">    36</i>
   <i type="int" name="NGXF">    72</i>
   <i type="int" name="NGYF">    72</i>
   <i type="int" name="NGZF">    72</i>
   <i type="logical" name="ADDGRID"> T  </i>
  </separator>
  <separator name="ionic" >
   <i type="int" name="NSW">     0</i>
   <i type="int" name="IBRION">    -1</i>
   <i type="int" name="MDALGO">     0</i>
   <i type="int" name="ISIF">    -1</i>
   <i name="PSTRESS">      0.00000000</i>
   <i name="EDIFFG">      0.00000001</i>
   <i type="int" name="NFREE">     0</i>
   <i name="POTIM">      0.50000000</i>
   <i name="SMASS">     -3.00000000</i>
   <i name="SCALEE">      1.00000000</i>
  </separator>
  <separator name="ionic md" >
   <i name="TEBEG">      0.00010000</i>
   <i name="TEEND">      0.00010000</i>
   <i type="int" name="NBLOCK">     1</i>
   <i type="int" name="KBLOCK">     1</i>
   <i type="int" name="NPACO">   256</i>
   <i name="APACO">     16.00000000</i>
  </separator>
  <separator name="symmetry" >
   <i type="int" name="ISYM">     2</i>
   <i name="SYMPREC">      0.00001000</i>
  </separator>
  <separator name="dos" >
   <i type="int" name="LORBIT">     0</i>
   <v name="RWIGS">     -1.00000000     -1.00000000</v>
   <i type="int" name="NEDOS">   301</i>
   <i name="EMIN">     10.00000000</i>
   <i name="EMAX">    -10.00000000</i>
   <i name="EFERMI">      0.00000000</i>
  </separator>
  <separator name="writing" >
   <i type="int" name="NWRITE">     2</i>
   <i type="logical" name="LWAVE"> T  </i>
   <i type="logical" name="LDOWNSAMPLE"> F  </i>
   <i type="logical" name="LCHARG"> T  </i>
   <i type="logical" name="LPARD"> F  </i>
   <i type="logical" name="LVTOT"> F  </i>
   <i type="logical" name="LVHAR"> F  </i>
   <i type="logical" name="LELF"> F  </i>
   <i type="logical" name="LOPTICS"> F  </i>
   <v name="STM">      0.00000000      0.00000000      0.00000000      0.00000000      0.00000000      0.00000000      0.00000000</v>
  </separator>
  <separator name="performance" >
   <i type="int" name="NPAR">     6</i>
   <i type="int" name="NSIM">     4</i>
   <i type="int" name="NBLK">    -1</i>
   <i type="logical" name="LPLANE"> T  </i>
   <i type="logical" name="LSCALAPACK"> T  </i>
   <i type="logical" name="LSCAAWARE"> F  </i>
   <i type="logical" name="LSCALU"> F  </i>
   <i type="logical" name="LASYNC"> F  </i>
   <i type="logical" name="LORBITALREAL"> F  </i>
  </separator>
  <separator name="miscellaneous" >
   <i type="int" name="IDIOT">     3</i>
   <i type="int" name="PHON_NSTRUCT">    -1</i>
   <i type="logical" name="LMUSIC"> F  </i>
   <v name="POMASS">     10.81100000     28.08500000</v>
   <v name="DARWINR">      0.00000000      0.00000000</v>
   <v name="DARWINV">      1.00000000      1.00000000</v>
   <i type="logical" name="LCORR"> T  </i>
  </separator>
  <i type="logical" name="GGA_COMPAT"> T  </i>
  <i type="logical" name="LBERRY"> F  </i>
  <i type="int" name="ICORELEVEL">     0</i>
  <i type="logical" name="LDAU"> F  </i>
  <i type="int" name="I_CONSTRAINED_M">     0</i>
  <separator name="electronic exchange-correlation" >
   <i type="string" name="GGA">--</i>
   <i type="int" name="VOSKOWN">     0</i>
   <i type="logical" name="LHFCALC"> F  </i>
   <i type="string" name="PRECFOCK"></i>
   <i type="logical" name="LSYMGRAD"> F  </i>
   <i type="logical" name="LHFONE"> F  </i>
   <i type="logical" name="LRHFCALC"> F  </i>
   <i type="logical" name="LTHOMAS"> F  </i>
   <i type="logical" name="LMODELHF"> F  </i>
   <i type="logical" name="LFOCKACE"> F  </i>
   <i name="ENCUT4O">     -1.00000000</i>
   <i type="int" name="EXXOEP">     0</i>
   <i type="int" name="FOURORBIT">     0</i>
   <i name="AEXX">      0.00000000</i>
   <i name="HFALPHA">      0.00000000</i>
   <i name="MCALPHA">      0.00000000</i>
   <i name="ALDAX">      1.00000000</i>
   <i name="AGGAX">      1.00000000</i>
   <i name="ALDAC">      1.00000000</i>
   <i name="AGGAC">      1.00000000</i>
   <i type="int" name="NKREDX">     1</i>
   <i type="int" name="NKREDY">     1</i>
   <i type="int" name="NKREDZ">     1</i>
   <i type="logical" name="SHIFTRED"> F  </i>
   <i type="logical" name="ODDONLY"> F  </i>
   <i type="logical" name="EVENONLY"> F  </i>
   <i type="int" name="LMAXFOCK">     0</i>
   <i type="int" name="NMAXFOCKAE">     0</i>
   <i type="logical" name="LFOCKAEDFT"> F  </i>
   <i name="HFSCREEN">      0.00000000</i>
   <i name="HFSCREENC">      0.00000000</i>
   <i type="int" name="NBANDSGWLOW">     0</i>
  </separator>
  <separator name="vdW DFT" >
   <i type="logical" name="LUSE_VDW"> F  </i>
   <i name="Zab_VDW">     -0.84910000</i>
   <i name="PARAM1">      0.12340000</i>
   <i name="PARAM2">      1.00000000</i>
   <i name="PARAM3">      0.00000000</i>
  </separator>
  <separator name="model GW" >
   <i type="int" name="MODEL_GW">     0</i>
   <i name="MODEL_EPS0">      6.05371771</i>
   <i name="MODEL_ALPHA">      1.00000000</i>
  </separator>
  <separator name="linear response parameters" >
   <i type="logical" name="LEPSILON"> F  </i>
   <i type="logical" name="LRPA"> F  </i>
   <i type="logical" name="LNABLA"> F  </i>
   <i type="logical" name="LVEL"> F  </i>
   <i type="int" name="KINTER">     0</i>
   <i name="CSHIFT">      0.10000000</i>
   <i name="OMEGAMAX">     -1.00000000</i>
   <i name="DEG_THRESHOLD">      0.00200000</i>
   <i name="RTIME">     -0.10000000</i>
   <i name="WPLASMAI">      0.00000000</i>
   <v name="DFIELD">      0.00000000      0.00000000      0.00000000</v>
   <v name="WPLASMA">      0.00000000      0.00000000      0.00000000      0.00000000      0.00000000      0.00000000      0.00000000      0.00000000      0.00000000</v>
  </separator>
  <separator name="orbital magnetization" >
   <i type="logical" name="NUCIND"> F  </i>
   <v name="MAGPOS">      0.00000000      0.00000000      0.00000000</v>
   <i type="logical" name="LNICSALL"> T  </i>
   <i type="logical" name="ORBITALMAG"> F  </i>
   <i type="logical" name="LMAGBLOCH"> F  </i>
   <i type="logical" name="LCHIMAG"> F  </i>
   <i type="logical" name="LGAUGE"> T  </i>
   <i type="int" name="MAGATOM">     0</i>
   <v name="MAGDIPOL">      0.00000000      0.00000000      0.00000000</v>
   <v name="AVECCONST">      0.00000000      0.00000000      0.00000000</v>
  </separator>
  <separator name="response functions" >
   <i type="logical" name="LFINITE_TEMPERATURE"> F  </i>
   <i type="logical" name="LADDER"> F  </i>
   <i type="logical" name="LRPAFORCE"> F  </i>
   <i type="logical" name="LFXC"> F  </i>
   <i type="logical" name="LHARTREE"> T  </i>
   <i type="int" name="IBSE">     0</i>
   <v type="int" name="KPOINT">    -1     0     0     0</v>
   <i type="logical" name="LTCTC"> F  </i>
   <i type="logical" name="LTCTE"> F  </i>
   <i type="logical" name="LTETE"> F  </i>
   <i type="logical" name="LTRIPLET"> F  </i>
   <i type="logical" name="LFXCEPS"> F  </i>
   <i type="logical" name="LFXHEG"> F  </i>
   <i type="int" name="NATURALO">     2</i>
   <i type="logical" name="LHOLEGF"> F  </i>
   <i type="logical" name="L2ORDER"> F  </i>
   <i type="logical" name="LDMP1"> F  </i>
   <i type="logical" name="LMP2LT"> F  </i>
   <i type="logical" name="LSMP2LT"> F  </i>
   <i type="logical" name="LGWLF"> F  </i>
   <i name="ENCUTGW">     -2.00000000</i>
   <i name="ENCUTGWSOFT">     -2.00000000</i>
   <i name="ENCUTLF">     -1.00000000</i>
   <i type="logical" name="LESF_SPLINES"> F  </i>
   <i type="int" name="LMAXMP2">    -1</i>
   <i name="SCISSOR">      0.00000000</i>
   <i type="int" name="NOMEGA">     0</i>
   <i type="int" name="NOMEGAR">     0</i>
   <i type="int" name="NBANDSGW">    -1</i>
   <i type="int" name="NBANDSO">    -1</i>
   <i type="int" name="NBANDSV">    -1</i>
   <i type="int" name="NELM">   100</i>
   <i type="int" name="NELMHF">     1</i>
   <i type="int" name="DIM">     3</i>
   <i type="int" name="IESPILON">     4</i>
   <i type="int" name="ANTIRES">     0</i>
   <i name="OMEGAMAX">    -30.00000000</i>
   <i name="OMEGAMIN">    -30.00000000</i>
   <i name="OMEGATL">   -200.00000000</i>
   <i type="int" name="OMEGAGRID">     0</i>
   <i name="CSHIFT">     -0.10000000</i>
   <i type="logical" name="LSELFENERGY"> F  </i>
   <i type="logical" name="LSPECTRAL"> F  </i>
   <i type="logical" name="LSPECTRALGW"> F  </i>
   <i type="logical" name="LSINGLES"> F  </i>
   <i type="logical" name="LFERMIGW"> F  </i>
   <i type="logical" name="ODDONLYGW"> F  </i>
   <i type="logical" name="EVENONLYGW"> F  </i>
   <i type="int" name="NKREDLFX">     1</i>
   <i type="int" name="NKREDLFY">     1</i>
   <i type="int" name="NKREDLFZ">     1</i>
   <i type="int" name="MAXMEM">  2800</i>
   <i type="int" name="TELESCOPE">     0</i>
   <i type="int" name="NTAUPAR">    -1</i>
   <i type="int" name="NOMEGAPAR">    -1</i>
   <i name="DAMP_NEWTON">      0.80000001</i>
   <i name="LAMBDA">      1.00000000</i>
  </separator>
  <separator name="External order field" >
   <i name="OFIELD_KAPPA">      0.00000000</i>
   <v name="OFIELD_K">      0.00000000      0.00000000      0.00000000</v>
   <i name="OFIELD_Q6_NEAR">      0.00000000</i>
   <i name="OFIELD_Q6_FAR">      0.00000000</i>
   <i name="OFIELD_A">      0.00000000</i>
  </separator>
 </parameters>
 <atominfo>
  <atoms>       7 </atoms>
  <types>       2 </types>
  <array name="atoms" >
   <dimension dim="1">ion</dimension>
   <field type="string">element</field>
   <field type="int">atomtype</field>
   <set>
    <rc><c>B </c><c>   1</c></rc>
    <rc><c>B </c><c>   1</c></rc>
    <rc><c>B </c><c>   1</c></rc>
    <rc><c>B </c><c>   1</c></rc>
    <rc><c>B </c><c>   1</c></rc>
    <rc><c>B </c><c>   1</c></rc>
    <rc><c>Si</c><c>   2</c></rc>
   </set>
  </array>
  <array name="atomtypes" >
   <dimension dim="1">type</dimension>
   <field type="int">atomspertype</field>
   <field type="string">element</field>
   <field>mass</field>
   <field>valence</field>
   <field type="string">pseudopotential</field>
   <set>
    <rc><c>   6</c><c>B </c><c>     10.81100000</c><c>      3.00000000</c><c>  PAW_PBE B 06Sep2000                   </c></rc>
    <rc><c>   1</c><c>Si</c><c>     28.08500000</c><c>      4.00000000</c><c>  PAW_PBE Si 05Jan2001                  </c></rc>
   </set>
  </array>
 </atominfo>
 <structure name="initialpos" >
  <crystal>
   <varray name="basis" >
    <v>       4.13354800       0.00000000       0.00000000 </v>
    <v>       0.00000000       4.13354800       0.00000000 </v>
    <v>       0.00000000       0.00000000       4.13354800 </v>
   </varray>
   <i name="volume">     70.62670666 </i>
   <varray name="rec_basis" >
    <v>       0.24192292       0.00000000       0.00000000 </v>
    <v>       0.00000000       0.24192292       0.00000000 </v>
    <v>       0.00000000       0.00000000       0.24192292 </v>
   </varray>
  </crystal>
  <varray name="positions" >
   <v>       0.79996000       0.50000000       0.50000000 </v>
   <v>       0.20004000       0.50000000       0.50000000 </v>
   <v>       0.50000000       0.50000000       0.79996000 </v>
   <v>       0.50000000       0.50000000       0.20004000 </v>
   <v>       0.50000000       0.20004000       0.50000000 </v>
   <v>       0.50000000       0.79996000       0.50000000 </v>
   <v>       0.00000000       0.00000000       0.00000000 </v>
  </varray>
 </structure>
 <calculation>
  <scstep>
   <time name="total">    0.72    0.73</time>
   <energy>
    <i name="alphaZ">     45.48040875 </i>
    <i name="ewald">   -553.38080797 </i>
    <i name="hartreedc">    -72.15056820 </i>
    <i name="XCdc">     46.67365235 </i>
    <i name="pawpsdc">    333.74668840 </i>
    <i name="pawaedc">   -325.44844249 </i>
    <i name="eentropy">     -0.00041250 </i>
    <i name="bandstr">     31.94139305 </i>
    <i name="atom">    530.08416407 </i>
    <i name="e_fr_energy">     36.94607544 </i>
    <i name="e_wo_entrp">     36.94648795 </i>
    <i name="e_0_energy">     36.94628170 </i>
   </energy>
  </scstep>
  <scstep>
   <time name="total">    0.57    0.57</time>
   <energy>
    <i name="e_fr_energy">    -56.85771930 </i>
    <i name="e_wo_entrp">    -56.85771930 </i>
    <i name="e_0_energy">    -56.85771930 </i>
   </energy>
  </scstep>
  <scstep>
   <time name="total">    0.57    0.57</time>
   <energy>
    <i name="e_fr_energy">    -60.47466010 </i>
    <i name="e_wo_entrp">    -60.47466010 </i>
    <i name="e_0_energy">    -60.47466010 </i>
   </energy>
  </scstep>
  <scstep>
   <time name="total">    0.55    0.56</time>
   <energy>
    <i name="e_fr_energy">    -60.50180385 </i>
    <i name="e_wo_entrp">    -60.50180385 </i>
    <i name="e_0_energy">    -60.50180385 </i>
   </energy>
  </scstep>
  <scstep>
   <time name="total">    0.68    0.68</time>
   <energy>
    <i name="e_fr_energy">    -60.50210101 </i>
    <i name="e_wo_entrp">    -60.50210101 </i>
    <i name="e_0_energy">    -60.50210101 </i>
   </energy>
  </scstep>
  <scstep>
   <time name="total">    1.28    1.28</time>
   <energy>
    <i name="e_fr_energy">    -40.17619046 </i>
    <i name="e_wo_entrp">    -40.17619046 </i>
    <i name="e_0_energy">    -40.17619046 </i>
   </energy>
  </scstep>
  <scstep>
   <time name="total">    1.26    1.27</time>
   <energy>
    <i name="e_fr_energy">    -47.92533420 </i>
    <i name="e_wo_entrp">    -47.92532681 </i>
    <i name="e_0_energy">    -47.92533051 </i>
   </energy>
  </scstep>
  <scstep>
   <time name="total">    1.26    1.26</time>
   <energy>
    <i name="e_fr_energy">    -49.06727809 </i>
    <i name="e_wo_entrp">    -49.06704212 </i>
    <i name="e_0_energy">    -49.06716011 </i>
   </energy>
  </scstep>
  <scstep>
   <time name="total">    1.29    1.30</time>
   <energy>
    <i name="e_fr_energy">    -49.21822976 </i>
    <i name="e_wo_entrp">    -49.21814360 </i>
    <i name="e_0_energy">    -49.21818668 </i>
   </energy>
  </scstep>
  <scstep>
   <time name="total">    1.25    1.25</time>
   <energy>
    <i name="e_fr_energy">    -49.25861432 </i>
    <i name="e_wo_entrp">    -49.25861367 </i>
    <i name="e_0_energy">    -49.25861400 </i>
   </energy>
  </scstep>
  <scstep>
   <time name="total">    1.26    1.27</time>
   <energy>
    <i name="e_fr_energy">    -49.26989693 </i>
    <i name="e_wo_entrp">    -49.26989690 </i>
    <i name="e_0_energy">    -49.26989692 </i>
   </energy>
  </scstep>
  <scstep>
   <time name="total">    1.26    1.27</time>
   <energy>
    <i name="e_fr_energy">    -49.27262265 </i>
    <i name="e_wo_entrp">    -49.27262264 </i>
    <i name="e_0_energy">    -49.27262265 </i>
   </energy>
  </scstep>
  <scstep>
   <time name="total">    1.31    1.99</time>
   <energy>
    <i name="e_fr_energy">    -49.27310501 </i>
    <i name="e_wo_entrp">    -49.27310499 </i>
    <i name="e_0_energy">    -49.27310500 </i>
   </energy>
  </scstep>
  <scstep>
   <time name="total">    1.29    1.29</time>
   <energy>
    <i name="e_fr_energy">    -49.27319573 </i>
    <i name="e_wo_entrp">    -49.27319569 </i>
    <i name="e_0_energy">    -49.27319571 </i>
   </energy>
  </scstep>
  <scstep>
   <time name="total">    1.26    1.27</time>
   <energy>
    <i name="e_fr_energy">    -49.27321650 </i>
    <i name="e_wo_entrp">    -49.27321646 </i>
    <i name="e_0_energy">    -49.27321648 </i>
   </energy>
  </scstep>
  <scstep>
   <time name="total">    1.26    1.26</time>
   <energy>
    <i name="e_fr_energy">    -49.27322143 </i>
    <i name="e_wo_entrp">    -49.27322138 </i>
    <i name="e_0_energy">    -49.27322141 </i>
   </energy>
  </scstep>
  <scstep>
   <time name="total">    1.30    1.31</time>
   <energy>
    <i name="e_fr_energy">    -49.27322236 </i>
    <i name="e_wo_entrp">    -49.27322231 </i>
    <i name="e_0_energy">    -49.27322234 </i>
   </energy>
  </scstep>
  <scstep>
   <time name="total">    1.25    1.26</time>
   <energy>
    <i name="e_fr_energy">    -49.27322254 </i>
    <i name="e_wo_entrp">    -49.27322250 </i>
    <i name="e_0_energy">    -49.27322252 </i>
   </energy>
  </scstep>
  <scstep>
   <time name="total">    1.27    1.28</time>
   <energy>
    <i name="e_fr_energy">    -49.27322260 </i>
    <i name="e_wo_entrp">    -49.27322255 </i>
    <i name="e_0_energy">    -49.27322257 </i>
   </energy>
  </scstep>
  <scstep>
   <time name="total">    1.25    1.26</time>
   <energy>
    <i name="e_fr_energy">    -49.27322260 </i>
    <i name="e_wo_entrp">    -49.27322256 </i>
    <i name="e_0_energy">    -49.27322258 </i>
   </energy>
  </scstep>
  <scstep>
   <time name="total">    1.26    1.27</time>
   <energy>
    <i name="e_fr_energy">    -49.27322261 </i>
    <i name="e_wo_entrp">    -49.27322257 </i>
    <i name="e_0_energy">    -49.27322259 </i>
   </energy>
  </scstep>
  <scstep>
   <time name="total">    1.25    1.26</time>
   <energy>
    <i name="e_fr_energy">    -49.27322262 </i>
    <i name="e_wo_entrp">    -49.27322257 </i>
    <i name="e_0_energy">    -49.27322259 </i>
   </energy>
  </scstep>
  <scstep>
   <time name="total">    1.27    1.27</time>
   <energy>
    <i name="e_fr_energy">    -49.27322262 </i>
    <i name="e_wo_entrp">    -49.27322257 </i>
    <i name="e_0_energy">    -49.27322260 </i>
   </energy>
  </scstep>
  <scstep>
   <time name="total">    1.23    1.24</time>
   <energy>
    <i name="e_fr_energy">    -49.27322262 </i>
    <i name="e_wo_entrp">    -49.27322257 </i>
    <i name="e_0_energy">    -49.27322260 </i>
   </energy>
  </scstep>
  <scstep>
   <time name="total">    1.35    1.36</time>
   <energy>
    <i name="alphaZ">     45.48040875 </i>
    <i name="ewald">   -553.38080797 </i>
    <i name="hartreedc">   -108.01898261 </i>
    <i name="XCdc">     49.76289216 </i>
    <i name="pawpsdc">   1901.04566075 </i>
    <i name="pawaedc">  -1893.26863816 </i>
    <i name="eentropy">     -0.00000004 </i>
    <i name="bandstr">    -20.97791957 </i>
    <i name="atom">    530.08416407 </i>
    <i name="e_fr_energy">    -49.27322262 </i>
    <i name="e_wo_entrp">    -49.27322257 </i>
    <i name="e_0_energy">    -49.27322260 </i>
   </energy>
  </scstep>
  <structure>
   <crystal>
    <varray name="basis" >
     <v>       4.13354800       0.00000000       0.00000000 </v>
     <v>       0.00000000       4.13354800       0.00000000 </v>
     <v>       0.00000000       0.00000000       4.13354800 </v>
    </varray>
    <i name="volume">     70.62670666 </i>
    <varray name="rec_basis" >
     <v>       0.24192292       0.00000000       0.00000000 </v>
     <v>       0.00000000       0.24192292       0.00000000 </v>
     <v>       0.00000000       0.00000000       0.24192292 </v>
    </varray>
   </crystal>
   <varray name="positions" >
    <v>       0.79996000       0.50000000       0.50000000 </v>
    <v>       0.20004000       0.50000000       0.50000000 </v>
    <v>       0.50000000       0.50000000       0.79996000 </v>
    <v>       0.50000000       0.50000000       0.20004000 </v>
    <v>       0.50000000       0.20004000       0.50000000 </v>
    <v>       0.50000000       0.79996000       0.50000000 </v>
    <v>       0.00000000       0.00000000       0.00000000 </v>
   </varray>
  </structure>
  <varray name="forces" >
   <v>       0.00000000       0.00000000       0.00000000 </v>
   <v>       0.00000000       0.00000000       0.00000000 </v>
   <v>       0.00000000       0.00000000       0.00000000 </v>
   <v>       0.00000000       0.00000000       0.00000000 </v>
   <v>       0.00000000       0.00000000       0.00000000 </v>
   <v>       0.00000000       0.00000000       0.00000000 </v>
   <v>       0.00000000       0.00000000       0.00000000 </v>
  </varray>
  <varray name="stress" >
   <v>       0.00000000       0.00000000       0.00000000 </v>
   <v>       0.00000000       0.00000000       0.00000000 </v>
   <v>       0.00000000       0.00000000       0.00000000 </v>
  </varray>
  <energy>
   <i name="e_fr_energy">    -49.27322262 </i>
   <i name="e_wo_entrp">    -49.27322257 </i>
   <i name="e_0_energy">    -49.27322260 </i>
  </energy>
  <time name="totalsc">   29.08   29.97</time>
  <eigenvalues>
   <array>
    <dimension dim="1">band</dimension>
    <dimension dim="2">kpoint</dimension>
    <dimension dim="3">spin</dimension>
    <field>eigene</field>
    <field>occ</field>
    <set>
     <set comment="spin 1">
      <set comment="kpoint 1">
       <r>  -10.5363    1.0000 </r>
       <r>   -4.1302    1.0000 </r>
       <r>   -2.2595    1.0000 </r>
       <r>   -2.2595    1.0000 </r>
       <r>   -2.2595    1.0000 </r>
       <r>   -0.5398    1.0000 </r>
       <r>   -0.5398    1.0000 </r>
       <r>    1.3805    1.0000 </r>
       <r>    5.0550    1.0000 </r>
       <r>    5.0550    1.0000 </r>
       <r>    5.0550    1.0000 </r>
       <r>    6.4849    0.0000 </r>
       <r>    6.4849    0.0000 </r>
       <r>    6.4849    0.0000 </r>
       <r>    8.2332    0.0000 </r>
       <r>    8.2332    0.0000 </r>
       <r>    8.2332    0.0000 </r>
       <r>   12.0954    0.0000 </r>
      </set>
      <set comment="kpoint 2">
       <r>  -10.4862    1.0000 </r>
       <r>   -4.3968    1.0000 </r>
       <r>   -2.4119    1.0000 </r>
       <r>   -2.1877    1.0000 </r>
       <r>   -2.1877    1.0000 </r>
       <r>   -0.5076    1.0000 </r>
       <r>    0.0557    1.0000 </r>
       <r>    1.2025    1.0000 </r>
       <r>    4.3871    1.0000 </r>
       <r>    4.3871    1.0000 </r>
       <r>    5.0809    1.0000 </r>
       <r>    6.5597    0.0000 </r>
       <r>    6.8093    0.0000 </r>
       <r>    6.8093    0.0000 </r>
       <r>    7.8529    0.0000 </r>
       <r>    8.6817    0.0000 </r>
       <r>    8.6817    0.0000 </r>
       <r>   12.3250    0.0000 </r>
      </set>
      <set comment="kpoint 3">
       <r>  -10.3493    1.0000 </r>
       <r>   -5.0310    1.0000 </r>
       <r>   -2.4285    1.0000 </r>
       <r>   -1.9854    1.0000 </r>
       <r>   -1.9854    1.0000 </r>
       <r>   -0.4227    1.0000 </r>
       <r>    0.7492    1.0000 </r>
       <r>    1.2104    1.0000 </r>
       <r>    3.3188    1.0000 </r>
       <r>    3.3188    1.0000 </r>
       <r>    5.1484    1.0000 </r>
       <r>    6.7247    0.0000 </r>
       <r>    7.1254    0.0000 </r>
       <r>    7.1829    0.0000 </r>
       <r>    7.1829    0.0000 </r>
       <r>    9.5260    0.0000 </r>
       <r>    9.5260    0.0000 </r>
       <r>   12.8862    0.0000 </r>
      </set>
      <set comment="kpoint 4">
       <r>  -10.1711    1.0000 </r>
       <r>   -5.6729    1.0000 </r>
       <r>   -2.2462    1.0000 </r>
       <r>   -1.7032    1.0000 </r>
       <r>   -1.7032    1.0000 </r>
       <r>   -0.3195    1.0000 </r>
       <r>    0.2233    1.0000 </r>
       <r>    2.3573    1.0000 </r>
       <r>    2.3859    1.0000 </r>
       <r>    2.3859    1.0000 </r>
       <r>    5.2284    1.0000 </r>
       <r>    6.4882    0.0000 </r>
       <r>    6.8737    0.0000 </r>
       <r>    7.5335    0.0000 </r>
       <r>    7.5335    0.0000 </r>
       <r>    9.9137    0.0000 </r>
       <r>    9.9137    0.0000 </r>
       <r>   13.2584    0.0000 </r>
      </set>
      <set comment="kpoint 5">
       <r>  -10.0371    1.0000 </r>
       <r>   -6.0657    1.0000 </r>
       <r>   -2.0428    1.0000 </r>
       <r>   -1.4685    1.0000 </r>
       <r>   -1.4685    1.0000 </r>
       <r>   -0.2477    1.0000 </r>
       <r>   -0.1669    1.0000 </r>
       <r>    1.8124    1.0000 </r>
       <r>    1.8124    1.0000 </r>
       <r>    3.1209    1.0000 </r>
       <r>    5.2827    1.0000 </r>
       <r>    6.1289    0.0000 </r>
       <r>    6.9434    0.0000 </r>
       <r>    7.8088    0.0000 </r>
       <r>    7.8088    0.0000 </r>
       <r>    9.8267    0.0000 </r>
       <r>    9.8267    0.0000 </r>
       <r>   13.0669    0.0000 </r>
      </set>
      <set comment="kpoint 6">
       <r>  -10.4371    1.0000 </r>
       <r>   -4.5365    1.0000 </r>
       <r>   -2.8783    1.0000 </r>
       <r>   -2.1162    1.0000 </r>
       <r>   -1.8874    1.0000 </r>
       <r>   -0.1207    1.0000 </r>
       <r>    0.2528    1.0000 </r>
       <r>    0.9916    1.0000 </r>
       <r>    4.0001    1.0000 </r>
       <r>    4.3656    1.0000 </r>
       <r>    4.5108    1.0000 </r>
       <r>    6.3688    0.0000 </r>
       <r>    7.1331    0.0000 </r>
       <r>    7.1520    0.0000 </r>
       <r>    8.2321    0.0000 </r>
       <r>    8.3657    0.0000 </r>
       <r>    9.0615    0.0000 </r>
       <r>   12.7041    0.0000 </r>
      </set>
      <set comment="kpoint 7">
       <r>  -10.3030    1.0000 </r>
       <r>   -5.0134    1.0000 </r>
       <r>   -3.0893    1.0000 </r>
       <r>   -1.9146    1.0000 </r>
       <r>   -1.6423    1.0000 </r>
       <r>    0.0930    1.0000 </r>
       <r>    0.4625    1.0000 </r>
       <r>    1.2599    1.0000 </r>
       <r>    3.2267    1.0000 </r>
       <r>    3.3774    1.0000 </r>
       <r>    4.5703    1.0000 </r>
       <r>    6.3549    0.0000 </r>
       <r>    7.4094    0.0000 </r>
       <r>    7.4544    0.0000 </r>
       <r>    7.5706    0.0000 </r>
       <r>    9.2081    0.0000 </r>
       <r>    9.8739    0.0000 </r>
       <r>   13.1825    0.0000 </r>
      </set>
      <set comment="kpoint 8">
       <r>  -10.1294    1.0000 </r>
       <r>   -5.5996    1.0000 </r>
       <r>   -2.9474    1.0000 </r>
       <r>   -1.6337    1.0000 </r>
       <r>   -1.4011    1.0000 </r>
       <r>   -0.1589    1.0000 </r>
       <r>    0.2371    1.0000 </r>
       <r>    2.3322    1.0000 </r>
       <r>    2.4528    1.0000 </r>
       <r>    2.5418    1.0000 </r>
       <r>    4.7255    1.0000 </r>
       <r>    6.4825    0.0000 </r>
       <r>    6.9393    0.0000 </r>
       <r>    7.5174    0.0000 </r>
       <r>    7.5961    0.0000 </r>
       <r>    9.8563    0.0000 </r>
       <r>   10.3428    0.0000 </r>
       <r>   13.4502    0.0000 </r>
      </set>
      <set comment="kpoint 9">
       <r>   -9.9993    1.0000 </r>
       <r>   -5.9753    1.0000 </r>
       <r>   -2.7370    1.0000 </r>
       <r>   -1.4003    1.0000 </r>
       <r>   -1.2202    1.0000 </r>
       <r>   -0.6167    1.0000 </r>
       <r>    0.3470    1.0000 </r>
       <r>    1.8830    1.0000 </r>
       <r>    2.0041    1.0000 </r>
       <r>    3.1552    1.0000 </r>
       <r>    4.8392    1.0000 </r>
       <r>    6.5274    0.0000 </r>
       <r>    6.6636    0.0000 </r>
       <r>    7.5452    0.0000 </r>
       <r>    7.6191    0.0000 </r>
       <r>   10.0487    0.0000 </r>
       <r>   10.4018    0.0000 </r>
       <r>   13.2021    0.0000 </r>
      </set>
      <set comment="kpoint 10">
       <r>  -10.1776    1.0000 </r>
       <r>   -5.0730    1.0000 </r>
       <r>   -3.7290    1.0000 </r>
       <r>   -1.7153    1.0000 </r>
       <r>   -1.4048    1.0000 </r>
       <r>   -0.2226    1.0000 </r>
       <r>    1.0127    1.0000 </r>
       <r>    1.5559    1.0000 </r>
       <r>    2.9843    1.0000 </r>
       <r>    3.4713    1.0000 </r>
       <r>    3.6315    1.0000 </r>
       <r>    5.9976    0.0000 </r>
       <r>    7.4206    0.0000 </r>
       <r>    7.5129    0.0000 </r>
       <r>    8.6135    0.0000 </r>
       <r>    8.6378    0.0000 </r>
       <r>   10.7691    0.0000 </r>
       <r>   13.6017    0.0000 </r>
      </set>
      <set comment="kpoint 11">
       <r>  -10.0169    1.0000 </r>
       <r>   -5.4025    1.0000 </r>
       <r>   -3.8150    1.0000 </r>
       <r>   -1.4382    1.0000 </r>
       <r>   -1.2315    1.0000 </r>
       <r>   -0.9654    1.0000 </r>
       <r>    1.3565    1.0000 </r>
       <r>    2.4321    1.0000 </r>
       <r>    2.6398    1.0000 </r>
       <r>    2.6983    1.0000 </r>
       <r>    3.7800    1.0000 </r>
       <r>    5.9304    0.0000 </r>
       <r>    7.1424    0.0000 </r>
       <r>    7.1571    0.0000 </r>
       <r>    8.2170    0.0000 </r>
       <r>    9.7732    0.0000 </r>
       <r>   11.4976    0.0000 </r>
       <r>   14.0956    0.0000 </r>
      </set>
      <set comment="kpoint 12">
       <r>   -9.8981    1.0000 </r>
       <r>   -5.7095    1.0000 </r>
       <r>   -3.6313    1.0000 </r>
       <r>   -1.5464    1.0000 </r>
       <r>   -1.2087    1.0000 </r>
       <r>   -1.0661    1.0000 </r>
       <r>    1.5026    1.0000 </r>
       <r>    2.0817    1.0000 </r>
       <r>    2.3506    1.0000 </r>
       <r>    3.2288    1.0000 </r>
       <r>    3.9537    1.0000 </r>
       <r>    6.0665    0.0000 </r>
       <r>    6.7375    0.0000 </r>
       <r>    6.8858    0.0000 </r>
       <r>    8.0218    0.0000 </r>
       <r>   10.4834    0.0000 </r>
       <r>   11.7543    0.0000 </r>
       <r>   13.4362    0.0000 </r>
      </set>
      <set comment="kpoint 13">
       <r>   -9.8749    1.0000 </r>
       <r>   -5.2198    1.0000 </r>
       <r>   -4.3531    1.0000 </r>
       <r>   -1.8825    1.0000 </r>
       <r>   -1.1672    1.0000 </r>
       <r>   -1.0455    1.0000 </r>
       <r>    2.3317    1.0000 </r>
       <r>    2.7062    1.0000 </r>
       <r>    2.7740    1.0000 </r>
       <r>    2.8533    1.0000 </r>
       <r>    2.9505    1.0000 </r>
       <r>    5.6024    0.0000 </r>
       <r>    6.5753    0.0000 </r>
       <r>    6.5870    0.0000 </r>
       <r>    9.6500    0.0000 </r>
       <r>    9.6625    0.0000 </r>
       <r>   12.7557    0.0000 </r>
       <r>   13.6209    0.0000 </r>
      </set>
      <set comment="kpoint 14">
       <r>   -9.7718    1.0000 </r>
       <r>   -5.2936    1.0000 </r>
       <r>   -4.3254    1.0000 </r>
       <r>   -2.5155    1.0000 </r>
       <r>   -0.9562    1.0000 </r>
       <r>   -0.9442    1.0000 </r>
       <r>    2.3571    1.0000 </r>
       <r>    2.6040    1.0000 </r>
       <r>    2.7310    1.0000 </r>
       <r>    3.1126    1.0000 </r>
       <r>    3.3023    1.0000 </r>
       <r>    5.5962    0.0000 </r>
       <r>    6.0762    0.0000 </r>
       <r>    6.1650    0.0000 </r>
       <r>    9.5539    0.0000 </r>
       <r>   10.8462    0.0000 </r>
       <r>   13.0974    0.0000 </r>
       <r>   13.3741    0.0000 </r>
      </set>
      <set comment="kpoint 15">
       <r>   -9.6812    1.0000 </r>
       <r>   -4.8687    1.0000 </r>
       <r>   -4.6756    1.0000 </r>
       <r>   -3.2734    1.0000 </r>
       <r>   -0.8862    1.0000 </r>
       <r>   -0.7276    1.0000 </r>
       <r>    2.5772    1.0000 </r>
       <r>    2.5933    1.0000 </r>
       <r>    2.9761    1.0000 </r>
       <r>    3.3270    1.0000 </r>
       <r>    3.3606    1.0000 </r>
       <r>    5.4006    0.0000 </r>
       <r>    5.5542    0.0000 </r>
       <r>    5.6823    0.0000 </r>
       <r>   11.0497    0.0000 </r>
       <r>   11.0820    0.0000 </r>
       <r>   12.4423    0.0000 </r>
       <r>   13.4477    0.0000 </r>
      </set>
      <set comment="kpoint 16">
       <r>  -10.3889    1.0000 </r>
       <r>   -4.6242    1.0000 </r>
       <r>   -2.8111    1.0000 </r>
       <r>   -2.8111    1.0000 </r>
       <r>   -1.2671    1.0000 </r>
       <r>    0.2869    1.0000 </r>
       <r>    0.2869    1.0000 </r>
       <r>    0.7837    1.0000 </r>
       <r>    3.8759    1.0000 </r>
       <r>    3.8759    1.0000 </r>
       <r>    4.2925    1.0000 </r>
       <r>    6.7784    0.0000 </r>
       <r>    6.7784    0.0000 </r>
       <r>    7.4458    0.0000 </r>
       <r>    8.5310    0.0000 </r>
       <r>    8.7458    0.0000 </r>
       <r>    8.7458    0.0000 </r>
       <r>   13.2127    0.0000 </r>
      </set>
      <set comment="kpoint 17">
       <r>  -10.2577    1.0000 </r>
       <r>   -4.9931    1.0000 </r>
       <r>   -3.1799    1.0000 </r>
       <r>   -2.6230    1.0000 </r>
       <r>   -0.8611    1.0000 </r>
       <r>    0.2506    1.0000 </r>
       <r>    0.3788    1.0000 </r>
       <r>    1.3063    1.0000 </r>
       <r>    2.8310    1.0000 </r>
       <r>    3.5463    1.0000 </r>
       <r>    4.1602    1.0000 </r>
       <r>    6.6575    0.0000 </r>
       <r>    7.2555    0.0000 </r>
       <r>    7.4018    0.0000 </r>
       <r>    7.9374    0.0000 </r>
       <r>    9.4616    0.0000 </r>
       <r>    9.6347    0.0000 </r>
       <r>   13.4745    0.0000 </r>
      </set>
      <set comment="kpoint 18">
       <r>  -10.0883    1.0000 </r>
       <r>   -5.5265    1.0000 </r>
       <r>   -3.0979    1.0000 </r>
       <r>   -2.3659    1.0000 </r>
       <r>   -0.5655    1.0000 </r>
       <r>   -0.3813    1.0000 </r>
       <r>    0.4997    1.0000 </r>
       <r>    1.9131    1.0000 </r>
       <r>    2.3883    1.0000 </r>
       <r>    3.0640    1.0000 </r>
       <r>    4.2108    1.0000 </r>
       <r>    6.6851    0.0000 </r>
       <r>    7.1417    0.0000 </r>
       <r>    7.2675    0.0000 </r>
       <r>    7.6787    0.0000 </r>
       <r>    9.9997    0.0000 </r>
       <r>   10.4911    0.0000 </r>
       <r>   13.7307    0.0000 </r>
      </set>
      <set comment="kpoint 19">
       <r>   -9.9621    1.0000 </r>
       <r>   -5.8855    1.0000 </r>
       <r>   -2.8960    1.0000 </r>
       <r>   -2.1589    1.0000 </r>
       <r>   -0.8602    1.0000 </r>
       <r>   -0.3494    1.0000 </r>
       <r>    0.6078    1.0000 </r>
       <r>    1.3343    1.0000 </r>
       <r>    2.6058    1.0000 </r>
       <r>    3.2168    1.0000 </r>
       <r>    4.3119    1.0000 </r>
       <r>    6.7508    0.0000 </r>
       <r>    6.8826    0.0000 </r>
       <r>    6.9226    0.0000 </r>
       <r>    7.9437    0.0000 </r>
       <r>   10.0088    0.0000 </r>
       <r>   10.9327    0.0000 </r>
       <r>   13.3449    0.0000 </r>
      </set>
      <set comment="kpoint 20">
       <r>  -10.1350    1.0000 </r>
       <r>   -5.0343    1.0000 </r>
       <r>   -3.6618    1.0000 </r>
       <r>   -2.6643    1.0000 </r>
       <r>   -0.4058    1.0000 </r>
       <r>   -0.3016    1.0000 </r>
       <r>    1.1255    1.0000 </r>
       <r>    1.5715    1.0000 </r>
       <r>    2.4321    1.0000 </r>
       <r>    3.0432    1.0000 </r>
       <r>    3.9760    1.0000 </r>
       <r>    6.5590    0.0000 </r>
       <r>    6.9832    0.0000 </r>
       <r>    7.5510    0.0000 </r>
       <r>    8.8495    0.0000 </r>
       <r>    8.9518    0.0000 </r>
       <r>   10.4106    0.0000 </r>
       <r>   13.8594    0.0000 </r>
      </set>
      <set comment="kpoint 21">
       <r>   -9.9781    1.0000 </r>
       <r>   -5.3299    1.0000 </r>
       <r>   -3.7671    1.0000 </r>
       <r>   -2.4439    1.0000 </r>
       <r>   -1.0430    1.0000 </r>
       <r>   -0.0981    1.0000 </r>
       <r>    1.3678    1.0000 </r>
       <r>    1.7904    1.0000 </r>
       <r>    2.4279    1.0000 </r>
       <r>    3.0117    1.0000 </r>
       <r>    3.7150    1.0000 </r>
       <r>    6.3850    0.0000 </r>
       <r>    6.5860    0.0000 </r>
       <r>    7.6583    0.0000 </r>
       <r>    8.4325    0.0000 </r>
       <r>    9.9275    0.0000 </r>
       <r>   11.2964    0.0000 </r>
       <r>   14.0406    0.0000 </r>
      </set>
      <set comment="kpoint 22">
       <r>   -9.8626    1.0000 </r>
       <r>   -5.6218    1.0000 </r>
       <r>   -3.5941    1.0000 </r>
       <r>   -2.2496    1.0000 </r>
       <r>   -1.5709    1.0000 </r>
       <r>    0.0768    1.0000 </r>
       <r>    1.1745    1.0000 </r>
       <r>    1.5839    1.0000 </r>
       <r>    2.8749    1.0000 </r>
       <r>    3.3710    1.0000 </r>
       <r>    3.4589    1.0000 </r>
       <r>    6.0854    0.0000 </r>
       <r>    6.6059    0.0000 </r>
       <r>    7.5090    0.0000 </r>
       <r>    8.2975    0.0000 </r>
       <r>   10.4151    0.0000 </r>
       <r>   11.8727    0.0000 </r>
       <r>   13.5397    0.0000 </r>
      </set>
      <set comment="kpoint 23">
       <r>   -9.8391    1.0000 </r>
       <r>   -5.1443    1.0000 </r>
       <r>   -4.2849    1.0000 </r>
       <r>   -2.2605    1.0000 </r>
       <r>   -1.8435    1.0000 </r>
       <r>    0.1351    1.0000 </r>
       <r>    1.7041    1.0000 </r>
       <r>    2.2210    1.0000 </r>
       <r>    2.4225    1.0000 </r>
       <r>    2.8888    1.0000 </r>
       <r>    3.5499    1.0000 </r>
       <r>    5.9593    0.0000 </r>
       <r>    6.2238    0.0000 </r>
       <r>    7.4393    0.0000 </r>
       <r>    9.7808    0.0000 </r>
       <r>    9.7956    0.0000 </r>
       <r>   12.3882    0.0000 </r>
       <r>   13.6190    0.0000 </r>
      </set>
      <set comment="kpoint 24">
       <r>   -9.7385    1.0000 </r>
       <r>   -5.2103    1.0000 </r>
       <r>   -4.2624    1.0000 </r>
       <r>   -2.4655    1.0000 </r>
       <r>   -2.0835    1.0000 </r>
       <r>    0.2933    1.0000 </r>
       <r>    1.4268    1.0000 </r>
       <r>    2.3366    1.0000 </r>
       <r>    2.7245    1.0000 </r>
       <r>    3.0725    1.0000 </r>
       <r>    3.4919    1.0000 </r>
       <r>    5.6922    0.0000 </r>
       <r>    6.2271    0.0000 </r>
       <r>    7.0873    0.0000 </r>
       <r>    9.7023    0.0000 </r>
       <r>   10.8670    0.0000 </r>
       <r>   12.9207    0.0000 </r>
       <r>   13.2846    0.0000 </r>
      </set>
      <set comment="kpoint 25">
       <r>   -9.6499    1.0000 </r>
       <r>   -4.7934    1.0000 </r>
       <r>   -4.6067    1.0000 </r>
       <r>   -3.1914    1.0000 </r>
       <r>   -1.9423    1.0000 </r>
       <r>    0.4504    1.0000 </r>
       <r>    1.7790    1.0000 </r>
       <r>    1.9353    1.0000 </r>
       <r>    2.6474    1.0000 </r>
       <r>    3.4816    1.0000 </r>
       <r>    3.5038    1.0000 </r>
       <r>    5.7760    0.0000 </r>
       <r>    6.0191    0.0000 </r>
       <r>    6.5174    0.0000 </r>
       <r>   11.1140    0.0000 </r>
       <r>   11.1395    0.0000 </r>
       <r>   12.4089    0.0000 </r>
       <r>   13.4043    0.0000 </r>
      </set>
      <set comment="kpoint 26">
       <r>  -10.0198    1.0000 </r>
       <r>   -4.9861    1.0000 </r>
       <r>   -3.4739    1.0000 </r>
       <r>   -3.4739    1.0000 </r>
       <r>   -0.7058    1.0000 </r>
       <r>    0.5261    1.0000 </r>
       <r>    1.5305    1.0000 </r>
       <r>    1.5305    1.0000 </r>
       <r>    2.1418    1.0000 </r>
       <r>    2.1418    1.0000 </r>
       <r>    4.1687    1.0000 </r>
       <r>    6.4846    0.0000 </r>
       <r>    7.3461    0.0000 </r>
       <r>    7.3461    0.0000 </r>
       <r>    9.4177    0.0000 </r>
       <r>    9.8416    0.0000 </r>
       <r>    9.8416    0.0000 </r>
       <r>   14.1348    0.0000 </r>
      </set>
      <set comment="kpoint 27">
       <r>   -9.8740    1.0000 </r>
       <r>   -5.1331    1.0000 </r>
       <r>   -3.7473    1.0000 </r>
       <r>   -3.2163    1.0000 </r>
       <r>   -1.2965    1.0000 </r>
       <r>    0.9203    1.0000 </r>
       <r>    0.9758    1.0000 </r>
       <r>    1.8970    1.0000 </r>
       <r>    1.9102    1.0000 </r>
       <r>    2.7338    1.0000 </r>
       <r>    3.8019    1.0000 </r>
       <r>    6.1364    0.0000 </r>
       <r>    7.2149    0.0000 </r>
       <r>    7.8133    0.0000 </r>
       <r>    9.1637    0.0000 </r>
       <r>   10.3270    0.0000 </r>
       <r>   11.0837    0.0000 </r>
       <r>   13.7767    0.0000 </r>
      </set>
      <set comment="kpoint 28">
       <r>   -9.7678    1.0000 </r>
       <r>   -5.3649    1.0000 </r>
       <r>   -3.6252    1.0000 </r>
       <r>   -3.0079    1.0000 </r>
       <r>   -1.7885    1.0000 </r>
       <r>    0.4713    1.0000 </r>
       <r>    1.0689    1.0000 </r>
       <r>    1.9259    1.0000 </r>
       <r>    2.3407    1.0000 </r>
       <r>    2.9809    1.0000 </r>
       <r>    3.6060    1.0000 </r>
       <r>    5.9344    0.0000 </r>
       <r>    7.1896    0.0000 </r>
       <r>    7.9703    0.0000 </r>
       <r>    8.9931    0.0000 </r>
       <r>   10.5739    0.0000 </r>
       <r>   12.1685    0.0000 </r>
       <r>   13.4143    0.0000 </r>
      </set>
      <set comment="kpoint 29">
       <r>   -9.7438    1.0000 </r>
       <r>   -4.9329    1.0000 </r>
       <r>   -4.0935    1.0000 </r>
       <r>   -3.1989    1.0000 </r>
       <r>   -1.8401    1.0000 </r>
       <r>    0.7099    1.0000 </r>
       <r>    1.2284    1.0000 </r>
       <r>    1.4400    1.0000 </r>
       <r>    2.5225    1.0000 </r>
       <r>    2.9468    1.0000 </r>
       <r>    3.3200    1.0000 </r>
       <r>    6.2370    0.0000 </r>
       <r>    7.2721    0.0000 </r>
       <r>    7.9566    0.0000 </r>
       <r>   10.2107    0.0000 </r>
       <r>   10.3416    0.0000 </r>
       <r>   11.7964    0.0000 </r>
       <r>   13.3625    0.0000 </r>
      </set>
      <set comment="kpoint 30">
       <r>   -9.6503    1.0000 </r>
       <r>   -4.9688    1.0000 </r>
       <r>   -4.0919    1.0000 </r>
       <r>   -3.0244    1.0000 </r>
       <r>   -2.3561    1.0000 </r>
       <r>    0.3864    1.0000 </r>
       <r>    1.1909    1.0000 </r>
       <r>    1.7553    1.0000 </r>
       <r>    2.3727    1.0000 </r>
       <r>    2.9138    1.0000 </r>
       <r>    3.5955    1.0000 </r>
       <r>    6.3163    0.0000 </r>
       <r>    7.2518    0.0000 </r>
       <r>    7.9276    0.0000 </r>
       <r>   10.1913    0.0000 </r>
       <r>   11.0468    0.0000 </r>
       <r>   12.6242    0.0000 </r>
       <r>   13.0648    0.0000 </r>
      </set>
      <set comment="kpoint 31">
       <r>   -9.5667    1.0000 </r>
       <r>   -4.5791    1.0000 </r>
       <r>   -4.4130    1.0000 </r>
       <r>   -2.9599    1.0000 </r>
       <r>   -2.8798    1.0000 </r>
       <r>    0.6626    1.0000 </r>
       <r>    0.8925    1.0000 </r>
       <r>    1.6208    1.0000 </r>
       <r>    1.8435    1.0000 </r>
       <r>    3.5960    1.0000 </r>
       <r>    3.6275    1.0000 </r>
       <r>    6.7740    0.0000 </r>
       <r>    7.1625    0.0000 </r>
       <r>    7.5628    0.0000 </r>
       <r>   11.3656    0.0000 </r>
       <r>   11.3863    0.0000 </r>
       <r>   12.2602    0.0000 </r>
       <r>   13.2953    0.0000 </r>
      </set>
      <set comment="kpoint 32">
       <r>   -9.6256    1.0000 </r>
       <r>   -4.6682    1.0000 </r>
       <r>   -3.8297    1.0000 </r>
       <r>   -3.8297    1.0000 </r>
       <r>   -2.0356    1.0000 </r>
       <r>    0.3369    1.0000 </r>
       <r>    0.3369    1.0000 </r>
       <r>    1.8757    1.0000 </r>
       <r>    2.8232    1.0000 </r>
       <r>    3.0293    1.0000 </r>
       <r>    3.0293    1.0000 </r>
       <r>    6.7989    0.0000 </r>
       <r>    8.0091    0.0000 </r>
       <r>    8.0091    0.0000 </r>
       <r>   10.8691    0.0000 </r>
       <r>   11.4426    0.0000 </r>
       <r>   11.4426    0.0000 </r>
       <r>   12.8652    0.0000 </r>
      </set>
      <set comment="kpoint 33">
       <r>   -9.5415    1.0000 </r>
       <r>   -4.6063    1.0000 </r>
       <r>   -3.9477    1.0000 </r>
       <r>   -3.6143    1.0000 </r>
       <r>   -2.3783    1.0000 </r>
       <r>   -0.2081    1.0000 </r>
       <r>    0.4495    1.0000 </r>
       <r>    1.4256    1.0000 </r>
       <r>    2.7829    1.0000 </r>
       <r>    3.0869    1.0000 </r>
       <r>    3.6616    1.0000 </r>
       <r>    7.1269    0.0000 </r>
       <r>    7.9066    0.0000 </r>
       <r>    8.3033    0.0000 </r>
       <r>   11.0935    0.0000 </r>
       <r>   11.5803    0.0000 </r>
       <r>   12.3133    0.0000 </r>
       <r>   12.8705    0.0000 </r>
      </set>
      <set comment="kpoint 34">
       <r>   -9.4647    1.0000 </r>
       <r>   -4.2741    1.0000 </r>
       <r>   -4.1451    1.0000 </r>
       <r>   -3.5672    1.0000 </r>
       <r>   -2.6315    1.0000 </r>
       <r>   -0.2031    1.0000 </r>
       <r>   -0.0157    1.0000 </r>
       <r>    0.6563    1.0000 </r>
       <r>    2.9734    1.0000 </r>
       <r>    3.6903    1.0000 </r>
       <r>    3.7257    1.0000 </r>
       <r>    7.7015    0.0000 </r>
       <r>    8.0782    0.0000 </r>
       <r>    8.2727    0.0000 </r>
       <r>   11.8612    0.0000 </r>
       <r>   11.9716    0.0000 </r>
       <r>   12.1084    0.0000 </r>
       <r>   13.2245    0.0000 </r>
      </set>
      <set comment="kpoint 35">
       <r>   -9.3930    1.0000 </r>
       <r>   -4.0183    1.0000 </r>
       <r>   -3.9252    1.0000 </r>
       <r>   -3.9252    1.0000 </r>
       <r>   -2.3825    1.0000 </r>
       <r>   -0.5693    1.0000 </r>
       <r>   -0.5693    1.0000 </r>
       <r>   -0.1508    1.0000 </r>
       <r>    3.7117    1.0000 </r>
       <r>    3.7867    1.0000 </r>
       <r>    3.7867    1.0000 </r>
       <r>    8.2648    0.0000 </r>
       <r>    8.4823    0.0000 </r>
       <r>    8.4823    0.0000 </r>
       <r>   11.4947    0.0000 </r>
       <r>   12.8082    0.0000 </r>
       <r>   13.1763    0.0000 </r>
       <r>   13.1764    0.0000 </r>
      </set>
     </set>
    </set>
   </array>
  </eigenvalues>
  <separator name="orbital magnetization" >
   <v name="MAGDIPOLOUT">      0.00000000      0.00000000      0.00000000</v>
  </separator>
  <dos>
   <i name="efermi">      5.34053266 </i>
   <total>
    <array>
     <dimension dim="1">gridpoints</dimension>
     <dimension dim="2">spin</dimension>
     <field>energy</field>
     <field>total</field>
     <field>integrated</field>
     <set>
      <set comment="spin 1">
       <r>   -11.7699     0.0000     0.0000 </r>
       <r>   -11.6794     0.0000     0.0000 </r>
       <r>   -11.5890     0.0000     0.0000 </r>
       <r>   -11.4985     0.0000     0.0000 </r>
       <r>   -11.4080     0.0000     0.0000 </r>
       <r>   -11.3176     0.0000     0.0000 </r>
       <r>   -11.2271     0.0000     0.0000 </r>
       <r>   -11.1367     0.0000     0.0000 </r>
       <r>   -11.0462     0.0000     0.0000 </r>
       <r>   -10.9557     0.0000     0.0000 </r>
       <r>   -10.8653     0.0000     0.0000 </r>
       <r>   -10.7748     0.0000     0.0000 </r>
       <r>   -10.6844     0.0000     0.0000 </r>
       <r>   -10.5939     0.0000     0.0000 </r>
       <r>   -10.5034     0.0503     0.0046 </r>
       <r>   -10.4130     0.5205     0.0516 </r>
       <r>   -10.3225     0.4858     0.0956 </r>
       <r>   -10.2321     1.3745     0.2199 </r>
       <r>   -10.1416     0.9391     0.3049 </r>
       <r>   -10.0511     1.8508     0.4723 </r>
       <r>    -9.9607     3.5322     0.7918 </r>
       <r>    -9.8702     2.3161     1.0014 </r>
       <r>    -9.7798     2.5439     1.2315 </r>
       <r>    -9.6893     3.3885     1.5380 </r>
       <r>    -9.5988     2.6819     1.7806 </r>
       <r>    -9.5084     1.4485     1.9116 </r>
       <r>    -9.4179     0.7433     1.9789 </r>
       <r>    -9.3274     0.2335     2.0000 </r>
       <r>    -9.2370     0.0000     2.0000 </r>
       <r>    -9.1465     0.0000     2.0000 </r>
       <r>    -9.0561     0.0000     2.0000 </r>
       <r>    -8.9656     0.0000     2.0000 </r>
       <r>    -8.8751     0.0000     2.0000 </r>
       <r>    -8.7847     0.0000     2.0000 </r>
       <r>    -8.6942     0.0000     2.0000 </r>
       <r>    -8.6038     0.0000     2.0000 </r>
       <r>    -8.5133     0.0000     2.0000 </r>
       <r>    -8.4228     0.0000     2.0000 </r>
       <r>    -8.3324     0.0000     2.0000 </r>
       <r>    -8.2419     0.0000     2.0000 </r>
       <r>    -8.1515     0.0000     2.0000 </r>
       <r>    -8.0610     0.0000     2.0000 </r>
       <r>    -7.9705     0.0000     2.0000 </r>
       <r>    -7.8801     0.0000     2.0000 </r>
       <r>    -7.7896     0.0000     2.0000 </r>
       <r>    -7.6992     0.0000     2.0000 </r>
       <r>    -7.6087     0.0000     2.0000 </r>
       <r>    -7.5182     0.0000     2.0000 </r>
       <r>    -7.4278     0.0000     2.0000 </r>
       <r>    -7.3373     0.0000     2.0000 </r>
       <r>    -7.2468     0.0000     2.0000 </r>
       <r>    -7.1564     0.0000     2.0000 </r>
       <r>    -7.0659     0.0000     2.0000 </r>
       <r>    -6.9755     0.0000     2.0000 </r>
       <r>    -6.8850     0.0000     2.0000 </r>
       <r>    -6.7945     0.0000     2.0000 </r>
       <r>    -6.7041     0.0000     2.0000 </r>
       <r>    -6.6136     0.0000     2.0000 </r>
       <r>    -6.5232     0.0000     2.0000 </r>
       <r>    -6.4327     0.0000     2.0000 </r>
       <r>    -6.3422     0.0000     2.0000 </r>
       <r>    -6.2518     0.0000     2.0000 </r>
       <r>    -6.1613     0.0000     2.0000 </r>
       <r>    -6.0709     0.0650     2.0059 </r>
       <r>    -5.9804     0.3786     2.0401 </r>
       <r>    -5.8899     0.7412     2.1072 </r>
       <r>    -5.7995     0.4528     2.1481 </r>
       <r>    -5.7090     0.3745     2.1820 </r>
       <r>    -5.6186     1.4586     2.3140 </r>
       <r>    -5.5281     1.5924     2.4580 </r>
       <r>    -5.4376     0.4006     2.4943 </r>
       <r>    -5.3472     1.5370     2.6333 </r>
       <r>    -5.2567     2.0967     2.8230 </r>
       <r>    -5.1663     1.8700     2.9921 </r>
       <r>    -5.0758     1.5608     3.1333 </r>
       <r>    -4.9853     2.6477     3.3728 </r>
       <r>    -4.8949     2.3626     3.5866 </r>
       <r>    -4.8044     0.5134     3.6330 </r>
       <r>    -4.7139     0.5707     3.6846 </r>
       <r>    -4.6235     0.8988     3.7659 </r>
       <r>    -4.5330     2.3491     3.9784 </r>
       <r>    -4.4426     0.1610     3.9930 </r>
       <r>    -4.3521     1.1103     4.0934 </r>
       <r>    -4.2616     2.9175     4.3574 </r>
       <r>    -4.1712     0.8957     4.4384 </r>
       <r>    -4.0807     2.4727     4.6621 </r>
       <r>    -3.9903     0.6830     4.7238 </r>
       <r>    -3.8998     1.2000     4.8324 </r>
       <r>    -3.8093     0.9468     4.9181 </r>
       <r>    -3.7189     2.7285     5.1649 </r>
       <r>    -3.6284     1.6706     5.3160 </r>
       <r>    -3.5380     3.5136     5.6338 </r>
       <r>    -3.4475     0.4841     5.6776 </r>
       <r>    -3.3570     0.0151     5.6790 </r>
       <r>    -3.2666     0.2495     5.7016 </r>
       <r>    -3.1761     2.5969     5.9365 </r>
       <r>    -3.0857     1.4541     6.0680 </r>
       <r>    -2.9952     2.4566     6.2903 </r>
       <r>    -2.9047     1.8484     6.4575 </r>
       <r>    -2.8143     1.7837     6.6188 </r>
       <r>    -2.7238     0.8867     6.6990 </r>
       <r>    -2.6333     1.3400     6.8203 </r>
       <r>    -2.5429     0.9901     6.9098 </r>
       <r>    -2.4524     2.3122     7.1190 </r>
       <r>    -2.3620     3.4736     7.4332 </r>
       <r>    -2.2715     1.6252     7.5802 </r>
       <r>    -2.1810     2.4745     7.8041 </r>
       <r>    -2.0906     1.6009     7.9489 </r>
       <r>    -2.0001     1.4971     8.0843 </r>
       <r>    -1.9097     1.5266     8.2224 </r>
       <r>    -1.8192     2.3532     8.4353 </r>
       <r>    -1.7287     0.8740     8.5143 </r>
       <r>    -1.6383     1.3705     8.6383 </r>
       <r>    -1.5478     2.4530     8.8602 </r>
       <r>    -1.4574     0.8181     8.9342 </r>
       <r>    -1.3669     2.5484     9.1648 </r>
       <r>    -1.2764     0.7468     9.2323 </r>
       <r>    -1.1860     2.4091     9.4502 </r>
       <r>    -1.0955     0.3896     9.4855 </r>
       <r>    -1.0051     2.5296     9.7143 </r>
       <r>    -0.9146     2.1814     9.9116 </r>
       <r>    -0.8241     1.8188    10.0762 </r>
       <r>    -0.7337     0.1345    10.0883 </r>
       <r>    -0.6432     0.5012    10.1337 </r>
       <r>    -0.5527     1.7382    10.2909 </r>
       <r>    -0.4623     0.4238    10.3293 </r>
       <r>    -0.3718     1.4891    10.4640 </r>
       <r>    -0.2814     1.7313    10.6206 </r>
       <r>    -0.1909     1.8465    10.7876 </r>
       <r>    -0.1004     2.3319    10.9986 </r>
       <r>    -0.0100     1.3285    11.1187 </r>
       <r>     0.0805     1.4392    11.2489 </r>
       <r>     0.1709     1.8994    11.4208 </r>
       <r>     0.2614     1.7474    11.5788 </r>
       <r>     0.3519     3.1060    11.8598 </r>
       <r>     0.4423     2.9893    12.1302 </r>
       <r>     0.5328     3.2987    12.4286 </r>
       <r>     0.6232     0.7210    12.4938 </r>
       <r>     0.7137     1.9896    12.6738 </r>
       <r>     0.8042     0.6915    12.7364 </r>
       <r>     0.8946     0.4515    12.7772 </r>
       <r>     0.9851     1.6905    12.9301 </r>
       <r>     1.0755     1.2838    13.0463 </r>
       <r>     1.1660     1.4139    13.1742 </r>
       <r>     1.2565     3.8259    13.5203 </r>
       <r>     1.3469     2.0528    13.7060 </r>
       <r>     1.4374     4.0844    14.0755 </r>
       <r>     1.5279     1.8106    14.2392 </r>
       <r>     1.6183     3.1457    14.5238 </r>
       <r>     1.7088     0.8862    14.6040 </r>
       <r>     1.7992     3.5288    14.9232 </r>
       <r>     1.8897     2.4844    15.1479 </r>
       <r>     1.9802     3.6288    15.4762 </r>
       <r>     2.0706     0.8536    15.5534 </r>
       <r>     2.1611     1.0130    15.6450 </r>
       <r>     2.2515     0.7585    15.7137 </r>
       <r>     2.3420     2.5246    15.9420 </r>
       <r>     2.4325     7.2082    16.5941 </r>
       <r>     2.5229     2.5452    16.8243 </r>
       <r>     2.6134     2.7982    17.0775 </r>
       <r>     2.7038     2.6263    17.3150 </r>
       <r>     2.7943     4.1549    17.6909 </r>
       <r>     2.8848     2.9149    17.9546 </r>
       <r>     2.9752     4.2188    18.3362 </r>
       <r>     3.0657     4.8195    18.7722 </r>
       <r>     3.1561     3.3391    19.0743 </r>
       <r>     3.2466     2.3841    19.2899 </r>
       <r>     3.3371     2.1501    19.4844 </r>
       <r>     3.4275     2.7471    19.7329 </r>
       <r>     3.5180     4.5702    20.1463 </r>
       <r>     3.6084     3.8766    20.4970 </r>
       <r>     3.6989     3.2300    20.7892 </r>
       <r>     3.7894     3.3342    21.0908 </r>
       <r>     3.8798     1.2782    21.2065 </r>
       <r>     3.9703     1.0871    21.3048 </r>
       <r>     4.0608     0.9220    21.3882 </r>
       <r>     4.1512     0.2180    21.4079 </r>
       <r>     4.2417     1.4698    21.5409 </r>
       <r>     4.3321     0.9283    21.6249 </r>
       <r>     4.4226     0.7784    21.6953 </r>
       <r>     4.5131     0.2070    21.7140 </r>
       <r>     4.6035     0.8801    21.7936 </r>
       <r>     4.6940     0.0164    21.7951 </r>
       <r>     4.7844     0.7184    21.8601 </r>
       <r>     4.8749     0.7237    21.9255 </r>
       <r>     4.9654     0.0042    21.9259 </r>
       <r>     5.0558     0.0545    21.9309 </r>
       <r>     5.1463     0.2988    21.9579 </r>
       <r>     5.2367     0.2332    21.9790 </r>
       <r>     5.3272     0.2322    22.0000 </r>
       <r>     5.4177     0.3226    22.0292 </r>
       <r>     5.5081     0.0417    22.0329 </r>
       <r>     5.5986     0.9189    22.1161 </r>
       <r>     5.6890     1.3861    22.2415 </r>
       <r>     5.7795     1.4045    22.3685 </r>
       <r>     5.8700     0.2935    22.3951 </r>
       <r>     5.9604     1.8083    22.5586 </r>
       <r>     6.0509     1.5938    22.7028 </r>
       <r>     6.1414     3.4306    23.0132 </r>
       <r>     6.2318     2.6912    23.2566 </r>
       <r>     6.3223     2.1871    23.4545 </r>
       <r>     6.4127     2.9914    23.7251 </r>
       <r>     6.5032     1.3161    23.8441 </r>
       <r>     6.5937     4.2111    24.2251 </r>
       <r>     6.6841     3.4836    24.5402 </r>
       <r>     6.7746     2.6395    24.7790 </r>
       <r>     6.8650     1.4549    24.9106 </r>
       <r>     6.9555     2.9799    25.1801 </r>
       <r>     7.0460     0.8467    25.2567 </r>
       <r>     7.1364     2.9839    25.5267 </r>
       <r>     7.2269     4.7654    25.9578 </r>
       <r>     7.3173     3.7215    26.2944 </r>
       <r>     7.4078     1.3682    26.4182 </r>
       <r>     7.4983     3.0721    26.6961 </r>
       <r>     7.5887     5.5055    27.1941 </r>
       <r>     7.6792     3.0954    27.4741 </r>
       <r>     7.7696     1.1446    27.5777 </r>
       <r>     7.8601     1.2164    27.6877 </r>
       <r>     7.9506     3.5650    28.0102 </r>
       <r>     8.0410     2.7329    28.2574 </r>
       <r>     8.1315     0.7938    28.3292 </r>
       <r>     8.2220     0.5700    28.3808 </r>
       <r>     8.3124     3.3640    28.6851 </r>
       <r>     8.4029     0.7916    28.7567 </r>
       <r>     8.4933     1.8117    28.9206 </r>
       <r>     8.5838     0.3537    28.9526 </r>
       <r>     8.6743     0.8286    29.0275 </r>
       <r>     8.7647     0.6982    29.0907 </r>
       <r>     8.8552     0.5221    29.1379 </r>
       <r>     8.9456     0.4911    29.1824 </r>
       <r>     9.0361     1.2264    29.2933 </r>
       <r>     9.1266     0.3547    29.3254 </r>
       <r>     9.2170     1.2597    29.4393 </r>
       <r>     9.3075     0.1930    29.4568 </r>
       <r>     9.3979     0.0197    29.4586 </r>
       <r>     9.4884     0.9313    29.5428 </r>
       <r>     9.5789     1.0830    29.6408 </r>
       <r>     9.6693     1.3474    29.7627 </r>
       <r>     9.7598     1.7720    29.9230 </r>
       <r>     9.8502     2.9831    30.1928 </r>
       <r>     9.9407     2.8790    30.4533 </r>
       <r>    10.0312     1.7499    30.6116 </r>
       <r>    10.1216     0.7002    30.6749 </r>
       <r>    10.2121     1.7451    30.8328 </r>
       <r>    10.3025     0.4729    30.8755 </r>
       <r>    10.3930     2.5083    31.1024 </r>
       <r>    10.4835     3.1317    31.3857 </r>
       <r>    10.5739     1.2410    31.4980 </r>
       <r>    10.6644     0.3634    31.5309 </r>
       <r>    10.7549     0.0572    31.5360 </r>
       <r>    10.8453     0.7561    31.6044 </r>
       <r>    10.9358     2.4042    31.8219 </r>
       <r>    11.0262     0.4251    31.8604 </r>
       <r>    11.1167     3.9263    32.2156 </r>
       <r>    11.2072     1.0442    32.3100 </r>
       <r>    11.2976     0.7769    32.3803 </r>
       <r>    11.3881     1.7668    32.5401 </r>
       <r>    11.4785     0.9460    32.6257 </r>
       <r>    11.5690     1.0324    32.7191 </r>
       <r>    11.6595     0.5730    32.7709 </r>
       <r>    11.7499     0.2761    32.7959 </r>
       <r>    11.8404     1.2464    32.9086 </r>
       <r>    11.9308     2.1182    33.1003 </r>
       <r>    12.0213     0.7263    33.1660 </r>
       <r>    12.1118     0.4593    33.2075 </r>
       <r>    12.2022     1.0207    33.2998 </r>
       <r>    12.2927     0.7809    33.3705 </r>
       <r>    12.3831     1.1513    33.4746 </r>
       <r>    12.4736     1.5265    33.6127 </r>
       <r>    12.5641     0.0049    33.6132 </r>
       <r>    12.6545     1.4324    33.7427 </r>
       <r>    12.7450     0.4685    33.7851 </r>
       <r>    12.8355     0.5280    33.8329 </r>
       <r>    12.9259     2.0855    34.0215 </r>
       <r>    13.0164     0.5206    34.0686 </r>
       <r>    13.1068     2.1783    34.2657 </r>
       <r>    13.1973     1.5788    34.4085 </r>
       <r>    13.2878     2.7711    34.6592 </r>
       <r>    13.3782     2.9404    34.9252 </r>
       <r>    13.4687     3.7771    35.2668 </r>
       <r>    13.5591     1.9161    35.4402 </r>
       <r>    13.6496     1.5598    35.5813 </r>
       <r>    13.7401     0.5650    35.6324 </r>
       <r>    13.8305     0.9245    35.7160 </r>
       <r>    13.9210     0.7130    35.7805 </r>
       <r>    14.0114     0.0287    35.7831 </r>
       <r>    14.1019     1.9183    35.9566 </r>
       <r>    14.1924     0.4793    36.0000 </r>
       <r>    14.2828     0.0000    36.0000 </r>
       <r>    14.3733     0.0000    36.0000 </r>
       <r>    14.4637     0.0000    36.0000 </r>
       <r>    14.5542     0.0000    36.0000 </r>
       <r>    14.6447     0.0000    36.0000 </r>
       <r>    14.7351     0.0000    36.0000 </r>
       <r>    14.8256     0.0000    36.0000 </r>
       <r>    14.9161     0.0000    36.0000 </r>
       <r>    15.0065     0.0000    36.0000 </r>
       <r>    15.0970     0.0000    36.0000 </r>
       <r>    15.1874     0.0000    36.0000 </r>
       <r>    15.2779     0.0000    36.0000 </r>
       <r>    15.3684     0.0000    36.0000 </r>
      </set>
     </set>
    </array>
   </total>
  </dos>
 </calculation>
 <structure name="finalpos" >
  <crystal>
   <varray name="basis" >
    <v>       4.13354800       0.00000000       0.00000000 </v>
    <v>       0.00000000       4.13354800       0.00000000 </v>
    <v>       0.00000000       0.00000000       4.13354800 </v>
   </varray>
   <i name="volume">     70.62670666 </i>
   <varray name="rec_basis" >
    <v>       0.24192292       0.00000000       0.00000000 </v>
    <v>       0.00000000       0.24192292       0.00000000 </v>
    <v>       0.00000000       0.00000000       0.24192292 </v>
   </varray>
  </crystal>
  <varray name="positions" >
   <v>       0.79996000       0.50000000       0.50000000 </v>
   <v>       0.20004000       0.50000000       0.50000000 </v>
   <v>       0.50000000       0.50000000       0.79996000 </v>
   <v>       0.50000000       0.50000000       0.20004000 </v>
   <v>       0.50000000       0.20004000       0.50000000 </v>
   <v>       0.50000000       0.79996000       0.50000000 </v>
   <v>       0.00000000       0.00000000       0.00000000 </v>
  </varray>
 </structure>
</modeling>
