<?xml version="1.0" encoding="ISO-8859-1"?>
<modeling>
 <generator>
  <i name="program" type="string">vasp </i>
  <i name="version" type="string">6.2.0  </i>
  <i name="subversion" type="string">18Jan21 (build Jan 05 2022 15:41:44) complex                          parallel </i>
  <i name="platform" type="string">LinuxIFC </i>
  <i name="date" type="string">2025 05 07 </i>
  <i name="time" type="string">19:02:41 </i>
 </generator>
 <incar>
  <i type="string" name="SYSTEM">routine with relax: pwdword</i>
  <i type="string" name="PREC">Acc</i>
  <i type="int" name="IALGO">    38</i>
  <i type="string" name="ALGO">A</i>
  <i type="logical" name="ADDGRID"> T  </i>
  <i type="int" name="ICHARG">     2</i>
  <i type="int" name="NELM">   100</i>
  <i type="int" name="NELMIN">     6</i>
  <i name="EDIFF">      0.00000000</i>
  <i type="int" name="NSW">     0</i>
  <i type="int" name="ISIF">    -1</i>
  <i name="SYMPREC">      0.00010000</i>
  <i name="ENCUT">    600.00000000</i>
  <i type="logical" name="LREAL"> F  </i>
  <i type="int" name="ISMEAR">     0</i>
  <i name="SIGMA">      0.02000000</i>
  <i type="logical" name="LASPH"> T  </i>
  <i type="string" name="METAGGA">R2SCAN</i>
  <i type="logical" name="LMIXTAU"> F  </i>
 </incar>
 <primitive_cell>
  <structure name="primitive_cell" >
   <crystal>
    <varray name="basis" >
     <v>       4.87075907       0.00000000      -2.96321477 </v>
     <v>      -1.53927096       4.62114043      -2.96321477 </v>
     <v>       0.00000000       0.00000000       5.70131000 </v>
    </varray>
    <i name="volume">    128.32771750 </i>
    <varray name="rec_basis" >
     <v>       0.20530681       0.06838632       0.00000000 </v>
     <v>       0.00000000       0.21639680       0.00000000 </v>
     <v>       0.10670673       0.14801398       0.17539829 </v>
    </varray>
   </crystal>
   <varray name="positions" >
    <v>       0.50000000       0.00000000       0.50000000 </v>
    <v>       1.00000000       0.50000000       0.50000000 </v>
    <v>       0.25000000       0.25000000       0.00000000 </v>
    <v>       0.23178000       0.73178000       0.96356000 </v>
    <v>       0.75000000       0.75000000       0.00000000 </v>
    <v>       0.76822000       0.26822000       0.03644000 </v>
    <v>       0.73178000       0.76822000       0.50000000 </v>
    <v>       0.26822000       0.23178000       0.50000000 </v>
    <v>       0.75000000       0.25000000       0.50000000 </v>
    <v>       0.25000000       0.75000000       0.50000000 </v>
   </varray>
  </structure>
  <varray name="primitive_index" >
   <v type="int" >        1 </v>
   <v type="int" >        2 </v>
   <v type="int" >        3 </v>
   <v type="int" >        4 </v>
   <v type="int" >        5 </v>
   <v type="int" >        6 </v>
   <v type="int" >        7 </v>
   <v type="int" >        8 </v>
   <v type="int" >        9 </v>
   <v type="int" >       10 </v>
  </varray>
 </primitive_cell>
 <kpoints>
  <generation param="Gamma">
   <v type="int" name="divisions">       8        8        9 </v>
   <v name="usershift">      0.00000000       0.00000000       0.00000000 </v>
   <v name="genvec1">      0.12500000      -0.00000000       0.00000000 </v>
   <v name="genvec2">      0.00000000       0.12500000       0.00000000 </v>
   <v name="genvec3">      0.00000000      -0.00000000       0.11111111 </v>
   <v name="shift">      0.00000000       0.00000000       0.00000000 </v>
  </generation>
  <varray name="kpointlist" >
   <v>       0.00000000       0.00000000       0.00000000 </v>
   <v>       0.12500000      -0.00000000       0.00000000 </v>
   <v>       0.25000000      -0.00000000       0.00000000 </v>
   <v>       0.37500000       0.00000000       0.00000000 </v>
   <v>       0.50000000      -0.00000000       0.00000000 </v>
   <v>       0.12500000       0.12500000       0.00000000 </v>
   <v>       0.25000000       0.12500000       0.00000000 </v>
   <v>       0.37500000       0.12500000       0.00000000 </v>
   <v>       0.50000000       0.12500000       0.00000000 </v>
   <v>      -0.37500000       0.12500000       0.00000000 </v>
   <v>      -0.25000000       0.12500000       0.00000000 </v>
   <v>      -0.12500000       0.12500000       0.00000000 </v>
   <v>       0.25000000       0.25000000       0.00000000 </v>
   <v>       0.37500000       0.25000000       0.00000000 </v>
   <v>       0.50000000       0.25000000       0.00000000 </v>
   <v>      -0.37500000       0.25000000       0.00000000 </v>
   <v>      -0.25000000       0.25000000       0.00000000 </v>
   <v>       0.37500000       0.37500000       0.00000000 </v>
   <v>       0.50000000       0.37500000       0.00000000 </v>
   <v>      -0.37500000       0.37500000       0.00000000 </v>
   <v>       0.50000000       0.50000000       0.00000000 </v>
   <v>       0.00000000       0.00000000       0.11111111 </v>
   <v>       0.12500000       0.00000000       0.11111111 </v>
   <v>       0.25000000      -0.00000000       0.11111111 </v>
   <v>       0.37500000      -0.00000000       0.11111111 </v>
   <v>       0.50000000       0.00000000       0.11111111 </v>
   <v>      -0.37500000      -0.00000000       0.11111111 </v>
   <v>      -0.25000000       0.00000000       0.11111111 </v>
   <v>      -0.12500000       0.00000000       0.11111111 </v>
   <v>       0.12500000       0.12500000       0.11111111 </v>
   <v>       0.25000000       0.12500000       0.11111111 </v>
   <v>       0.37500000       0.12500000       0.11111111 </v>
   <v>       0.50000000       0.12500000       0.11111111 </v>
   <v>      -0.37500000       0.12500000       0.11111111 </v>
   <v>      -0.25000000       0.12500000       0.11111111 </v>
   <v>      -0.12500000       0.12500000       0.11111111 </v>
   <v>       0.25000000       0.25000000       0.11111111 </v>
   <v>       0.37500000       0.25000000       0.11111111 </v>
   <v>       0.50000000       0.25000000       0.11111111 </v>
   <v>      -0.37500000       0.25000000       0.11111111 </v>
   <v>      -0.25000000       0.25000000       0.11111111 </v>
   <v>      -0.12500000       0.25000000       0.11111111 </v>
   <v>       0.37500000       0.37500000       0.11111111 </v>
   <v>       0.50000000       0.37500000       0.11111111 </v>
   <v>      -0.37500000       0.37500000       0.11111111 </v>
   <v>      -0.25000000       0.37500000       0.11111111 </v>
   <v>      -0.12500000       0.37500000       0.11111111 </v>
   <v>       0.50000000       0.50000000       0.11111111 </v>
   <v>      -0.37500000       0.50000000       0.11111111 </v>
   <v>      -0.25000000       0.50000000       0.11111111 </v>
   <v>      -0.12500000       0.50000000       0.11111111 </v>
   <v>      -0.37500000      -0.37500000       0.11111111 </v>
   <v>      -0.25000000      -0.37500000       0.11111111 </v>
   <v>      -0.12500000      -0.37500000       0.11111111 </v>
   <v>      -0.25000000      -0.25000000       0.11111111 </v>
   <v>      -0.12500000      -0.25000000       0.11111111 </v>
   <v>      -0.12500000      -0.12500000       0.11111111 </v>
   <v>       0.00000000       0.00000000       0.22222222 </v>
   <v>       0.12500000       0.00000000       0.22222222 </v>
   <v>       0.25000000       0.00000000       0.22222222 </v>
   <v>       0.37500000       0.00000000       0.22222222 </v>
   <v>       0.50000000       0.00000000       0.22222222 </v>
   <v>      -0.37500000      -0.00000000       0.22222222 </v>
   <v>      -0.25000000       0.00000000       0.22222222 </v>
   <v>      -0.12500000       0.00000000       0.22222222 </v>
   <v>       0.12500000       0.12500000       0.22222222 </v>
   <v>       0.25000000       0.12500000       0.22222222 </v>
   <v>       0.37500000       0.12500000       0.22222222 </v>
   <v>       0.50000000       0.12500000       0.22222222 </v>
   <v>      -0.37500000       0.12500000       0.22222222 </v>
   <v>      -0.25000000       0.12500000       0.22222222 </v>
   <v>      -0.12500000       0.12500000       0.22222222 </v>
   <v>       0.25000000       0.25000000       0.22222222 </v>
   <v>       0.37500000       0.25000000       0.22222222 </v>
   <v>       0.50000000       0.25000000       0.22222222 </v>
   <v>      -0.37500000       0.25000000       0.22222222 </v>
   <v>      -0.25000000       0.25000000       0.22222222 </v>
   <v>      -0.12500000       0.25000000       0.22222222 </v>
   <v>       0.37500000       0.37500000       0.22222222 </v>
   <v>       0.50000000       0.37500000       0.22222222 </v>
   <v>      -0.37500000       0.37500000       0.22222222 </v>
   <v>      -0.25000000       0.37500000       0.22222222 </v>
   <v>      -0.12500000       0.37500000       0.22222222 </v>
   <v>       0.50000000       0.50000000       0.22222222 </v>
   <v>      -0.37500000       0.50000000       0.22222222 </v>
   <v>      -0.25000000       0.50000000       0.22222222 </v>
   <v>      -0.12500000       0.50000000       0.22222222 </v>
   <v>      -0.37500000      -0.37500000       0.22222222 </v>
   <v>      -0.25000000      -0.37500000       0.22222222 </v>
   <v>      -0.12500000      -0.37500000       0.22222222 </v>
   <v>      -0.25000000      -0.25000000       0.22222222 </v>
   <v>      -0.12500000      -0.25000000       0.22222222 </v>
   <v>      -0.12500000      -0.12500000       0.22222222 </v>
   <v>       0.00000000       0.00000000       0.33333333 </v>
   <v>       0.12500000      -0.00000000       0.33333333 </v>
   <v>       0.25000000       0.00000000       0.33333333 </v>
   <v>       0.37500000       0.00000000       0.33333333 </v>
   <v>       0.50000000       0.00000000       0.33333333 </v>
   <v>      -0.37500000      -0.00000000       0.33333333 </v>
   <v>      -0.25000000      -0.00000000       0.33333333 </v>
   <v>      -0.12500000       0.00000000       0.33333333 </v>
   <v>       0.12500000       0.12500000       0.33333333 </v>
   <v>       0.25000000       0.12500000       0.33333333 </v>
   <v>       0.37500000       0.12500000       0.33333333 </v>
   <v>       0.50000000       0.12500000       0.33333333 </v>
   <v>      -0.37500000       0.12500000       0.33333333 </v>
   <v>      -0.25000000       0.12500000       0.33333333 </v>
   <v>      -0.12500000       0.12500000       0.33333333 </v>
   <v>       0.25000000       0.25000000       0.33333333 </v>
   <v>       0.37500000       0.25000000       0.33333333 </v>
   <v>       0.50000000       0.25000000       0.33333333 </v>
   <v>      -0.37500000       0.25000000       0.33333333 </v>
   <v>      -0.25000000       0.25000000       0.33333333 </v>
   <v>      -0.12500000       0.25000000       0.33333333 </v>
   <v>       0.37500000       0.37500000       0.33333333 </v>
   <v>       0.50000000       0.37500000       0.33333333 </v>
   <v>      -0.37500000       0.37500000       0.33333333 </v>
   <v>      -0.25000000       0.37500000       0.33333333 </v>
   <v>      -0.12500000       0.37500000       0.33333333 </v>
   <v>       0.50000000       0.50000000       0.33333333 </v>
   <v>      -0.37500000       0.50000000       0.33333333 </v>
   <v>      -0.25000000       0.50000000       0.33333333 </v>
   <v>      -0.12500000       0.50000000       0.33333333 </v>
   <v>      -0.37500000      -0.37500000       0.33333333 </v>
   <v>      -0.25000000      -0.37500000       0.33333333 </v>
   <v>      -0.12500000      -0.37500000       0.33333333 </v>
   <v>      -0.25000000      -0.25000000       0.33333333 </v>
   <v>      -0.12500000      -0.25000000       0.33333333 </v>
   <v>      -0.12500000      -0.12500000       0.33333333 </v>
   <v>       0.00000000       0.00000000       0.44444444 </v>
   <v>       0.12500000       0.00000000       0.44444444 </v>
   <v>       0.25000000       0.00000000       0.44444444 </v>
   <v>       0.37500000       0.00000000       0.44444444 </v>
   <v>       0.50000000       0.00000000       0.44444444 </v>
   <v>      -0.37500000       0.00000000       0.44444444 </v>
   <v>      -0.25000000       0.00000000       0.44444444 </v>
   <v>      -0.12500000       0.00000000       0.44444444 </v>
   <v>       0.12500000       0.12500000       0.44444444 </v>
   <v>       0.25000000       0.12500000       0.44444444 </v>
   <v>       0.37500000       0.12500000       0.44444444 </v>
   <v>       0.50000000       0.12500000       0.44444444 </v>
   <v>      -0.37500000       0.12500000       0.44444444 </v>
   <v>      -0.25000000       0.12500000       0.44444444 </v>
   <v>      -0.12500000       0.12500000       0.44444444 </v>
   <v>       0.25000000       0.25000000       0.44444444 </v>
   <v>       0.37500000       0.25000000       0.44444444 </v>
   <v>       0.50000000       0.25000000       0.44444444 </v>
   <v>      -0.37500000       0.25000000       0.44444444 </v>
   <v>      -0.25000000       0.25000000       0.44444444 </v>
   <v>      -0.12500000       0.25000000       0.44444444 </v>
   <v>       0.37500000       0.37500000       0.44444444 </v>
   <v>       0.50000000       0.37500000       0.44444444 </v>
   <v>      -0.37500000       0.37500000       0.44444444 </v>
   <v>      -0.25000000       0.37500000       0.44444444 </v>
   <v>      -0.12500000       0.37500000       0.44444444 </v>
   <v>       0.50000000       0.50000000       0.44444444 </v>
   <v>      -0.37500000       0.50000000       0.44444444 </v>
   <v>      -0.25000000       0.50000000       0.44444444 </v>
   <v>      -0.12500000       0.50000000       0.44444444 </v>
   <v>      -0.37500000      -0.37500000       0.44444444 </v>
   <v>      -0.25000000      -0.37500000       0.44444444 </v>
   <v>      -0.12500000      -0.37500000       0.44444444 </v>
   <v>      -0.25000000      -0.25000000       0.44444444 </v>
   <v>      -0.12500000      -0.25000000       0.44444444 </v>
   <v>      -0.12500000      -0.12500000       0.44444444 </v>
  </varray>
  <varray name="weights" >
   <v>       0.00173611 </v>
   <v>       0.00694444 </v>
   <v>       0.00694444 </v>
   <v>       0.00694444 </v>
   <v>       0.00347222 </v>
   <v>       0.00347222 </v>
   <v>       0.00694444 </v>
   <v>       0.00694444 </v>
   <v>       0.00694444 </v>
   <v>       0.00694444 </v>
   <v>       0.00694444 </v>
   <v>       0.00347222 </v>
   <v>       0.00347222 </v>
   <v>       0.00694444 </v>
   <v>       0.00694444 </v>
   <v>       0.00694444 </v>
   <v>       0.00347222 </v>
   <v>       0.00347222 </v>
   <v>       0.00694444 </v>
   <v>       0.00347222 </v>
   <v>       0.00173611 </v>
   <v>       0.00347222 </v>
   <v>       0.00694444 </v>
   <v>       0.00694444 </v>
   <v>       0.00694444 </v>
   <v>       0.00694444 </v>
   <v>       0.00694444 </v>
   <v>       0.00694444 </v>
   <v>       0.00694444 </v>
   <v>       0.00347222 </v>
   <v>       0.00694444 </v>
   <v>       0.00694444 </v>
   <v>       0.00694444 </v>
   <v>       0.00694444 </v>
   <v>       0.00694444 </v>
   <v>       0.00694444 </v>
   <v>       0.00347222 </v>
   <v>       0.00694444 </v>
   <v>       0.00694444 </v>
   <v>       0.00694444 </v>
   <v>       0.00694444 </v>
   <v>       0.00694444 </v>
   <v>       0.00347222 </v>
   <v>       0.00694444 </v>
   <v>       0.00694444 </v>
   <v>       0.00694444 </v>
   <v>       0.00694444 </v>
   <v>       0.00347222 </v>
   <v>       0.00694444 </v>
   <v>       0.00694444 </v>
   <v>       0.00694444 </v>
   <v>       0.00347222 </v>
   <v>       0.00694444 </v>
   <v>       0.00694444 </v>
   <v>       0.00347222 </v>
   <v>       0.00694444 </v>
   <v>       0.00347222 </v>
   <v>       0.00347222 </v>
   <v>       0.00694444 </v>
   <v>       0.00694444 </v>
   <v>       0.00694444 </v>
   <v>       0.00694444 </v>
   <v>       0.00694444 </v>
   <v>       0.00694444 </v>
   <v>       0.00694444 </v>
   <v>       0.00347222 </v>
   <v>       0.00694444 </v>
   <v>       0.00694444 </v>
   <v>       0.00694444 </v>
   <v>       0.00694444 </v>
   <v>       0.00694444 </v>
   <v>       0.00694444 </v>
   <v>       0.00347222 </v>
   <v>       0.00694444 </v>
   <v>       0.00694444 </v>
   <v>       0.00694444 </v>
   <v>       0.00694444 </v>
   <v>       0.00694444 </v>
   <v>       0.00347222 </v>
   <v>       0.00694444 </v>
   <v>       0.00694444 </v>
   <v>       0.00694444 </v>
   <v>       0.00694444 </v>
   <v>       0.00347222 </v>
   <v>       0.00694444 </v>
   <v>       0.00694444 </v>
   <v>       0.00694444 </v>
   <v>       0.00347222 </v>
   <v>       0.00694444 </v>
   <v>       0.00694444 </v>
   <v>       0.00347222 </v>
   <v>       0.00694444 </v>
   <v>       0.00347222 </v>
   <v>       0.00347222 </v>
   <v>       0.00694444 </v>
   <v>       0.00694444 </v>
   <v>       0.00694444 </v>
   <v>       0.00694444 </v>
   <v>       0.00694444 </v>
   <v>       0.00694444 </v>
   <v>       0.00694444 </v>
   <v>       0.00347222 </v>
   <v>       0.00694444 </v>
   <v>       0.00694444 </v>
   <v>       0.00694444 </v>
   <v>       0.00694444 </v>
   <v>       0.00694444 </v>
   <v>       0.00694444 </v>
   <v>       0.00347222 </v>
   <v>       0.00694444 </v>
   <v>       0.00694444 </v>
   <v>       0.00694444 </v>
   <v>       0.00694444 </v>
   <v>       0.00694444 </v>
   <v>       0.00347222 </v>
   <v>       0.00694444 </v>
   <v>       0.00694444 </v>
   <v>       0.00694444 </v>
   <v>       0.00694444 </v>
   <v>       0.00347222 </v>
   <v>       0.00694444 </v>
   <v>       0.00694444 </v>
   <v>       0.00694444 </v>
   <v>       0.00347222 </v>
   <v>       0.00694444 </v>
   <v>       0.00694444 </v>
   <v>       0.00347222 </v>
   <v>       0.00694444 </v>
   <v>       0.00347222 </v>
   <v>       0.00347222 </v>
   <v>       0.00694444 </v>
   <v>       0.00694444 </v>
   <v>       0.00694444 </v>
   <v>       0.00694444 </v>
   <v>       0.00694444 </v>
   <v>       0.00694444 </v>
   <v>       0.00694444 </v>
   <v>       0.00347222 </v>
   <v>       0.00694444 </v>
   <v>       0.00694444 </v>
   <v>       0.00694444 </v>
   <v>       0.00694444 </v>
   <v>       0.00694444 </v>
   <v>       0.00694444 </v>
   <v>       0.00347222 </v>
   <v>       0.00694444 </v>
   <v>       0.00694444 </v>
   <v>       0.00694444 </v>
   <v>       0.00694444 </v>
   <v>       0.00694444 </v>
   <v>       0.00347222 </v>
   <v>       0.00694444 </v>
   <v>       0.00694444 </v>
   <v>       0.00694444 </v>
   <v>       0.00694444 </v>
   <v>       0.00347222 </v>
   <v>       0.00694444 </v>
   <v>       0.00694444 </v>
   <v>       0.00694444 </v>
   <v>       0.00347222 </v>
   <v>       0.00694444 </v>
   <v>       0.00694444 </v>
   <v>       0.00347222 </v>
   <v>       0.00694444 </v>
   <v>       0.00347222 </v>
  </varray>
 </kpoints>
 <parameters>
  <separator name="general" >
   <i type="string" name="SYSTEM">routine with relax: pwdword</i>
   <i type="logical" name="LCOMPAT"> F  </i>
  </separator>
  <separator name="electronic" >
   <i type="string" name="PREC">acc</i>
   <i name="ENMAX">    600.00000000</i>
   <i name="ENAUG">    535.51400000</i>
   <i name="EDIFF">      0.00000000</i>
   <i type="int" name="IALGO">    58</i>
   <i type="int" name="IWAVPR">    10</i>
   <i type="int" name="NBANDS">    60</i>
   <i type="int" name="NBANDSLOW">    -1</i>
   <i type="int" name="NBANDSHIGH">    -1</i>
   <i name="NELECT">     98.00000000</i>
   <i type="int" name="TURBO">     0</i>
   <i type="int" name="IRESTART">     0</i>
   <i type="int" name="NREBOOT">     0</i>
   <i type="int" name="NMIN">     0</i>
   <i name="EREF">      0.00000000</i>
   <separator name="electronic smearing" >
    <i type="int" name="ISMEAR">     0</i>
    <i name="SIGMA">      0.02000000</i>
    <i name="KSPACING">      0.50000000</i>
    <i type="logical" name="KGAMMA"> T  </i>
    <i type="logical" name="KBLOWUP"> F  </i>
   </separator>
   <separator name="electronic projectors" >
    <i type="logical" name="LREAL"> F  </i>
    <v name="ROPT">      0.00000000      0.00000000      0.00000000</v>
    <i type="int" name="LMAXPAW">  -100</i>
    <i type="int" name="LMAXMIX">     2</i>
    <i type="logical" name="NLSPLINE"> F  </i>
   </separator>
   <separator name="electronic startup" >
    <i type="int" name="ISTART">     0</i>
    <i type="int" name="ICHARG">     2</i>
    <i type="int" name="INIWAV">     1</i>
   </separator>
   <separator name="electronic spin" >
    <i type="int" name="ISPIN">     1</i>
    <i type="logical" name="LNONCOLLINEAR"> F  </i>
    <v name="MAGMOM">      1.00000000      1.00000000      1.00000000      1.00000000      1.00000000      1.00000000      1.00000000      1.00000000      1.00000000      1.00000000</v>
    <i name="NUPDOWN">     -1.00000000</i>
    <i type="logical" name="LSORBIT"> F  </i>
    <v name="SAXIS">      0.00000000      0.00000000      1.00000000</v>
    <i type="logical" name="LSPIRAL"> F  </i>
    <v name="QSPIRAL">      0.00000000      0.00000000      0.00000000</v>
    <i type="logical" name="LZEROZ"> F  </i>
   </separator>
   <separator name="electronic exchange-correlation" >
    <i type="logical" name="LASPH"> T  </i>
    <i type="logical" name="LMETAGGA"> F  </i>
   </separator>
   <separator name="electronic convergence" >
    <i type="int" name="NELM">   100</i>
    <i type="int" name="NELMDL">    -5</i>
    <i type="int" name="NELMIN">     6</i>
    <i name="ENINI">    600.00000000</i>
    <separator name="electronic convergence detail" >
     <i type="logical" name="LDIAG"> T  </i>
     <i type="logical" name="LSUBROT"> F  </i>
     <i name="WEIMIN">      0.00000000</i>
     <i name="EBREAK">      0.00000000</i>
     <i name="DEPER">      0.30000000</i>
     <i type="int" name="NRMM">     4</i>
     <i name="TIME">      0.40000000</i>
    </separator>
   </separator>
   <separator name="electronic mixer" >
    <i name="AMIX">      0.40000000</i>
    <i name="BMIX">      1.00000000</i>
    <i name="AMIN">      0.10000000</i>
    <i name="AMIX_MAG">      1.60000000</i>
    <i name="BMIX_MAG">      1.00000000</i>
    <separator name="electronic mixer details" >
     <i type="int" name="IMIX">     4</i>
     <i type="logical" name="MIXFIRST"> F  </i>
     <i type="int" name="MAXMIX">   -45</i>
     <i name="WC">    100.00000000</i>
     <i type="int" name="INIMIX">     1</i>
     <i type="int" name="MIXPRE">     1</i>
     <i type="int" name="MREMOVE">     5</i>
    </separator>
   </separator>
   <separator name="electronic dipolcorrection" >
    <i type="logical" name="LDIPOL"> F  </i>
    <i type="logical" name="LMONO"> F  </i>
    <i type="int" name="IDIPOL">     0</i>
    <i name="EPSILON">      1.00000000</i>
    <v name="DIPOL">   -100.00000000   -100.00000000   -100.00000000</v>
    <i name="EFIELD">      0.00000000</i>
   </separator>
  </separator>
  <separator name="grids" >
   <i type="int" name="NGX">    48</i>
   <i type="int" name="NGY">    48</i>
   <i type="int" name="NGZ">    48</i>
   <i type="int" name="NGXF">    96</i>
   <i type="int" name="NGYF">    96</i>
   <i type="int" name="NGZF">    96</i>
   <i type="logical" name="ADDGRID"> T  </i>
  </separator>
  <separator name="ionic" >
   <i type="int" name="NSW">     0</i>
   <i type="int" name="IBRION">    -1</i>
   <i type="int" name="MDALGO">     0</i>
   <i type="int" name="ISIF">    -1</i>
   <i name="PSTRESS">      0.00000000</i>
   <i name="EDIFFG">      0.00000001</i>
   <i type="int" name="NFREE">     0</i>
   <i name="POTIM">      0.50000000</i>
   <i name="SMASS">     -3.00000000</i>
   <i name="SCALEE">      1.00000000</i>
  </separator>
  <separator name="ionic md" >
   <i name="TEBEG">      0.00010000</i>
   <i name="TEEND">      0.00010000</i>
   <i type="int" name="NBLOCK">     1</i>
   <i type="int" name="KBLOCK">     1</i>
   <i type="int" name="NPACO">   256</i>
   <i name="APACO">     16.00000000</i>
  </separator>
  <separator name="symmetry" >
   <i type="int" name="ISYM">     2</i>
   <i name="SYMPREC">      0.00010000</i>
  </separator>
  <separator name="dos" >
   <i type="int" name="LORBIT">     0</i>
   <v name="RWIGS">     -1.00000000     -1.00000000     -1.00000000</v>
   <i type="int" name="NEDOS">   301</i>
   <i name="EMIN">     10.00000000</i>
   <i name="EMAX">    -10.00000000</i>
   <i name="EFERMI">      0.00000000</i>
  </separator>
  <separator name="writing" >
   <i type="int" name="NWRITE">     2</i>
   <i type="logical" name="LWAVE"> T  </i>
   <i type="logical" name="LDOWNSAMPLE"> F  </i>
   <i type="logical" name="LCHARG"> T  </i>
   <i type="logical" name="LPARD"> F  </i>
   <i type="logical" name="LVTOT"> F  </i>
   <i type="logical" name="LVHAR"> F  </i>
   <i type="logical" name="LELF"> F  </i>
   <i type="logical" name="LOPTICS"> F  </i>
   <v name="STM">      0.00000000      0.00000000      0.00000000      0.00000000      0.00000000      0.00000000      0.00000000</v>
  </separator>
  <separator name="performance" >
   <i type="int" name="NPAR">     6</i>
   <i type="int" name="NSIM">     4</i>
   <i type="int" name="NBLK">    -1</i>
   <i type="logical" name="LPLANE"> T  </i>
   <i type="logical" name="LSCALAPACK"> T  </i>
   <i type="logical" name="LSCAAWARE"> F  </i>
   <i type="logical" name="LSCALU"> F  </i>
   <i type="logical" name="LASYNC"> F  </i>
   <i type="logical" name="LORBITALREAL"> F  </i>
  </separator>
  <separator name="miscellaneous" >
   <i type="int" name="IDIOT">     3</i>
   <i type="int" name="PHON_NSTRUCT">    -1</i>
   <i type="logical" name="LMUSIC"> F  </i>
   <v name="POMASS">     10.81100000     95.94000000     28.08500000</v>
   <v name="DARWINR">      0.00000000      0.00000000      0.00000000</v>
   <v name="DARWINV">      1.00000000      1.00000000      1.00000000</v>
   <i type="logical" name="LCORR"> T  </i>
  </separator>
  <i type="logical" name="GGA_COMPAT"> T  </i>
  <i type="logical" name="LBERRY"> F  </i>
  <i type="int" name="ICORELEVEL">     0</i>
  <i type="logical" name="LDAU"> F  </i>
  <i type="int" name="I_CONSTRAINED_M">     0</i>
  <separator name="electronic exchange-correlation" >
   <i type="string" name="GGA">--</i>
   <i type="int" name="VOSKOWN">     0</i>
   <i type="logical" name="LHFCALC"> F  </i>
   <i type="string" name="PRECFOCK"></i>
   <i type="logical" name="LSYMGRAD"> F  </i>
   <i type="logical" name="LHFONE"> F  </i>
   <i type="logical" name="LRHFCALC"> F  </i>
   <i type="logical" name="LTHOMAS"> F  </i>
   <i type="logical" name="LMODELHF"> F  </i>
   <i type="logical" name="LFOCKACE"> F  </i>
   <i name="ENCUT4O">     -1.00000000</i>
   <i type="int" name="EXXOEP">     0</i>
   <i type="int" name="FOURORBIT">     0</i>
   <i name="AEXX">      0.00000000</i>
   <i name="HFALPHA">      0.00000000</i>
   <i name="MCALPHA">      0.00000000</i>
   <i name="ALDAX">      1.00000000</i>
   <i name="AGGAX">      1.00000000</i>
   <i name="ALDAC">      1.00000000</i>
   <i name="AGGAC">      1.00000000</i>
   <i type="int" name="NKREDX">     1</i>
   <i type="int" name="NKREDY">     1</i>
   <i type="int" name="NKREDZ">     1</i>
   <i type="logical" name="SHIFTRED"> F  </i>
   <i type="logical" name="ODDONLY"> F  </i>
   <i type="logical" name="EVENONLY"> F  </i>
   <i type="int" name="LMAXFOCK">     0</i>
   <i type="int" name="NMAXFOCKAE">     0</i>
   <i type="logical" name="LFOCKAEDFT"> F  </i>
   <i name="HFSCREEN">      0.00000000</i>
   <i name="HFSCREENC">      0.00000000</i>
   <i type="int" name="NBANDSGWLOW">     0</i>
  </separator>
  <separator name="vdW DFT" >
   <i type="logical" name="LUSE_VDW"> F  </i>
   <i name="Zab_VDW">     -0.84910000</i>
   <i name="PARAM1">      0.12340000</i>
   <i name="PARAM2">      1.00000000</i>
   <i name="PARAM3">      0.00000000</i>
  </separator>
  <separator name="model GW" >
   <i type="int" name="MODEL_GW">     0</i>
   <i name="MODEL_EPS0">      7.69966305</i>
   <i name="MODEL_ALPHA">      1.00000000</i>
  </separator>
  <separator name="linear response parameters" >
   <i type="logical" name="LEPSILON"> F  </i>
   <i type="logical" name="LRPA"> F  </i>
   <i type="logical" name="LNABLA"> F  </i>
   <i type="logical" name="LVEL"> F  </i>
   <i type="int" name="KINTER">     0</i>
   <i name="CSHIFT">      0.10000000</i>
   <i name="OMEGAMAX">     -1.00000000</i>
   <i name="DEG_THRESHOLD">      0.00200000</i>
   <i name="RTIME">     -0.10000000</i>
   <i name="WPLASMAI">      0.00000000</i>
   <v name="DFIELD">      0.00000000      0.00000000      0.00000000</v>
   <v name="WPLASMA">      0.00000000      0.00000000      0.00000000      0.00000000      0.00000000      0.00000000      0.00000000      0.00000000      0.00000000</v>
  </separator>
  <separator name="orbital magnetization" >
   <i type="logical" name="NUCIND"> F  </i>
   <v name="MAGPOS">      0.00000000      0.00000000      0.00000000</v>
   <i type="logical" name="LNICSALL"> T  </i>
   <i type="logical" name="ORBITALMAG"> F  </i>
   <i type="logical" name="LMAGBLOCH"> F  </i>
   <i type="logical" name="LCHIMAG"> F  </i>
   <i type="logical" name="LGAUGE"> T  </i>
   <i type="int" name="MAGATOM">     0</i>
   <v name="MAGDIPOL">      0.00000000      0.00000000      0.00000000</v>
   <v name="AVECCONST">      0.00000000      0.00000000      0.00000000</v>
  </separator>
  <separator name="response functions" >
   <i type="logical" name="LFINITE_TEMPERATURE"> F  </i>
   <i type="logical" name="LADDER"> F  </i>
   <i type="logical" name="LRPAFORCE"> F  </i>
   <i type="logical" name="LFXC"> F  </i>
   <i type="logical" name="LHARTREE"> T  </i>
   <i type="int" name="IBSE">     0</i>
   <v type="int" name="KPOINT">    -1     0     0     0</v>
   <i type="logical" name="LTCTC"> F  </i>
   <i type="logical" name="LTCTE"> F  </i>
   <i type="logical" name="LTETE"> F  </i>
   <i type="logical" name="LTRIPLET"> F  </i>
   <i type="logical" name="LFXCEPS"> F  </i>
   <i type="logical" name="LFXHEG"> F  </i>
   <i type="int" name="NATURALO">     2</i>
   <i type="logical" name="LHOLEGF"> F  </i>
   <i type="logical" name="L2ORDER"> F  </i>
   <i type="logical" name="LDMP1"> F  </i>
   <i type="logical" name="LMP2LT"> F  </i>
   <i type="logical" name="LSMP2LT"> F  </i>
   <i type="logical" name="LGWLF"> F  </i>
   <i name="ENCUTGW">     -2.00000000</i>
   <i name="ENCUTGWSOFT">     -2.00000000</i>
   <i name="ENCUTLF">     -1.00000000</i>
   <i type="logical" name="LESF_SPLINES"> F  </i>
   <i type="int" name="LMAXMP2">    -1</i>
   <i name="SCISSOR">      0.00000000</i>
   <i type="int" name="NOMEGA">     0</i>
   <i type="int" name="NOMEGAR">     0</i>
   <i type="int" name="NBANDSGW">    -1</i>
   <i type="int" name="NBANDSO">    -1</i>
   <i type="int" name="NBANDSV">    -1</i>
   <i type="int" name="NELM">   100</i>
   <i type="int" name="NELMHF">     1</i>
   <i type="int" name="DIM">     3</i>
   <i type="int" name="IESPILON">     4</i>
   <i type="int" name="ANTIRES">     0</i>
   <i name="OMEGAMAX">    -30.00000000</i>
   <i name="OMEGAMIN">    -30.00000000</i>
   <i name="OMEGATL">   -200.00000000</i>
   <i type="int" name="OMEGAGRID">     0</i>
   <i name="CSHIFT">     -0.10000000</i>
   <i type="logical" name="LSELFENERGY"> F  </i>
   <i type="logical" name="LSPECTRAL"> F  </i>
   <i type="logical" name="LSPECTRALGW"> F  </i>
   <i type="logical" name="LSINGLES"> F  </i>
   <i type="logical" name="LFERMIGW"> F  </i>
   <i type="logical" name="ODDONLYGW"> F  </i>
   <i type="logical" name="EVENONLYGW"> F  </i>
   <i type="int" name="NKREDLFX">     1</i>
   <i type="int" name="NKREDLFY">     1</i>
   <i type="int" name="NKREDLFZ">     1</i>
   <i type="int" name="MAXMEM">  2800</i>
   <i type="int" name="TELESCOPE">     0</i>
   <i type="int" name="NTAUPAR">    -1</i>
   <i type="int" name="NOMEGAPAR">    -1</i>
   <i name="DAMP_NEWTON">      0.80000001</i>
   <i name="LAMBDA">      1.00000000</i>
  </separator>
  <separator name="External order field" >
   <i name="OFIELD_KAPPA">      0.00000000</i>
   <v name="OFIELD_K">      0.00000000      0.00000000      0.00000000</v>
   <i name="OFIELD_Q6_NEAR">      0.00000000</i>
   <i name="OFIELD_Q6_FAR">      0.00000000</i>
   <i name="OFIELD_A">      0.00000000</i>
  </separator>
 </parameters>
 <atominfo>
  <atoms>      10 </atoms>
  <types>       3 </types>
  <array name="atoms" >
   <dimension dim="1">ion</dimension>
   <field type="string">element</field>
   <field type="int">atomtype</field>
   <set>
    <rc><c>B </c><c>   1</c></rc>
    <rc><c>B </c><c>   1</c></rc>
    <rc><c>Mo</c><c>   2</c></rc>
    <rc><c>Mo</c><c>   2</c></rc>
    <rc><c>Mo</c><c>   2</c></rc>
    <rc><c>Mo</c><c>   2</c></rc>
    <rc><c>Mo</c><c>   2</c></rc>
    <rc><c>Mo</c><c>   2</c></rc>
    <rc><c>Si</c><c>   3</c></rc>
    <rc><c>Si</c><c>   3</c></rc>
   </set>
  </array>
  <array name="atomtypes" >
   <dimension dim="1">type</dimension>
   <field type="int">atomspertype</field>
   <field type="string">element</field>
   <field>mass</field>
   <field>valence</field>
   <field type="string">pseudopotential</field>
   <set>
    <rc><c>   2</c><c>B </c><c>     10.81100000</c><c>      3.00000000</c><c>  PAW_PBE B 06Sep2000                   </c></rc>
    <rc><c>   6</c><c>Mo</c><c>     95.94000000</c><c>     14.00000000</c><c>  PAW_PBE Mo_sv 02Feb2006               </c></rc>
    <rc><c>   2</c><c>Si</c><c>     28.08500000</c><c>      4.00000000</c><c>  PAW_PBE Si 05Jan2001                  </c></rc>
   </set>
  </array>
 </atominfo>
 <structure name="initialpos" >
  <crystal>
   <varray name="basis" >
    <v>       4.87075907       0.00000000      -2.96321477 </v>
    <v>      -1.53927096       4.62114043      -2.96321477 </v>
    <v>       0.00000000       0.00000000       5.70131000 </v>
   </varray>
   <i name="volume">    128.32771750 </i>
   <varray name="rec_basis" >
    <v>       0.20530681       0.06838632       0.00000000 </v>
    <v>       0.00000000       0.21639680       0.00000000 </v>
    <v>       0.10670673       0.14801398       0.17539829 </v>
   </varray>
  </crystal>
  <varray name="positions" >
   <v>       0.50000000       0.00000000       0.50000000 </v>
   <v>       0.00000000       0.50000000       0.50000000 </v>
   <v>       0.25000000       0.25000000       0.00000000 </v>
   <v>       0.23178000       0.73178000       0.96356000 </v>
   <v>       0.75000000       0.75000000       0.00000000 </v>
   <v>       0.76822000       0.26822000       0.03644000 </v>
   <v>       0.73178000       0.76822000       0.50000000 </v>
   <v>       0.26822000       0.23178000       0.50000000 </v>
   <v>       0.75000000       0.25000000       0.50000000 </v>
   <v>       0.25000000       0.75000000       0.50000000 </v>
  </varray>
 </structure>
 <calculation>
  <scstep>
   <time name="total">   21.84   22.01</time>
   <energy>
    <i name="alphaZ">    651.02416905 </i>
    <i name="ewald">  -9706.37173969 </i>
    <i name="hartreedc">  -2215.63983120 </i>
    <i name="XCdc">    471.34091815 </i>
    <i name="pawpsdc">   9166.97638771 </i>
    <i name="pawaedc">  -9126.13493418 </i>
    <i name="eentropy">     -0.00064828 </i>
    <i name="bandstr">    334.96637471 </i>
    <i name="atom">  11522.16744521 </i>
    <i name="e_fr_energy">   1098.32814148 </i>
    <i name="e_wo_entrp">   1098.32878976 </i>
    <i name="e_0_energy">   1098.32846562 </i>
   </energy>
  </scstep>
  <scstep>
   <time name="total">   22.14   22.29</time>
   <energy>
    <i name="e_fr_energy">   -176.31254092 </i>
    <i name="e_wo_entrp">   -176.31108244 </i>
    <i name="e_0_energy">   -176.31181168 </i>
   </energy>
  </scstep>
  <scstep>
   <time name="total">   24.73   24.91</time>
   <energy>
    <i name="e_fr_energy">   -227.73815229 </i>
    <i name="e_wo_entrp">   -227.73723685 </i>
    <i name="e_0_energy">   -227.73769457 </i>
   </energy>
  </scstep>
  <scstep>
   <time name="total">   23.09   23.26</time>
   <energy>
    <i name="e_fr_energy">   -228.62588496 </i>
    <i name="e_wo_entrp">   -228.62467969 </i>
    <i name="e_0_energy">   -228.62528232 </i>
   </energy>
  </scstep>
  <scstep>
   <time name="total">   26.07   26.25</time>
   <energy>
    <i name="e_fr_energy">   -228.64676063 </i>
    <i name="e_wo_entrp">   -228.64555185 </i>
    <i name="e_0_energy">   -228.64615624 </i>
   </energy>
  </scstep>
  <scstep>
   <time name="total">   25.10   25.28</time>
   <energy>
    <i name="e_fr_energy">   -147.28680485 </i>
    <i name="e_wo_entrp">   -147.28515989 </i>
    <i name="e_0_energy">   -147.28598237 </i>
   </energy>
  </scstep>
  <scstep>
   <time name="total">   25.13   25.31</time>
   <energy>
    <i name="e_fr_energy">   -174.80176391 </i>
    <i name="e_wo_entrp">   -174.79982507 </i>
    <i name="e_0_energy">   -174.80079449 </i>
   </energy>
  </scstep>
  <scstep>
   <time name="total">   25.30   25.48</time>
   <energy>
    <i name="e_fr_energy">   -179.67541787 </i>
    <i name="e_wo_entrp">   -179.67354304 </i>
    <i name="e_0_energy">   -179.67448046 </i>
   </energy>
  </scstep>
  <scstep>
   <time name="total">   25.04   25.22</time>
   <energy>
    <i name="e_fr_energy">   -180.67893864 </i>
    <i name="e_wo_entrp">   -180.67682522 </i>
    <i name="e_0_energy">   -180.67788193 </i>
   </energy>
  </scstep>
  <scstep>
   <time name="total">   24.89   25.08</time>
   <energy>
    <i name="e_fr_energy">   -181.00405294 </i>
    <i name="e_wo_entrp">   -181.00204309 </i>
    <i name="e_0_energy">   -181.00304802 </i>
   </energy>
  </scstep>
  <scstep>
   <time name="total">   25.11   25.28</time>
   <energy>
    <i name="e_fr_energy">   -181.12464521 </i>
    <i name="e_wo_entrp">   -181.12251363 </i>
    <i name="e_0_energy">   -181.12357942 </i>
   </energy>
  </scstep>
  <scstep>
   <time name="total">   25.33   25.51</time>
   <energy>
    <i name="e_fr_energy">   -181.18459218 </i>
    <i name="e_wo_entrp">   -181.18248961 </i>
    <i name="e_0_energy">   -181.18354090 </i>
   </energy>
  </scstep>
  <scstep>
   <time name="total">   24.96   25.15</time>
   <energy>
    <i name="e_fr_energy">   -181.20895504 </i>
    <i name="e_wo_entrp">   -181.20691063 </i>
    <i name="e_0_energy">   -181.20793283 </i>
   </energy>
  </scstep>
  <scstep>
   <time name="total">   24.99   25.18</time>
   <energy>
    <i name="e_fr_energy">   -181.22062228 </i>
    <i name="e_wo_entrp">   -181.21861727 </i>
    <i name="e_0_energy">   -181.21961977 </i>
   </energy>
  </scstep>
  <scstep>
   <time name="total">   25.14   25.32</time>
   <energy>
    <i name="e_fr_energy">   -181.22526540 </i>
    <i name="e_wo_entrp">   -181.22327091 </i>
    <i name="e_0_energy">   -181.22426815 </i>
   </energy>
  </scstep>
  <scstep>
   <time name="total">   25.25   25.43</time>
   <energy>
    <i name="e_fr_energy">   -181.22679439 </i>
    <i name="e_wo_entrp">   -181.22478732 </i>
    <i name="e_0_energy">   -181.22579086 </i>
   </energy>
  </scstep>
  <scstep>
   <time name="total">   25.03   25.21</time>
   <energy>
    <i name="e_fr_energy">   -181.22755109 </i>
    <i name="e_wo_entrp">   -181.22553053 </i>
    <i name="e_0_energy">   -181.22654081 </i>
   </energy>
  </scstep>
  <scstep>
   <time name="total">   24.95   25.14</time>
   <energy>
    <i name="e_fr_energy">   -181.22796525 </i>
    <i name="e_wo_entrp">   -181.22593369 </i>
    <i name="e_0_energy">   -181.22694947 </i>
   </energy>
  </scstep>
  <scstep>
   <time name="total">   25.07   25.25</time>
   <energy>
    <i name="e_fr_energy">   -181.22812068 </i>
    <i name="e_wo_entrp">   -181.22608471 </i>
    <i name="e_0_energy">   -181.22710270 </i>
   </energy>
  </scstep>
  <scstep>
   <time name="total">   25.05   25.23</time>
   <energy>
    <i name="e_fr_energy">   -181.22817042 </i>
    <i name="e_wo_entrp">   -181.22613074 </i>
    <i name="e_0_energy">   -181.22715058 </i>
   </energy>
  </scstep>
  <scstep>
   <time name="total">   25.72   25.90</time>
   <energy>
    <i name="e_fr_energy">   -181.22819690 </i>
    <i name="e_wo_entrp">   -181.22615559 </i>
    <i name="e_0_energy">   -181.22717624 </i>
   </energy>
  </scstep>
  <scstep>
   <time name="total">   25.46   25.64</time>
   <energy>
    <i name="e_fr_energy">   -181.22821211 </i>
    <i name="e_wo_entrp">   -181.22617085 </i>
    <i name="e_0_energy">   -181.22719148 </i>
   </energy>
  </scstep>
  <scstep>
   <time name="total">   25.47   25.65</time>
   <energy>
    <i name="e_fr_energy">   -181.22821775 </i>
    <i name="e_wo_entrp">   -181.22617709 </i>
    <i name="e_0_energy">   -181.22719742 </i>
   </energy>
  </scstep>
  <scstep>
   <time name="total">   25.58   25.76</time>
   <energy>
    <i name="e_fr_energy">   -181.22821946 </i>
    <i name="e_wo_entrp">   -181.22617947 </i>
    <i name="e_0_energy">   -181.22719946 </i>
   </energy>
  </scstep>
  <scstep>
   <time name="total">   25.40   25.59</time>
   <energy>
    <i name="e_fr_energy">   -181.22822059 </i>
    <i name="e_wo_entrp">   -181.22618113 </i>
    <i name="e_0_energy">   -181.22720086 </i>
   </energy>
  </scstep>
  <scstep>
   <time name="total">   25.55   25.73</time>
   <energy>
    <i name="e_fr_energy">   -181.22822102 </i>
    <i name="e_wo_entrp">   -181.22618194 </i>
    <i name="e_0_energy">   -181.22720148 </i>
   </energy>
  </scstep>
  <scstep>
   <time name="total">   25.52   25.71</time>
   <energy>
    <i name="e_fr_energy">   -181.22822117 </i>
    <i name="e_wo_entrp">   -181.22618239 </i>
    <i name="e_0_energy">   -181.22720178 </i>
   </energy>
  </scstep>
  <scstep>
   <time name="total">   25.79   25.97</time>
   <energy>
    <i name="e_fr_energy">   -181.22822127 </i>
    <i name="e_wo_entrp">   -181.22618284 </i>
    <i name="e_0_energy">   -181.22720206 </i>
   </energy>
  </scstep>
  <scstep>
   <time name="total">   25.41   25.59</time>
   <energy>
    <i name="e_fr_energy">   -181.22822129 </i>
    <i name="e_wo_entrp">   -181.22618277 </i>
    <i name="e_0_energy">   -181.22720203 </i>
   </energy>
  </scstep>
  <scstep>
   <time name="total">   25.51   25.69</time>
   <energy>
    <i name="e_fr_energy">   -181.22822134 </i>
    <i name="e_wo_entrp">   -181.22618277 </i>
    <i name="e_0_energy">   -181.22720205 </i>
   </energy>
  </scstep>
  <scstep>
   <time name="total">   43.91   44.21</time>
   <energy>
    <i name="e_fr_energy">   -181.22822134 </i>
    <i name="e_wo_entrp">   -181.22618248 </i>
    <i name="e_0_energy">   -181.22720191 </i>
   </energy>
  </scstep>
  <scstep>
   <time name="total">   25.41   25.59</time>
   <energy>
    <i name="e_fr_energy">   -181.22822133 </i>
    <i name="e_wo_entrp">   -181.22618247 </i>
    <i name="e_0_energy">   -181.22720190 </i>
   </energy>
  </scstep>
  <scstep>
   <time name="total">   25.26   25.44</time>
   <energy>
    <i name="e_fr_energy">   -181.22822135 </i>
    <i name="e_wo_entrp">   -181.22618251 </i>
    <i name="e_0_energy">   -181.22720193 </i>
   </energy>
  </scstep>
  <scstep>
   <time name="total">   25.43   25.61</time>
   <energy>
    <i name="e_fr_energy">   -181.22822136 </i>
    <i name="e_wo_entrp">   -181.22618253 </i>
    <i name="e_0_energy">   -181.22720195 </i>
   </energy>
  </scstep>
  <scstep>
   <time name="total">   28.77   28.98</time>
   <energy>
    <i name="alphaZ">    651.02416905 </i>
    <i name="ewald">  -9706.37173969 </i>
    <i name="hartreedc">  -2085.29832048 </i>
    <i name="XCdc">    480.77993959 </i>
    <i name="pawpsdc">  13185.21881195 </i>
    <i name="pawaedc"> -13165.37761787 </i>
    <i name="eentropy">     -0.00203882 </i>
    <i name="bandstr">  -1063.36887030 </i>
    <i name="atom">  11522.16744521 </i>
    <i name="e_fr_energy">   -181.22822136 </i>
    <i name="e_wo_entrp">   -181.22618254 </i>
    <i name="e_0_energy">   -181.22720195 </i>
   </energy>
  </scstep>
  <structure>
   <crystal>
    <varray name="basis" >
     <v>       4.87075907       0.00000000      -2.96321477 </v>
     <v>      -1.53927096       4.62114043      -2.96321477 </v>
     <v>       0.00000000       0.00000000       5.70131000 </v>
    </varray>
    <i name="volume">    128.32771750 </i>
    <varray name="rec_basis" >
     <v>       0.20530681       0.06838632       0.00000000 </v>
     <v>       0.00000000       0.21639680       0.00000000 </v>
     <v>       0.10670673       0.14801398       0.17539829 </v>
    </varray>
   </crystal>
   <varray name="positions" >
    <v>       0.50000000       0.00000000       0.50000000 </v>
    <v>       0.00000000       0.50000000       0.50000000 </v>
    <v>       0.25000000       0.25000000       0.00000000 </v>
    <v>       0.23178000       0.73178000       0.96356000 </v>
    <v>       0.75000000       0.75000000       0.00000000 </v>
    <v>       0.76822000       0.26822000       0.03644000 </v>
    <v>       0.73178000       0.76822000       0.50000000 </v>
    <v>       0.26822000       0.23178000       0.50000000 </v>
    <v>       0.75000000       0.25000000       0.50000000 </v>
    <v>       0.25000000       0.75000000       0.50000000 </v>
   </varray>
  </structure>
  <varray name="forces" >
   <v>       0.00000000       0.00000000       0.00000000 </v>
   <v>       0.00000000       0.00000000       0.00000000 </v>
   <v>       0.00000000       0.00000000       0.00000000 </v>
   <v>       0.00000000       0.00000000       0.00000000 </v>
   <v>       0.00000000       0.00000000       0.00000000 </v>
   <v>       0.00000000       0.00000000       0.00000000 </v>
   <v>       0.00000000       0.00000000       0.00000000 </v>
   <v>       0.00000000       0.00000000       0.00000000 </v>
   <v>       0.00000000       0.00000000       0.00000000 </v>
   <v>       0.00000000       0.00000000       0.00000000 </v>
  </varray>
  <varray name="stress" >
   <v>       0.00000000       0.00000000       0.00000000 </v>
   <v>       0.00000000       0.00000000       0.00000000 </v>
   <v>       0.00000000       0.00000000       0.00000000 </v>
  </varray>
  <energy>
   <i name="e_fr_energy">   -181.22822136 </i>
   <i name="e_wo_entrp">   -181.22618254 </i>
   <i name="e_0_energy">   -181.22720195 </i>
  </energy>
  <time name="totalsc">  901.61  908.13</time>
  <eigenvalues>
   <array>
    <dimension dim="1">band</dimension>
    <dimension dim="2">kpoint</dimension>
    <dimension dim="3">spin</dimension>
    <field>eigene</field>
    <field>occ</field>
    <set>
     <set comment="spin 1">
      <set comment="kpoint 1">
       <r>  -50.6485    1.0000 </r>
       <r>  -50.5773    1.0000 </r>
       <r>  -50.4145    1.0000 </r>
       <r>  -50.3832    1.0000 </r>
       <r>  -50.3832    1.0000 </r>
       <r>  -50.2813    1.0000 </r>
       <r>  -24.7560    1.0000 </r>
       <r>  -24.5937    1.0000 </r>
       <r>  -24.4990    1.0000 </r>
       <r>  -24.4989    1.0000 </r>
       <r>  -24.4344    1.0000 </r>
       <r>  -24.3209    1.0000 </r>
       <r>  -24.3208    1.0000 </r>
       <r>  -23.9641    1.0000 </r>
       <r>  -23.9639    1.0000 </r>
       <r>  -23.7815    1.0000 </r>
       <r>  -23.6508    1.0000 </r>
       <r>  -23.5447    1.0000 </r>
       <r>  -23.5446    1.0000 </r>
       <r>  -23.5293    1.0000 </r>
       <r>  -23.5154    1.0000 </r>
       <r>  -23.3599    1.0000 </r>
       <r>  -23.3598    1.0000 </r>
       <r>  -23.2109    1.0000 </r>
       <r>   -0.7318    1.0000 </r>
       <r>    1.1736    1.0000 </r>
       <r>    4.7625    1.0000 </r>
       <r>    4.8214    1.0000 </r>
       <r>    5.5242    1.0000 </r>
       <r>    5.5242    1.0000 </r>
       <r>    6.4672    1.0000 </r>
       <r>    6.6844    1.0000 </r>
       <r>    7.8078    1.0000 </r>
       <r>    7.9313    1.0000 </r>
       <r>    8.0092    1.0000 </r>
       <r>    8.0092    1.0000 </r>
       <r>    8.0948    1.0000 </r>
       <r>    8.9208    1.0000 </r>
       <r>    8.9209    1.0000 </r>
       <r>    9.1031    1.0000 </r>
       <r>    9.1031    1.0000 </r>
       <r>   10.2598    1.0000 </r>
       <r>   10.2599    1.0000 </r>
       <r>   11.3155    1.0000 </r>
       <r>   11.5961    1.0000 </r>
       <r>   11.8233    1.0000 </r>
       <r>   11.8233    1.0000 </r>
       <r>   12.2413    1.0000 </r>
       <r>   12.2415    1.0000 </r>
       <r>   12.2582    0.9993 </r>
       <r>   12.4910    0.0000 </r>
       <r>   13.3106    0.0000 </r>
       <r>   13.4710    0.0000 </r>
       <r>   13.8128    0.0000 </r>
       <r>   14.4515    0.0000 </r>
       <r>   14.8017    0.0000 </r>
       <r>   14.9194    0.0000 </r>
       <r>   14.9194    0.0000 </r>
       <r>   15.4917    0.0000 </r>
       <r>   16.0373    0.0000 </r>
      </set>
      <set comment="kpoint 2">
       <r>  -50.6437    1.0000 </r>
       <r>  -50.5776    1.0000 </r>
       <r>  -50.4155    1.0000 </r>
       <r>  -50.3870    1.0000 </r>
       <r>  -50.3794    1.0000 </r>
       <r>  -50.2853    1.0000 </r>
       <r>  -24.7375    1.0000 </r>
       <r>  -24.5669    1.0000 </r>
       <r>  -24.5011    1.0000 </r>
       <r>  -24.4645    1.0000 </r>
       <r>  -24.4157    1.0000 </r>
       <r>  -24.3074    1.0000 </r>
       <r>  -24.3044    1.0000 </r>
       <r>  -23.9728    1.0000 </r>
       <r>  -23.9619    1.0000 </r>
       <r>  -23.7850    1.0000 </r>
       <r>  -23.6748    1.0000 </r>
       <r>  -23.5674    1.0000 </r>
       <r>  -23.5581    1.0000 </r>
       <r>  -23.5461    1.0000 </r>
       <r>  -23.5225    1.0000 </r>
       <r>  -23.3907    1.0000 </r>
       <r>  -23.3603    1.0000 </r>
       <r>  -23.2278    1.0000 </r>
       <r>   -0.6124    1.0000 </r>
       <r>    1.2406    1.0000 </r>
       <r>    4.2980    1.0000 </r>
       <r>    4.6917    1.0000 </r>
       <r>    5.6564    1.0000 </r>
       <r>    6.0162    1.0000 </r>
       <r>    6.4327    1.0000 </r>
       <r>    6.7444    1.0000 </r>
       <r>    7.7012    1.0000 </r>
       <r>    7.9156    1.0000 </r>
       <r>    8.0619    1.0000 </r>
       <r>    8.1445    1.0000 </r>
       <r>    8.2655    1.0000 </r>
       <r>    8.8439    1.0000 </r>
       <r>    8.8576    1.0000 </r>
       <r>    9.1129    1.0000 </r>
       <r>    9.1925    1.0000 </r>
       <r>   10.0503    1.0000 </r>
       <r>   10.1503    1.0000 </r>
       <r>   11.3213    1.0000 </r>
       <r>   11.5336    1.0000 </r>
       <r>   11.6895    1.0000 </r>
       <r>   11.9066    1.0000 </r>
       <r>   12.2405    1.0000 </r>
       <r>   12.2769    0.9694 </r>
       <r>   12.3405    0.0043 </r>
       <r>   12.5021    0.0000 </r>
       <r>   13.2572    0.0000 </r>
       <r>   13.4601    0.0000 </r>
       <r>   13.5312    0.0000 </r>
       <r>   14.3699    0.0000 </r>
       <r>   14.8993    0.0000 </r>
       <r>   14.9109    0.0000 </r>
       <r>   15.1118    0.0000 </r>
       <r>   15.3681    0.0000 </r>
       <r>   16.2222    0.0000 </r>
      </set>
      <set comment="kpoint 3">
       <r>  -50.6307    1.0000 </r>
       <r>  -50.5792    1.0000 </r>
       <r>  -50.4177    1.0000 </r>
       <r>  -50.3968    1.0000 </r>
       <r>  -50.3685    1.0000 </r>
       <r>  -50.2964    1.0000 </r>
       <r>  -24.6915    1.0000 </r>
       <r>  -24.5148    1.0000 </r>
       <r>  -24.4901    1.0000 </r>
       <r>  -24.3723    1.0000 </r>
       <r>  -24.3631    1.0000 </r>
       <r>  -24.2587    1.0000 </r>
       <r>  -24.2586    1.0000 </r>
       <r>  -23.9917    1.0000 </r>
       <r>  -23.9668    1.0000 </r>
       <r>  -23.7843    1.0000 </r>
       <r>  -23.7490    1.0000 </r>
       <r>  -23.6480    1.0000 </r>
       <r>  -23.6210    1.0000 </r>
       <r>  -23.5916    1.0000 </r>
       <r>  -23.5242    1.0000 </r>
       <r>  -23.4518    1.0000 </r>
       <r>  -23.3596    1.0000 </r>
       <r>  -23.2672    1.0000 </r>
       <r>   -0.2689    1.0000 </r>
       <r>    1.3730    1.0000 </r>
       <r>    3.6333    1.0000 </r>
       <r>    4.4501    1.0000 </r>
       <r>    6.0207    1.0000 </r>
       <r>    6.3387    1.0000 </r>
       <r>    6.5751    1.0000 </r>
       <r>    7.0788    1.0000 </r>
       <r>    7.4084    1.0000 </r>
       <r>    7.8802    1.0000 </r>
       <r>    8.0141    1.0000 </r>
       <r>    8.4012    1.0000 </r>
       <r>    8.6649    1.0000 </r>
       <r>    8.8657    1.0000 </r>
       <r>    8.9646    1.0000 </r>
       <r>    9.0351    1.0000 </r>
       <r>    9.4107    1.0000 </r>
       <r>    9.7700    1.0000 </r>
       <r>    9.8204    1.0000 </r>
       <r>   11.1170    1.0000 </r>
       <r>   11.2821    1.0000 </r>
       <r>   11.5489    1.0000 </r>
       <r>   12.0189    1.0000 </r>
       <r>   12.0697    1.0000 </r>
       <r>   12.2005    1.0000 </r>
       <r>   12.4778    0.0000 </r>
       <r>   12.5269    0.0000 </r>
       <r>   13.1405    0.0000 </r>
       <r>   13.4602    0.0000 </r>
       <r>   13.4627    0.0000 </r>
       <r>   14.1185    0.0000 </r>
       <r>   14.5855    0.0000 </r>
       <r>   14.8329    0.0000 </r>
       <r>   15.0416    0.0000 </r>
       <r>   15.4146    0.0000 </r>
       <r>   15.4753    0.0000 </r>
      </set>
      <set comment="kpoint 4">
       <r>  -50.6132    1.0000 </r>
       <r>  -50.5847    1.0000 </r>
       <r>  -50.4189    1.0000 </r>
       <r>  -50.4082    1.0000 </r>
       <r>  -50.3521    1.0000 </r>
       <r>  -50.3131    1.0000 </r>
       <r>  -24.6354    1.0000 </r>
       <r>  -24.5424    1.0000 </r>
       <r>  -24.3944    1.0000 </r>
       <r>  -24.3150    1.0000 </r>
       <r>  -24.2495    1.0000 </r>
       <r>  -24.1966    1.0000 </r>
       <r>  -24.1515    1.0000 </r>
       <r>  -23.9928    1.0000 </r>
       <r>  -23.9918    1.0000 </r>
       <r>  -23.8685    1.0000 </r>
       <r>  -23.7654    1.0000 </r>
       <r>  -23.7649    1.0000 </r>
       <r>  -23.7574    1.0000 </r>
       <r>  -23.6461    1.0000 </r>
       <r>  -23.5204    1.0000 </r>
       <r>  -23.4912    1.0000 </r>
       <r>  -23.3530    1.0000 </r>
       <r>  -23.3075    1.0000 </r>
       <r>    0.2512    1.0000 </r>
       <r>    1.3077    1.0000 </r>
       <r>    3.3207    1.0000 </r>
       <r>    4.0278    1.0000 </r>
       <r>    6.3500    1.0000 </r>
       <r>    6.5228    1.0000 </r>
       <r>    6.6967    1.0000 </r>
       <r>    7.1772    1.0000 </r>
       <r>    7.5360    1.0000 </r>
       <r>    7.9471    1.0000 </r>
       <r>    7.9603    1.0000 </r>
       <r>    8.6319    1.0000 </r>
       <r>    8.6354    1.0000 </r>
       <r>    8.8657    1.0000 </r>
       <r>    9.3128    1.0000 </r>
       <r>    9.3549    1.0000 </r>
       <r>    9.4062    1.0000 </r>
       <r>    9.5430    1.0000 </r>
       <r>    9.7582    1.0000 </r>
       <r>   10.4894    1.0000 </r>
       <r>   11.2572    1.0000 </r>
       <r>   11.5266    1.0000 </r>
       <r>   11.7741    1.0000 </r>
       <r>   11.8409    1.0000 </r>
       <r>   12.2694    0.9919 </r>
       <r>   12.3329    0.0183 </r>
       <r>   12.6889    0.0000 </r>
       <r>   13.1832    0.0000 </r>
       <r>   13.3981    0.0000 </r>
       <r>   13.4188    0.0000 </r>
       <r>   13.7071    0.0000 </r>
       <r>   13.9431    0.0000 </r>
       <r>   14.5395    0.0000 </r>
       <r>   14.6420    0.0000 </r>
       <r>   15.5389    0.0000 </r>
       <r>   15.5957    0.0000 </r>
      </set>
      <set comment="kpoint 5">
       <r>  -50.5963    1.0000 </r>
       <r>  -50.5963    1.0000 </r>
       <r>  -50.4163    1.0000 </r>
       <r>  -50.4163    1.0000 </r>
       <r>  -50.3326    1.0000 </r>
       <r>  -50.3326    1.0000 </r>
       <r>  -24.5833    1.0000 </r>
       <r>  -24.5833    1.0000 </r>
       <r>  -24.3268    1.0000 </r>
       <r>  -24.3267    1.0000 </r>
       <r>  -24.1584    1.0000 </r>
       <r>  -24.1584    1.0000 </r>
       <r>  -24.0280    1.0000 </r>
       <r>  -24.0280    1.0000 </r>
       <r>  -23.9600    1.0000 </r>
       <r>  -23.9600    1.0000 </r>
       <r>  -23.8703    1.0000 </r>
       <r>  -23.8702    1.0000 </r>
       <r>  -23.7061    1.0000 </r>
       <r>  -23.7061    1.0000 </r>
       <r>  -23.5108    1.0000 </r>
       <r>  -23.5108    1.0000 </r>
       <r>  -23.3365    1.0000 </r>
       <r>  -23.3365    1.0000 </r>
       <r>    0.8493    1.0000 </r>
       <r>    0.8493    1.0000 </r>
       <r>    3.5534    1.0000 </r>
       <r>    3.5534    1.0000 </r>
       <r>    6.4883    1.0000 </r>
       <r>    6.4883    1.0000 </r>
       <r>    6.9669    1.0000 </r>
       <r>    6.9670    1.0000 </r>
       <r>    7.8420    1.0000 </r>
       <r>    7.8420    1.0000 </r>
       <r>    8.2752    1.0000 </r>
       <r>    8.2753    1.0000 </r>
       <r>    8.8349    1.0000 </r>
       <r>    8.8349    1.0000 </r>
       <r>    9.2214    1.0000 </r>
       <r>    9.2214    1.0000 </r>
       <r>    9.7221    1.0000 </r>
       <r>    9.7221    1.0000 </r>
       <r>    9.9690    1.0000 </r>
       <r>    9.9690    1.0000 </r>
       <r>   11.4202    1.0000 </r>
       <r>   11.4202    1.0000 </r>
       <r>   11.6569    1.0000 </r>
       <r>   11.6569    1.0000 </r>
       <r>   12.2122    1.0000 </r>
       <r>   12.2122    1.0000 </r>
       <r>   13.0462    0.0000 </r>
       <r>   13.0462    0.0000 </r>
       <r>   13.3843    0.0000 </r>
       <r>   13.3843    0.0000 </r>
       <r>   13.5353    0.0000 </r>
       <r>   13.5353    0.0000 </r>
       <r>   14.4127    0.0000 </r>
       <r>   14.4127    0.0000 </r>
       <r>   15.6834    0.0000 </r>
       <r>   15.8397    0.0000 </r>
      </set>
      <set comment="kpoint 6">
       <r>  -50.6358    1.0000 </r>
       <r>  -50.5783    1.0000 </r>
       <r>  -50.4197    1.0000 </r>
       <r>  -50.3832    1.0000 </r>
       <r>  -50.3829    1.0000 </r>
       <r>  -50.2891    1.0000 </r>
       <r>  -24.7179    1.0000 </r>
       <r>  -24.5283    1.0000 </r>
       <r>  -24.4706    1.0000 </r>
       <r>  -24.4591    1.0000 </r>
       <r>  -24.3785    1.0000 </r>
       <r>  -24.2922    1.0000 </r>
       <r>  -24.2586    1.0000 </r>
       <r>  -23.9735    1.0000 </r>
       <r>  -23.9724    1.0000 </r>
       <r>  -23.7848    1.0000 </r>
       <r>  -23.6987    1.0000 </r>
       <r>  -23.6275    1.0000 </r>
       <r>  -23.5885    1.0000 </r>
       <r>  -23.5726    1.0000 </r>
       <r>  -23.5345    1.0000 </r>
       <r>  -23.3952    1.0000 </r>
       <r>  -23.3905    1.0000 </r>
       <r>  -23.2440    1.0000 </r>
       <r>   -0.4300    1.0000 </r>
       <r>    1.3294    1.0000 </r>
       <r>    4.0742    1.0000 </r>
       <r>    4.3814    1.0000 </r>
       <r>    5.5837    1.0000 </r>
       <r>    6.3173    1.0000 </r>
       <r>    6.4889    1.0000 </r>
       <r>    7.0356    1.0000 </r>
       <r>    7.6094    1.0000 </r>
       <r>    7.9526    1.0000 </r>
       <r>    8.0907    1.0000 </r>
       <r>    8.2380    1.0000 </r>
       <r>    8.4953    1.0000 </r>
       <r>    8.6819    1.0000 </r>
       <r>    8.8779    1.0000 </r>
       <r>    9.2588    1.0000 </r>
       <r>    9.2711    1.0000 </r>
       <r>    9.8753    1.0000 </r>
       <r>   10.0886    1.0000 </r>
       <r>   11.3388    1.0000 </r>
       <r>   11.3873    1.0000 </r>
       <r>   11.5672    1.0000 </r>
       <r>   11.9554    1.0000 </r>
       <r>   12.1290    1.0000 </r>
       <r>   12.3020    0.5388 </r>
       <r>   12.3639    0.0000 </r>
       <r>   12.4362    0.0000 </r>
       <r>   13.3246    0.0000 </r>
       <r>   13.3297    0.0000 </r>
       <r>   13.5124    0.0000 </r>
       <r>   14.1447    0.0000 </r>
       <r>   14.8205    0.0000 </r>
       <r>   15.0102    0.0000 </r>
       <r>   15.2838    0.0000 </r>
       <r>   15.4802    0.0000 </r>
       <r>   15.6122    0.0000 </r>
      </set>
      <set comment="kpoint 7">
       <r>  -50.6210    1.0000 </r>
       <r>  -50.5812    1.0000 </r>
       <r>  -50.4238    1.0000 </r>
       <r>  -50.3918    1.0000 </r>
       <r>  -50.3719    1.0000 </r>
       <r>  -50.3001    1.0000 </r>
       <r>  -24.6682    1.0000 </r>
       <r>  -24.4867    1.0000 </r>
       <r>  -24.4478    1.0000 </r>
       <r>  -24.3742    1.0000 </r>
       <r>  -24.3139    1.0000 </r>
       <r>  -24.2474    1.0000 </r>
       <r>  -24.1778    1.0000 </r>
       <r>  -23.9988    1.0000 </r>
       <r>  -23.9840    1.0000 </r>
       <r>  -23.7724    1.0000 </r>
       <r>  -23.7685    1.0000 </r>
       <r>  -23.7325    1.0000 </r>
       <r>  -23.6752    1.0000 </r>
       <r>  -23.6160    1.0000 </r>
       <r>  -23.5400    1.0000 </r>
       <r>  -23.4486    1.0000 </r>
       <r>  -23.3927    1.0000 </r>
       <r>  -23.2823    1.0000 </r>
       <r>   -0.0360    1.0000 </r>
       <r>    1.4125    1.0000 </r>
       <r>    3.7029    1.0000 </r>
       <r>    4.0005    1.0000 </r>
       <r>    5.7733    1.0000 </r>
       <r>    6.4992    1.0000 </r>
       <r>    6.7040    1.0000 </r>
       <r>    7.3371    1.0000 </r>
       <r>    7.4196    1.0000 </r>
       <r>    7.9412    1.0000 </r>
       <r>    8.0572    1.0000 </r>
       <r>    8.4610    1.0000 </r>
       <r>    8.5106    1.0000 </r>
       <r>    8.9232    1.0000 </r>
       <r>    9.1302    1.0000 </r>
       <r>    9.3039    1.0000 </r>
       <r>    9.5117    1.0000 </r>
       <r>    9.6722    1.0000 </r>
       <r>    9.8375    1.0000 </r>
       <r>   10.8181    1.0000 </r>
       <r>   11.3383    1.0000 </r>
       <r>   11.4950    1.0000 </r>
       <r>   11.8221    1.0000 </r>
       <r>   12.0167    1.0000 </r>
       <r>   12.1273    1.0000 </r>
       <r>   12.3940    0.0000 </r>
       <r>   12.6313    0.0000 </r>
       <r>   13.1858    0.0000 </r>
       <r>   13.3007    0.0000 </r>
       <r>   13.5347    0.0000 </r>
       <r>   13.8161    0.0000 </r>
       <r>   14.4375    0.0000 </r>
       <r>   14.8702    0.0000 </r>
       <r>   15.1226    0.0000 </r>
       <r>   15.2644    0.0000 </r>
       <r>   15.6997    0.0000 </r>
      </set>
      <set comment="kpoint 8">
       <r>  -50.6039    1.0000 </r>
       <r>  -50.5886    1.0000 </r>
       <r>  -50.4247    1.0000 </r>
       <r>  -50.4014    1.0000 </r>
       <r>  -50.3553    1.0000 </r>
       <r>  -50.3166    1.0000 </r>
       <r>  -24.6079    1.0000 </r>
       <r>  -24.5136    1.0000 </r>
       <r>  -24.3651    1.0000 </r>
       <r>  -24.2972    1.0000 </r>
       <r>  -24.2324    1.0000 </r>
       <r>  -24.1782    1.0000 </r>
       <r>  -24.0678    1.0000 </r>
       <r>  -24.0446    1.0000 </r>
       <r>  -23.9791    1.0000 </r>
       <r>  -23.8810    1.0000 </r>
       <r>  -23.8517    1.0000 </r>
       <r>  -23.8057    1.0000 </r>
       <r>  -23.7243    1.0000 </r>
       <r>  -23.6766    1.0000 </r>
       <r>  -23.5385    1.0000 </r>
       <r>  -23.4897    1.0000 </r>
       <r>  -23.3851    1.0000 </r>
       <r>  -23.3216    1.0000 </r>
       <r>    0.5127    1.0000 </r>
       <r>    1.2270    1.0000 </r>
       <r>    3.5628    1.0000 </r>
       <r>    3.6637    1.0000 </r>
       <r>    6.1035    1.0000 </r>
       <r>    6.4739    1.0000 </r>
       <r>    6.8345    1.0000 </r>
       <r>    7.0732    1.0000 </r>
       <r>    7.8763    1.0000 </r>
       <r>    7.9791    1.0000 </r>
       <r>    8.0120    1.0000 </r>
       <r>    8.5052    1.0000 </r>
       <r>    8.5922    1.0000 </r>
       <r>    8.9626    1.0000 </r>
       <r>    9.2519    1.0000 </r>
       <r>    9.4191    1.0000 </r>
       <r>    9.6709    1.0000 </r>
       <r>    9.7159    1.0000 </r>
       <r>    9.8390    1.0000 </r>
       <r>   10.1846    1.0000 </r>
       <r>   11.3598    1.0000 </r>
       <r>   11.4094    1.0000 </r>
       <r>   11.5602    1.0000 </r>
       <r>   11.7360    1.0000 </r>
       <r>   12.1681    1.0000 </r>
       <r>   12.4010    0.0000 </r>
       <r>   12.8282    0.0000 </r>
       <r>   13.1138    0.0000 </r>
       <r>   13.3186    0.0000 </r>
       <r>   13.4043    0.0000 </r>
       <r>   13.5114    0.0000 </r>
       <r>   13.9449    0.0000 </r>
       <r>   14.5967    0.0000 </r>
       <r>   14.7178    0.0000 </r>
       <r>   15.4070    0.0000 </r>
       <r>   15.9560    0.0000 </r>
      </set>
      <set comment="kpoint 9">
       <r>  -50.6016    1.0000 </r>
       <r>  -50.5896    1.0000 </r>
       <r>  -50.4194    1.0000 </r>
       <r>  -50.4080    1.0000 </r>
       <r>  -50.3361    1.0000 </r>
       <r>  -50.3359    1.0000 </r>
       <r>  -24.5562    1.0000 </r>
       <r>  -24.5528    1.0000 </r>
       <r>  -24.3193    1.0000 </r>
       <r>  -24.3122    1.0000 </r>
       <r>  -24.1840    1.0000 </r>
       <r>  -24.1523    1.0000 </r>
       <r>  -24.0738    1.0000 </r>
       <r>  -24.0286    1.0000 </r>
       <r>  -23.9788    1.0000 </r>
       <r>  -23.9607    1.0000 </r>
       <r>  -23.8621    1.0000 </r>
       <r>  -23.8274    1.0000 </r>
       <r>  -23.7379    1.0000 </r>
       <r>  -23.6628    1.0000 </r>
       <r>  -23.5303    1.0000 </r>
       <r>  -23.5122    1.0000 </r>
       <r>  -23.3659    1.0000 </r>
       <r>  -23.3502    1.0000 </r>
       <r>    0.7345    1.0000 </r>
       <r>    1.0948    1.0000 </r>
       <r>    3.1729    1.0000 </r>
       <r>    4.0467    1.0000 </r>
       <r>    6.2510    1.0000 </r>
       <r>    6.5185    1.0000 </r>
       <r>    6.8276    1.0000 </r>
       <r>    6.9489    1.0000 </r>
       <r>    7.7475    1.0000 </r>
       <r>    7.9856    1.0000 </r>
       <r>    8.1781    1.0000 </r>
       <r>    8.4092    1.0000 </r>
       <r>    8.6941    1.0000 </r>
       <r>    8.8924    1.0000 </r>
       <r>    9.1529    1.0000 </r>
       <r>    9.3256    1.0000 </r>
       <r>    9.6794    1.0000 </r>
       <r>    9.7516    1.0000 </r>
       <r>    9.9503    1.0000 </r>
       <r>   10.0867    1.0000 </r>
       <r>   11.1747    1.0000 </r>
       <r>   11.5637    1.0000 </r>
       <r>   11.6273    1.0000 </r>
       <r>   11.7113    1.0000 </r>
       <r>   12.0816    1.0000 </r>
       <r>   12.3998    0.0000 </r>
       <r>   12.9279    0.0000 </r>
       <r>   13.0522    0.0000 </r>
       <r>   13.2733    0.0000 </r>
       <r>   13.4023    0.0000 </r>
       <r>   13.5732    0.0000 </r>
       <r>   13.7440    0.0000 </r>
       <r>   14.4088    0.0000 </r>
       <r>   14.6514    0.0000 </r>
       <r>   15.5037    0.0000 </r>
       <r>   15.8070    0.0000 </r>
      </set>
      <set comment="kpoint 10">
       <r>  -50.6179    1.0000 </r>
       <r>  -50.5813    1.0000 </r>
       <r>  -50.4109    1.0000 </r>
       <r>  -50.4078    1.0000 </r>
       <r>  -50.3557    1.0000 </r>
       <r>  -50.3166    1.0000 </r>
       <r>  -24.6094    1.0000 </r>
       <r>  -24.5131    1.0000 </r>
       <r>  -24.3957    1.0000 </r>
       <r>  -24.3246    1.0000 </r>
       <r>  -24.2714    1.0000 </r>
       <r>  -24.2419    1.0000 </r>
       <r>  -24.1662    1.0000 </r>
       <r>  -24.0192    1.0000 </r>
       <r>  -23.9773    1.0000 </r>
       <r>  -23.8812    1.0000 </r>
       <r>  -23.7860    1.0000 </r>
       <r>  -23.7241    1.0000 </r>
       <r>  -23.6982    1.0000 </r>
       <r>  -23.6026    1.0000 </r>
       <r>  -23.5234    1.0000 </r>
       <r>  -23.5109    1.0000 </r>
       <r>  -23.3674    1.0000 </r>
       <r>  -23.3323    1.0000 </r>
       <r>    0.1745    1.0000 </r>
       <r>    1.4421    1.0000 </r>
       <r>    3.1065    1.0000 </r>
       <r>    4.5722    1.0000 </r>
       <r>    6.1344    1.0000 </r>
       <r>    6.3654    1.0000 </r>
       <r>    6.8757    1.0000 </r>
       <r>    7.0897    1.0000 </r>
       <r>    7.3586    1.0000 </r>
       <r>    7.8892    1.0000 </r>
       <r>    7.9206    1.0000 </r>
       <r>    8.5488    1.0000 </r>
       <r>    8.6615    1.0000 </r>
       <r>    8.8500    1.0000 </r>
       <r>    9.1283    1.0000 </r>
       <r>    9.3140    1.0000 </r>
       <r>    9.4272    1.0000 </r>
       <r>    9.4643    1.0000 </r>
       <r>    9.8825    1.0000 </r>
       <r>   10.6314    1.0000 </r>
       <r>   11.1405    1.0000 </r>
       <r>   11.7049    1.0000 </r>
       <r>   11.7412    1.0000 </r>
       <r>   12.0141    1.0000 </r>
       <r>   12.3002    0.5890 </r>
       <r>   12.4279    0.0000 </r>
       <r>   12.5413    0.0000 </r>
       <r>   13.0687    0.0000 </r>
       <r>   13.3041    0.0000 </r>
       <r>   13.3852    0.0000 </r>
       <r>   13.8126    0.0000 </r>
       <r>   14.1405    0.0000 </r>
       <r>   14.5491    0.0000 </r>
       <r>   14.9308    0.0000 </r>
       <r>   15.2572    0.0000 </r>
       <r>   15.7309    0.0000 </r>
      </set>
      <set comment="kpoint 11">
       <r>  -50.6331    1.0000 </r>
       <r>  -50.5782    1.0000 </r>
       <r>  -50.4117    1.0000 </r>
       <r>  -50.3939    1.0000 </r>
       <r>  -50.3722    1.0000 </r>
       <r>  -50.3002    1.0000 </r>
       <r>  -24.6677    1.0000 </r>
       <r>  -24.5067    1.0000 </r>
       <r>  -24.4751    1.0000 </r>
       <r>  -24.3870    1.0000 </r>
       <r>  -24.3700    1.0000 </r>
       <r>  -24.3082    1.0000 </r>
       <r>  -24.2456    1.0000 </r>
       <r>  -23.9979    1.0000 </r>
       <r>  -23.9635    1.0000 </r>
       <r>  -23.7976    1.0000 </r>
       <r>  -23.7661    1.0000 </r>
       <r>  -23.6275    1.0000 </r>
       <r>  -23.5815    1.0000 </r>
       <r>  -23.5585    1.0000 </r>
       <r>  -23.5267    1.0000 </r>
       <r>  -23.4625    1.0000 </r>
       <r>  -23.3766    1.0000 </r>
       <r>  -23.2871    1.0000 </r>
       <r>   -0.2856    1.0000 </r>
       <r>    1.3984    1.0000 </r>
       <r>    3.5248    1.0000 </r>
       <r>    4.9324    1.0000 </r>
       <r>    5.9377    1.0000 </r>
       <r>    6.0689    1.0000 </r>
       <r>    6.9020    1.0000 </r>
       <r>    6.9298    1.0000 </r>
       <r>    7.3393    1.0000 </r>
       <r>    7.7749    1.0000 </r>
       <r>    7.8803    1.0000 </r>
       <r>    8.3706    1.0000 </r>
       <r>    8.5548    1.0000 </r>
       <r>    8.9239    1.0000 </r>
       <r>    8.9938    1.0000 </r>
       <r>    9.1162    1.0000 </r>
       <r>    9.2387    1.0000 </r>
       <r>    9.4913    1.0000 </r>
       <r>   10.0120    1.0000 </r>
       <r>   11.1782    1.0000 </r>
       <r>   11.2961    1.0000 </r>
       <r>   11.6937    1.0000 </r>
       <r>   11.8917    1.0000 </r>
       <r>   12.1788    1.0000 </r>
       <r>   12.4267    0.0000 </r>
       <r>   12.4675    0.0000 </r>
       <r>   12.5936    0.0000 </r>
       <r>   12.9569    0.0000 </r>
       <r>   13.1069    0.0000 </r>
       <r>   13.3884    0.0000 </r>
       <r>   14.2409    0.0000 </r>
       <r>   14.6767    0.0000 </r>
       <r>   14.8176    0.0000 </r>
       <r>   15.2250    0.0000 </r>
       <r>   15.3605    0.0000 </r>
       <r>   15.4814    0.0000 </r>
      </set>
      <set comment="kpoint 12">
       <r>  -50.6427    1.0000 </r>
       <r>  -50.5775    1.0000 </r>
       <r>  -50.4127    1.0000 </r>
       <r>  -50.3835    1.0000 </r>
       <r>  -50.3830    1.0000 </r>
       <r>  -50.2892    1.0000 </r>
       <r>  -24.7172    1.0000 </r>
       <r>  -24.5609    1.0000 </r>
       <r>  -24.4705    1.0000 </r>
       <r>  -24.4692    1.0000 </r>
       <r>  -24.4143    1.0000 </r>
       <r>  -24.3223    1.0000 </r>
       <r>  -24.2909    1.0000 </r>
       <r>  -23.9747    1.0000 </r>
       <r>  -23.9657    1.0000 </r>
       <r>  -23.7896    1.0000 </r>
       <r>  -23.6968    1.0000 </r>
       <r>  -23.5733    1.0000 </r>
       <r>  -23.5484    1.0000 </r>
       <r>  -23.5390    1.0000 </r>
       <r>  -23.5215    1.0000 </r>
       <r>  -23.3960    1.0000 </r>
       <r>  -23.3770    1.0000 </r>
       <r>  -23.2452    1.0000 </r>
       <r>   -0.5614    1.0000 </r>
       <r>    1.2685    1.0000 </r>
       <r>    4.0572    1.0000 </r>
       <r>    4.9237    1.0000 </r>
       <r>    5.6545    1.0000 </r>
       <r>    6.2882    1.0000 </r>
       <r>    6.4151    1.0000 </r>
       <r>    6.6441    1.0000 </r>
       <r>    7.5942    1.0000 </r>
       <r>    7.8946    1.0000 </r>
       <r>    7.9327    1.0000 </r>
       <r>    8.1654    1.0000 </r>
       <r>    8.4393    1.0000 </r>
       <r>    8.8894    1.0000 </r>
       <r>    8.9474    1.0000 </r>
       <r>    9.0146    1.0000 </r>
       <r>    9.1006    1.0000 </r>
       <r>    9.7989    1.0000 </r>
       <r>   10.1904    1.0000 </r>
       <r>   11.2839    1.0000 </r>
       <r>   11.5871    1.0000 </r>
       <r>   11.6726    1.0000 </r>
       <r>   11.9600    1.0000 </r>
       <r>   12.0407    1.0000 </r>
       <r>   12.3949    0.0000 </r>
       <r>   12.4971    0.0000 </r>
       <r>   12.7252    0.0000 </r>
       <r>   13.0870    0.0000 </r>
       <r>   13.1170    0.0000 </r>
       <r>   13.4207    0.0000 </r>
       <r>   14.4178    0.0000 </r>
       <r>   14.8914    0.0000 </r>
       <r>   15.0763    0.0000 </r>
       <r>   15.1057    0.0000 </r>
       <r>   15.3973    0.0000 </r>
       <r>   16.0705    0.0000 </r>
      </set>
      <set comment="kpoint 13">
       <r>  -50.6069    1.0000 </r>
       <r>  -50.5854    1.0000 </r>
       <r>  -50.4273    1.0000 </r>
       <r>  -50.3830    1.0000 </r>
       <r>  -50.3769    1.0000 </r>
       <r>  -50.3109    1.0000 </r>
       <r>  -24.6090    1.0000 </r>
       <r>  -24.4184    1.0000 </r>
       <r>  -24.4002    1.0000 </r>
       <r>  -24.3545    1.0000 </r>
       <r>  -24.2537    1.0000 </r>
       <r>  -24.2096    1.0000 </r>
       <r>  -24.0739    1.0000 </r>
       <r>  -24.0556    1.0000 </r>
       <r>  -23.9915    1.0000 </r>
       <r>  -23.8475    1.0000 </r>
       <r>  -23.8315    1.0000 </r>
       <r>  -23.7448    1.0000 </r>
       <r>  -23.7303    1.0000 </r>
       <r>  -23.6550    1.0000 </r>
       <r>  -23.5569    1.0000 </r>
       <r>  -23.4771    1.0000 </r>
       <r>  -23.4268    1.0000 </r>
       <r>  -23.3236    1.0000 </r>
       <r>    0.3847    1.0000 </r>
       <r>    1.3922    1.0000 </r>
       <r>    3.5740    1.0000 </r>
       <r>    3.8332    1.0000 </r>
       <r>    5.5787    1.0000 </r>
       <r>    6.5657    1.0000 </r>
       <r>    6.8808    1.0000 </r>
       <r>    7.1770    1.0000 </r>
       <r>    7.8225    1.0000 </r>
       <r>    7.9114    1.0000 </r>
       <r>    8.1110    1.0000 </r>
       <r>    8.2588    1.0000 </r>
       <r>    8.6498    1.0000 </r>
       <r>    8.9741    1.0000 </r>
       <r>    9.2805    1.0000 </r>
       <r>    9.4851    1.0000 </r>
       <r>    9.6540    1.0000 </r>
       <r>    9.7799    1.0000 </r>
       <r>    9.9137    1.0000 </r>
       <r>   10.2113    1.0000 </r>
       <r>   11.2757    1.0000 </r>
       <r>   11.4720    1.0000 </r>
       <r>   11.5837    1.0000 </r>
       <r>   11.8858    1.0000 </r>
       <r>   11.9584    1.0000 </r>
       <r>   12.5369    0.0000 </r>
       <r>   12.8669    0.0000 </r>
       <r>   12.9717    0.0000 </r>
       <r>   13.3099    0.0000 </r>
       <r>   13.3624    0.0000 </r>
       <r>   13.7072    0.0000 </r>
       <r>   14.1082    0.0000 </r>
       <r>   14.8233    0.0000 </r>
       <r>   15.0562    0.0000 </r>
       <r>   15.2692    0.0000 </r>
       <r>   15.5441    0.0000 </r>
      </set>
      <set comment="kpoint 14">
       <r>  -50.5930    1.0000 </r>
       <r>  -50.5930    1.0000 </r>
       <r>  -50.4249    1.0000 </r>
       <r>  -50.3903    1.0000 </r>
       <r>  -50.3624    1.0000 </r>
       <r>  -50.3273    1.0000 </r>
       <r>  -24.5370    1.0000 </r>
       <r>  -24.4325    1.0000 </r>
       <r>  -24.3193    1.0000 </r>
       <r>  -24.2869    1.0000 </r>
       <r>  -24.2040    1.0000 </r>
       <r>  -24.1498    1.0000 </r>
       <r>  -24.1346    1.0000 </r>
       <r>  -24.0180    1.0000 </r>
       <r>  -23.9852    1.0000 </r>
       <r>  -23.9187    1.0000 </r>
       <r>  -23.8996    1.0000 </r>
       <r>  -23.8313    1.0000 </r>
       <r>  -23.7166    1.0000 </r>
       <r>  -23.6680    1.0000 </r>
       <r>  -23.5630    1.0000 </r>
       <r>  -23.5277    1.0000 </r>
       <r>  -23.4240    1.0000 </r>
       <r>  -23.3682    1.0000 </r>
       <r>    0.9234    1.0000 </r>
       <r>    1.1629    1.0000 </r>
       <r>    3.1861    1.0000 </r>
       <r>    4.1157    1.0000 </r>
       <r>    5.6067    1.0000 </r>
       <r>    6.5219    1.0000 </r>
       <r>    6.9084    1.0000 </r>
       <r>    7.0152    1.0000 </r>
       <r>    7.7835    1.0000 </r>
       <r>    8.0403    1.0000 </r>
       <r>    8.1809    1.0000 </r>
       <r>    8.3614    1.0000 </r>
       <r>    8.4859    1.0000 </r>
       <r>    9.1937    1.0000 </r>
       <r>    9.2546    1.0000 </r>
       <r>    9.4650    1.0000 </r>
       <r>    9.6386    1.0000 </r>
       <r>    9.8641    1.0000 </r>
       <r>   10.0474    1.0000 </r>
       <r>   10.1110    1.0000 </r>
       <r>   11.0926    1.0000 </r>
       <r>   11.4312    1.0000 </r>
       <r>   11.5402    1.0000 </r>
       <r>   11.5748    1.0000 </r>
       <r>   11.8990    1.0000 </r>
       <r>   12.6935    0.0000 </r>
       <r>   12.7715    0.0000 </r>
       <r>   12.9950    0.0000 </r>
       <r>   13.1936    0.0000 </r>
       <r>   13.4039    0.0000 </r>
       <r>   13.7345    0.0000 </r>
       <r>   13.7759    0.0000 </r>
       <r>   14.3822    0.0000 </r>
       <r>   15.1046    0.0000 </r>
       <r>   15.3900    0.0000 </r>
       <r>   15.9126    0.0000 </r>
      </set>
      <set comment="kpoint 15">
       <r>  -50.6043    1.0000 </r>
       <r>  -50.5835    1.0000 </r>
       <r>  -50.4148    1.0000 </r>
       <r>  -50.3977    1.0000 </r>
       <r>  -50.3469    1.0000 </r>
       <r>  -50.3439    1.0000 </r>
       <r>  -24.4795    1.0000 </r>
       <r>  -24.4698    1.0000 </r>
       <r>  -24.3019    1.0000 </r>
       <r>  -24.2829    1.0000 </r>
       <r>  -24.2390    1.0000 </r>
       <r>  -24.1496    1.0000 </r>
       <r>  -24.0889    1.0000 </r>
       <r>  -24.0500    1.0000 </r>
       <r>  -24.0285    1.0000 </r>
       <r>  -23.9884    1.0000 </r>
       <r>  -23.8233    1.0000 </r>
       <r>  -23.7984    1.0000 </r>
       <r>  -23.7602    1.0000 </r>
       <r>  -23.6060    1.0000 </r>
       <r>  -23.5590    1.0000 </r>
       <r>  -23.5537    1.0000 </r>
       <r>  -23.4056    1.0000 </r>
       <r>  -23.4010    1.0000 </r>
       <r>    0.7405    1.0000 </r>
       <r>    1.4310    1.0000 </r>
       <r>    2.9036    1.0000 </r>
       <r>    4.5908    1.0000 </r>
       <r>    5.7547    1.0000 </r>
       <r>    6.4692    1.0000 </r>
       <r>    6.7012    1.0000 </r>
       <r>    6.9158    1.0000 </r>
       <r>    7.6674    1.0000 </r>
       <r>    7.9447    1.0000 </r>
       <r>    8.1082    1.0000 </r>
       <r>    8.3001    1.0000 </r>
       <r>    8.6469    1.0000 </r>
       <r>    9.0331    1.0000 </r>
       <r>    9.1332    1.0000 </r>
       <r>    9.4157    1.0000 </r>
       <r>    9.6998    1.0000 </r>
       <r>    9.9686    1.0000 </r>
       <r>   10.1037    1.0000 </r>
       <r>   10.2187    1.0000 </r>
       <r>   11.0460    1.0000 </r>
       <r>   11.3858    1.0000 </r>
       <r>   11.6889    1.0000 </r>
       <r>   11.7294    1.0000 </r>
       <r>   11.8445    1.0000 </r>
       <r>   12.4939    0.0000 </r>
       <r>   12.7841    0.0000 </r>
       <r>   12.9255    0.0000 </r>
       <r>   13.1642    0.0000 </r>
       <r>   13.2452    0.0000 </r>
       <r>   13.4915    0.0000 </r>
       <r>   14.1275    0.0000 </r>
       <r>   14.2544    0.0000 </r>
       <r>   15.1850    0.0000 </r>
       <r>   15.3900    0.0000 </r>
       <r>   15.8994    0.0000 </r>
      </set>
      <set comment="kpoint 16">
       <r>  -50.6172    1.0000 </r>
       <r>  -50.5791    1.0000 </r>
       <r>  -50.4028    1.0000 </r>
       <r>  -50.3992    1.0000 </r>
       <r>  -50.3666    1.0000 </r>
       <r>  -50.3258    1.0000 </r>
       <r>  -24.5346    1.0000 </r>
       <r>  -24.4382    1.0000 </r>
       <r>  -24.3667    1.0000 </r>
       <r>  -24.3177    1.0000 </r>
       <r>  -24.3112    1.0000 </r>
       <r>  -24.2615    1.0000 </r>
       <r>  -24.1373    1.0000 </r>
       <r>  -24.0409    1.0000 </r>
       <r>  -23.9772    1.0000 </r>
       <r>  -23.9271    1.0000 </r>
       <r>  -23.8238    1.0000 </r>
[...]
       <r>    4.0924    1.0000 </r>
       <r>    5.8926    1.0000 </r>
       <r>    6.3218    1.0000 </r>
       <r>    6.9775    1.0000 </r>
       <r>    7.1373    1.0000 </r>
       <r>    7.6241    1.0000 </r>
       <r>    7.8405    1.0000 </r>
       <r>    7.9421    1.0000 </r>
       <r>    8.4513    1.0000 </r>
       <r>    8.6549    1.0000 </r>
       <r>    8.9416    1.0000 </r>
       <r>    9.1287    1.0000 </r>
       <r>    9.2968    1.0000 </r>
       <r>    9.5526    1.0000 </r>
       <r>    9.6882    1.0000 </r>
       <r>    9.7686    1.0000 </r>
       <r>   10.4784    1.0000 </r>
       <r>   11.3806    1.0000 </r>
       <r>   11.5511    1.0000 </r>
       <r>   11.6828    1.0000 </r>
       <r>   11.8359    1.0000 </r>
       <r>   12.1870    1.0000 </r>
       <r>   12.3649    0.0000 </r>
       <r>   12.7083    0.0000 </r>
       <r>   13.1485    0.0000 </r>
       <r>   13.2631    0.0000 </r>
       <r>   13.4822    0.0000 </r>
       <r>   13.6169    0.0000 </r>
       <r>   14.1901    0.0000 </r>
       <r>   14.8202    0.0000 </r>
       <r>   15.0579    0.0000 </r>
       <r>   15.2313    0.0000 </r>
       <r>   15.6891    0.0000 </r>
      </set>
      <set comment="kpoint 165">
       <r>  -50.6137    1.0000 </r>
       <r>  -50.5813    1.0000 </r>
       <r>  -50.4055    1.0000 </r>
       <r>  -50.3825    1.0000 </r>
       <r>  -50.3812    1.0000 </r>
       <r>  -50.3265    1.0000 </r>
       <r>  -24.5189    1.0000 </r>
       <r>  -24.4023    1.0000 </r>
       <r>  -24.3702    1.0000 </r>
       <r>  -24.3153    1.0000 </r>
       <r>  -24.3021    1.0000 </r>
       <r>  -24.2725    1.0000 </r>
       <r>  -24.1038    1.0000 </r>
       <r>  -24.0330    1.0000 </r>
       <r>  -24.0218    1.0000 </r>
       <r>  -23.9232    1.0000 </r>
       <r>  -23.7910    1.0000 </r>
       <r>  -23.7813    1.0000 </r>
       <r>  -23.6734    1.0000 </r>
       <r>  -23.5752    1.0000 </r>
       <r>  -23.5492    1.0000 </r>
       <r>  -23.4934    1.0000 </r>
       <r>  -23.4620    1.0000 </r>
       <r>  -23.3808    1.0000 </r>
       <r>    0.3617    1.0000 </r>
       <r>    1.5449    1.0000 </r>
       <r>    3.2230    1.0000 </r>
       <r>    4.6779    1.0000 </r>
       <r>    5.9496    1.0000 </r>
       <r>    6.0166    1.0000 </r>
       <r>    6.8002    1.0000 </r>
       <r>    6.9605    1.0000 </r>
       <r>    7.5869    1.0000 </r>
       <r>    7.8071    1.0000 </r>
       <r>    7.9225    1.0000 </r>
       <r>    8.4750    1.0000 </r>
       <r>    8.7243    1.0000 </r>
       <r>    8.9286    1.0000 </r>
       <r>    9.0545    1.0000 </r>
       <r>    9.0971    1.0000 </r>
       <r>    9.5334    1.0000 </r>
       <r>    9.9081    1.0000 </r>
       <r>    9.9950    1.0000 </r>
       <r>   10.5143    1.0000 </r>
       <r>   11.3164    1.0000 </r>
       <r>   11.4546    1.0000 </r>
       <r>   11.6923    1.0000 </r>
       <r>   11.7683    1.0000 </r>
       <r>   12.0993    1.0000 </r>
       <r>   12.4166    0.0000 </r>
       <r>   12.6276    0.0000 </r>
       <r>   13.0050    0.0000 </r>
       <r>   13.1852    0.0000 </r>
       <r>   13.3030    0.0000 </r>
       <r>   13.5039    0.0000 </r>
       <r>   14.3422    0.0000 </r>
       <r>   14.4837    0.0000 </r>
       <r>   15.1067    0.0000 </r>
       <r>   15.3749    0.0000 </r>
       <r>   16.0214    0.0000 </r>
      </set>
     </set>
    </set>
   </array>
  </eigenvalues>
  <separator name="orbital magnetization" >
   <v name="MAGDIPOLOUT">      0.00000000      0.00000000      0.00000000</v>
  </separator>
  <dos>
   <i name="efermi">     12.30336544 </i>
   <total>
    <array>
     <dimension dim="1">gridpoints</dimension>
     <dimension dim="2">spin</dimension>
     <field>energy</field>
     <field>total</field>
     <field>integrated</field>
     <set>
      <set comment="spin 1">
       <r>   -54.0168     0.0000     0.0000 </r>
       <r>   -53.7697     0.0000     0.0000 </r>
       <r>   -53.5227     0.0000     0.0000 </r>
       <r>   -53.2757     0.0000     0.0000 </r>
       <r>   -53.0287     0.0000     0.0000 </r>
       <r>   -52.7817     0.0000     0.0000 </r>
       <r>   -52.5347     0.0000     0.0000 </r>
       <r>   -52.2877     0.0000     0.0000 </r>
       <r>   -52.0407     0.0000     0.0000 </r>
       <r>   -51.7937     0.0000     0.0000 </r>
       <r>   -51.5467     0.0000     0.0000 </r>
       <r>   -51.2997     0.0000     0.0000 </r>
       <r>   -51.0527     0.0000     0.0000 </r>
       <r>   -50.8057     0.0000     0.0000 </r>
       <r>   -50.5587    15.7640     3.8938 </r>
       <r>   -50.3117    28.7481    11.1496 </r>
       <r>   -50.0646     0.0000    12.0000 </r>
       <r>   -49.8176     0.0000    12.0000 </r>
       <r>   -49.5706     0.0000    12.0000 </r>
       <r>   -49.3236     0.0000    12.0000 </r>
       <r>   -49.0766     0.0000    12.0000 </r>
       <r>   -48.8296     0.0000    12.0000 </r>
       <r>   -48.5826     0.0000    12.0000 </r>
       <r>   -48.3356     0.0000    12.0000 </r>
       <r>   -48.0886     0.0000    12.0000 </r>
       <r>   -47.8416     0.0000    12.0000 </r>
       <r>   -47.5946     0.0000    12.0000 </r>
       <r>   -47.3476     0.0000    12.0000 </r>
       <r>   -47.1006     0.0000    12.0000 </r>
       <r>   -46.8536     0.0000    12.0000 </r>
       <r>   -46.6065     0.0000    12.0000 </r>
       <r>   -46.3595     0.0000    12.0000 </r>
       <r>   -46.1125     0.0000    12.0000 </r>
       <r>   -45.8655     0.0000    12.0000 </r>
       <r>   -45.6185     0.0000    12.0000 </r>
       <r>   -45.3715     0.0000    12.0000 </r>
       <r>   -45.1245     0.0000    12.0000 </r>
       <r>   -44.8775     0.0000    12.0000 </r>
       <r>   -44.6305     0.0000    12.0000 </r>
       <r>   -44.3835     0.0000    12.0000 </r>
       <r>   -44.1365     0.0000    12.0000 </r>
       <r>   -43.8895     0.0000    12.0000 </r>
       <r>   -43.6425     0.0000    12.0000 </r>
       <r>   -43.3955     0.0000    12.0000 </r>
       <r>   -43.1485     0.0000    12.0000 </r>
       <r>   -42.9014     0.0000    12.0000 </r>
       <r>   -42.6544     0.0000    12.0000 </r>
       <r>   -42.4074     0.0000    12.0000 </r>
       <r>   -42.1604     0.0000    12.0000 </r>
       <r>   -41.9134     0.0000    12.0000 </r>
       <r>   -41.6664     0.0000    12.0000 </r>
       <r>   -41.4194     0.0000    12.0000 </r>
       <r>   -41.1724     0.0000    12.0000 </r>
       <r>   -40.9254     0.0000    12.0000 </r>
       <r>   -40.6784     0.0000    12.0000 </r>
       <r>   -40.4314     0.0000    12.0000 </r>
       <r>   -40.1844     0.0000    12.0000 </r>
       <r>   -39.9374     0.0000    12.0000 </r>
       <r>   -39.6904     0.0000    12.0000 </r>
       <r>   -39.4434     0.0000    12.0000 </r>
       <r>   -39.1963     0.0000    12.0000 </r>
       <r>   -38.9493     0.0000    12.0000 </r>
       <r>   -38.7023     0.0000    12.0000 </r>
       <r>   -38.4553     0.0000    12.0000 </r>
       <r>   -38.2083     0.0000    12.0000 </r>
       <r>   -37.9613     0.0000    12.0000 </r>
       <r>   -37.7143     0.0000    12.0000 </r>
       <r>   -37.4673     0.0000    12.0000 </r>
       <r>   -37.2203     0.0000    12.0000 </r>
       <r>   -36.9733     0.0000    12.0000 </r>
       <r>   -36.7263     0.0000    12.0000 </r>
       <r>   -36.4793     0.0000    12.0000 </r>
       <r>   -36.2323     0.0000    12.0000 </r>
       <r>   -35.9853     0.0000    12.0000 </r>
       <r>   -35.7383     0.0000    12.0000 </r>
       <r>   -35.4912     0.0000    12.0000 </r>
       <r>   -35.2442     0.0000    12.0000 </r>
       <r>   -34.9972     0.0000    12.0000 </r>
       <r>   -34.7502     0.0000    12.0000 </r>
       <r>   -34.5032     0.0000    12.0000 </r>
       <r>   -34.2562     0.0000    12.0000 </r>
       <r>   -34.0092     0.0000    12.0000 </r>
       <r>   -33.7622     0.0000    12.0000 </r>
       <r>   -33.5152     0.0000    12.0000 </r>
       <r>   -33.2682     0.0000    12.0000 </r>
       <r>   -33.0212     0.0000    12.0000 </r>
       <r>   -32.7742     0.0000    12.0000 </r>
       <r>   -32.5272     0.0000    12.0000 </r>
       <r>   -32.2802     0.0000    12.0000 </r>
       <r>   -32.0332     0.0000    12.0000 </r>
       <r>   -31.7861     0.0000    12.0000 </r>
       <r>   -31.5391     0.0000    12.0000 </r>
       <r>   -31.2921     0.0000    12.0000 </r>
       <r>   -31.0451     0.0000    12.0000 </r>
       <r>   -30.7981     0.0000    12.0000 </r>
       <r>   -30.5511     0.0000    12.0000 </r>
       <r>   -30.3041     0.0000    12.0000 </r>
       <r>   -30.0571     0.0000    12.0000 </r>
       <r>   -29.8101     0.0000    12.0000 </r>
       <r>   -29.5631     0.0000    12.0000 </r>
       <r>   -29.3161     0.0000    12.0000 </r>
       <r>   -29.0691     0.0000    12.0000 </r>
       <r>   -28.8221     0.0000    12.0000 </r>
       <r>   -28.5751     0.0000    12.0000 </r>
       <r>   -28.3281     0.0000    12.0000 </r>
       <r>   -28.0810     0.0000    12.0000 </r>
       <r>   -27.8340     0.0000    12.0000 </r>
       <r>   -27.5870     0.0000    12.0000 </r>
       <r>   -27.3400     0.0000    12.0000 </r>
       <r>   -27.0930     0.0000    12.0000 </r>
       <r>   -26.8460     0.0000    12.0000 </r>
       <r>   -26.5990     0.0000    12.0000 </r>
       <r>   -26.3520     0.0000    12.0000 </r>
       <r>   -26.1050     0.0000    12.0000 </r>
       <r>   -25.8580     0.0000    12.0000 </r>
       <r>   -25.6110     0.0000    12.0000 </r>
       <r>   -25.3640     0.0000    12.0000 </r>
       <r>   -25.1170     0.0000    12.0000 </r>
       <r>   -24.8700     0.0000    12.0000 </r>
       <r>   -24.6230     3.3155    12.8190 </r>
       <r>   -24.3759    12.6196    16.8602 </r>
       <r>   -24.1289    19.4019    24.4348 </r>
       <r>   -23.8819    19.1437    31.5099 </r>
       <r>   -23.6349    19.4286    38.8719 </r>
       <r>   -23.3879    16.9259    45.7225 </r>
       <r>   -23.1409     2.9942    48.0000 </r>
       <r>   -22.8939     0.0000    48.0000 </r>
       <r>   -22.6469     0.0000    48.0000 </r>
       <r>   -22.3999     0.0000    48.0000 </r>
       <r>   -22.1529     0.0000    48.0000 </r>
       <r>   -21.9059     0.0000    48.0000 </r>
       <r>   -21.6589     0.0000    48.0000 </r>
       <r>   -21.4119     0.0000    48.0000 </r>
       <r>   -21.1649     0.0000    48.0000 </r>
       <r>   -20.9179     0.0000    48.0000 </r>
       <r>   -20.6708     0.0000    48.0000 </r>
       <r>   -20.4238     0.0000    48.0000 </r>
       <r>   -20.1768     0.0000    48.0000 </r>
       <r>   -19.9298     0.0000    48.0000 </r>
       <r>   -19.6828     0.0000    48.0000 </r>
       <r>   -19.4358     0.0000    48.0000 </r>
       <r>   -19.1888     0.0000    48.0000 </r>
       <r>   -18.9418     0.0000    48.0000 </r>
       <r>   -18.6948     0.0000    48.0000 </r>
       <r>   -18.4478     0.0000    48.0000 </r>
       <r>   -18.2008     0.0000    48.0000 </r>
       <r>   -17.9538     0.0000    48.0000 </r>
       <r>   -17.7068     0.0000    48.0000 </r>
       <r>   -17.4598     0.0000    48.0000 </r>
       <r>   -17.2128     0.0000    48.0000 </r>
       <r>   -16.9657     0.0000    48.0000 </r>
       <r>   -16.7187     0.0000    48.0000 </r>
       <r>   -16.4717     0.0000    48.0000 </r>
       <r>   -16.2247     0.0000    48.0000 </r>
       <r>   -15.9777     0.0000    48.0000 </r>
       <r>   -15.7307     0.0000    48.0000 </r>
       <r>   -15.4837     0.0000    48.0000 </r>
       <r>   -15.2367     0.0000    48.0000 </r>
       <r>   -14.9897     0.0000    48.0000 </r>
       <r>   -14.7427     0.0000    48.0000 </r>
       <r>   -14.4957     0.0000    48.0000 </r>
       <r>   -14.2487     0.0000    48.0000 </r>
       <r>   -14.0017     0.0000    48.0000 </r>
       <r>   -13.7547     0.0000    48.0000 </r>
       <r>   -13.5076     0.0000    48.0000 </r>
       <r>   -13.2606     0.0000    48.0000 </r>
       <r>   -13.0136     0.0000    48.0000 </r>
       <r>   -12.7666     0.0000    48.0000 </r>
       <r>   -12.5196     0.0000    48.0000 </r>
       <r>   -12.2726     0.0000    48.0000 </r>
       <r>   -12.0256     0.0000    48.0000 </r>
       <r>   -11.7786     0.0000    48.0000 </r>
       <r>   -11.5316     0.0000    48.0000 </r>
       <r>   -11.2846     0.0000    48.0000 </r>
       <r>   -11.0376     0.0000    48.0000 </r>
       <r>   -10.7906     0.0000    48.0000 </r>
       <r>   -10.5436     0.0000    48.0000 </r>
       <r>   -10.2966     0.0000    48.0000 </r>
       <r>   -10.0496     0.0000    48.0000 </r>
       <r>    -9.8025     0.0000    48.0000 </r>
       <r>    -9.5555     0.0000    48.0000 </r>
       <r>    -9.3085     0.0000    48.0000 </r>
       <r>    -9.0615     0.0000    48.0000 </r>
       <r>    -8.8145     0.0000    48.0000 </r>
       <r>    -8.5675     0.0000    48.0000 </r>
       <r>    -8.3205     0.0000    48.0000 </r>
       <r>    -8.0735     0.0000    48.0000 </r>
       <r>    -7.8265     0.0000    48.0000 </r>
       <r>    -7.5795     0.0000    48.0000 </r>
       <r>    -7.3325     0.0000    48.0000 </r>
       <r>    -7.0855     0.0000    48.0000 </r>
       <r>    -6.8385     0.0000    48.0000 </r>
       <r>    -6.5915     0.0000    48.0000 </r>
       <r>    -6.3445     0.0000    48.0000 </r>
       <r>    -6.0974     0.0000    48.0000 </r>
       <r>    -5.8504     0.0000    48.0000 </r>
       <r>    -5.6034     0.0000    48.0000 </r>
       <r>    -5.3564     0.0000    48.0000 </r>
       <r>    -5.1094     0.0000    48.0000 </r>
       <r>    -4.8624     0.0000    48.0000 </r>
       <r>    -4.6154     0.0000    48.0000 </r>
       <r>    -4.3684     0.0000    48.0000 </r>
       <r>    -4.1214     0.0000    48.0000 </r>
       <r>    -3.8744     0.0000    48.0000 </r>
       <r>    -3.6274     0.0000    48.0000 </r>
       <r>    -3.3804     0.0000    48.0000 </r>
       <r>    -3.1334     0.0000    48.0000 </r>
       <r>    -2.8864     0.0000    48.0000 </r>
       <r>    -2.6394     0.0000    48.0000 </r>
       <r>    -2.3923     0.0000    48.0000 </r>
       <r>    -2.1453     0.0000    48.0000 </r>
       <r>    -1.8983     0.0000    48.0000 </r>
       <r>    -1.6513     0.0000    48.0000 </r>
       <r>    -1.4043     0.0000    48.0000 </r>
       <r>    -1.1573     0.0000    48.0000 </r>
       <r>    -0.9103     0.0000    48.0000 </r>
       <r>    -0.6633     0.0145    48.0036 </r>
       <r>    -0.4163     0.1728    48.0878 </r>
       <r>    -0.1693     0.2593    48.2272 </r>
       <r>     0.0777     0.7073    48.4282 </r>
       <r>     0.3247     0.4921    48.6389 </r>
       <r>     0.5717     1.1414    48.9868 </r>
       <r>     0.8187     0.8136    49.3017 </r>
       <r>     1.0657     1.5305    49.9058 </r>
       <r>     1.3128     1.8269    50.5485 </r>
       <r>     1.5598     2.1973    51.5045 </r>
       <r>     1.8068     0.8832    51.9925 </r>
       <r>     2.0538     0.3057    52.1484 </r>
       <r>     2.3008     0.2114    52.2536 </r>
       <r>     2.5478     0.5765    52.4757 </r>
       <r>     2.7948     0.5680    52.6924 </r>
       <r>     3.0418     1.0881    52.9945 </r>
       <r>     3.2888     0.8056    53.2997 </r>
       <r>     3.5358     1.0153    53.5806 </r>
       <r>     3.7828     1.0274    53.9725 </r>
       <r>     4.0298     0.7833    54.2664 </r>
       <r>     4.2768     0.8663    54.6758 </r>
       <r>     4.5238     1.2212    55.0898 </r>
       <r>     4.7708     0.6878    55.4789 </r>
       <r>     5.0179     0.7256    55.7313 </r>
       <r>     5.2649     0.9287    56.0801 </r>
       <r>     5.5119     1.4702    56.6444 </r>
       <r>     5.7589     1.5937    57.2652 </r>
       <r>     6.0059     2.0032    57.9427 </r>
       <r>     6.2529     1.9267    58.7363 </r>
       <r>     6.4999     3.0601    59.7177 </r>
       <r>     6.7469     2.1801    60.6600 </r>
       <r>     6.9939     5.5254    62.5141 </r>
       <r>     7.2409     2.2600    63.5409 </r>
       <r>     7.4879     1.6603    64.1219 </r>
       <r>     7.7349     2.8923    65.1172 </r>
       <r>     7.9819     7.8989    67.5657 </r>
       <r>     8.2289     5.2945    69.7904 </r>
       <r>     8.4759     4.3045    71.5112 </r>
       <r>     8.7230     5.5030    73.5503 </r>
       <r>     8.9700     5.4380    75.2286 </r>
       <r>     9.2170     4.5656    77.0548 </r>
       <r>     9.4640     4.9412    79.1198 </r>
       <r>     9.7110     5.9347    81.2333 </r>
       <r>     9.9580     5.4245    83.4475 </r>
       <r>    10.2050     5.9054    85.6357 </r>
       <r>    10.4520     2.8701    86.8374 </r>
       <r>    10.6990     1.4008    87.4884 </r>
       <r>    10.9460     2.3172    88.3258 </r>
       <r>    11.1930     3.8031    89.6338 </r>
       <r>    11.4400     5.3261    91.5274 </r>
       <r>    11.6870     6.7190    94.0173 </r>
       <r>    11.9340     4.3826    95.7804 </r>
       <r>    12.1810     3.6312    97.1504 </r>
       <r>    12.4281     6.3584    99.2338 </r>
       <r>    12.6751     3.6242   100.8049 </r>
       <r>    12.9221     3.9557   102.5361 </r>
       <r>    13.1691     6.5296   104.9149 </r>
       <r>    13.4161     7.7801   107.6544 </r>
       <r>    13.6631     3.3890   109.2989 </r>
       <r>    13.9101     3.3399   110.5507 </r>
       <r>    14.1571     2.7315   111.5080 </r>
       <r>    14.4041     2.6752   112.4664 </r>
       <r>    14.6511     1.9922   113.3706 </r>
       <r>    14.8981     3.0324   114.5025 </r>
       <r>    15.1451     3.0303   115.7138 </r>
       <r>    15.3921     4.8989   117.4323 </r>
       <r>    15.6391     2.4895   118.7260 </r>
       <r>    15.8862     2.1712   119.6196 </r>
       <r>    16.1332     0.4667   119.9486 </r>
       <r>    16.3802     0.1123   119.9965 </r>
       <r>    16.6272     0.0000   119.9965 </r>
       <r>    16.8742     0.0141   120.0000 </r>
       <r>    17.1212     0.0000   120.0000 </r>
       <r>    17.3682     0.0000   120.0000 </r>
       <r>    17.6152     0.0000   120.0000 </r>
       <r>    17.8622     0.0000   120.0000 </r>
       <r>    18.1092     0.0000   120.0000 </r>
       <r>    18.3562     0.0000   120.0000 </r>
       <r>    18.6032     0.0000   120.0000 </r>
       <r>    18.8502     0.0000   120.0000 </r>
       <r>    19.0972     0.0000   120.0000 </r>
       <r>    19.3442     0.0000   120.0000 </r>
       <r>    19.5913     0.0000   120.0000 </r>
       <r>    19.8383     0.0000   120.0000 </r>
       <r>    20.0853     0.0000   120.0000 </r>
      </set>
     </set>
    </array>
   </total>
  </dos>
 </calculation>
 <structure name="finalpos" >
  <crystal>
   <varray name="basis" >
    <v>       4.87075907       0.00000000      -2.96321477 </v>
    <v>      -1.53927096       4.62114043      -2.96321477 </v>
    <v>       0.00000000       0.00000000       5.70131000 </v>
   </varray>
   <i name="volume">    128.32771750 </i>
   <varray name="rec_basis" >
    <v>       0.20530681       0.06838632       0.00000000 </v>
    <v>       0.00000000       0.21639680       0.00000000 </v>
    <v>       0.10670673       0.14801398       0.17539829 </v>
   </varray>
  </crystal>
  <varray name="positions" >
   <v>       0.50000000       0.00000000       0.50000000 </v>
   <v>       0.00000000       0.50000000       0.50000000 </v>
   <v>       0.25000000       0.25000000       0.00000000 </v>
   <v>       0.23178000       0.73178000       0.96356000 </v>
   <v>       0.75000000       0.75000000       0.00000000 </v>
   <v>       0.76822000       0.26822000       0.03644000 </v>
   <v>       0.73178000       0.76822000       0.50000000 </v>
   <v>       0.26822000       0.23178000       0.50000000 </v>
   <v>       0.75000000       0.25000000       0.50000000 </v>
   <v>       0.25000000       0.75000000       0.50000000 </v>
  </varray>
 </structure>
</modeling>
