<?xml version="1.0" encoding="ISO-8859-1"?>
<modeling>
 <generator>
  <i name="program" type="string">vasp </i>
  <i name="version" type="string">6.2.0  </i>
  <i name="subversion" type="string">18Jan21 (build Jan 05 2022 15:41:44) complex                          parallel </i>
  <i name="platform" type="string">LinuxIFC </i>
  <i name="date" type="string">2025 05 07 </i>
  <i name="time" type="string">15:32:14 </i>
 </generator>
 <incar>
  <i type="string" name="SYSTEM">routine with relax: pwdword</i>
  <i type="string" name="PREC">Acc</i>
  <i type="int" name="IALGO">    38</i>
  <i type="string" name="ALGO">A</i>
  <i type="logical" name="ADDGRID"> T  </i>
  <i type="int" name="ICHARG">     2</i>
  <i type="int" name="NELM">   100</i>
  <i type="int" name="NELMIN">     6</i>
  <i name="EDIFF">      0.00000000</i>
  <i type="int" name="NSW">     0</i>
  <i type="int" name="ISIF">    -1</i>
  <i name="ENCUT">    600.00000000</i>
  <i type="logical" name="LREAL"> F  </i>
  <i type="int" name="ISMEAR">     0</i>
  <i name="SIGMA">      0.02000000</i>
  <i type="logical" name="LASPH"> T  </i>
  <i type="string" name="METAGGA">R2SCAN</i>
  <i type="logical" name="LMIXTAU"> F  </i>
 </incar>
 <primitive_cell>
  <structure name="primitive_cell" >
   <crystal>
    <varray name="basis" >
     <v>       5.39779097       0.00000000      -3.06462772 </v>
     <v>      -1.82951675       5.07828867      -3.06462772 </v>
     <v>       0.00000000       0.00000000       6.20710000 </v>
    </varray>
    <i name="volume">    170.14617434 </i>
    <varray name="rec_basis" >
     <v>       0.18526097       0.06674257       0.00000000 </v>
     <v>       0.00000000       0.19691673       0.00000000 </v>
     <v>       0.09146879       0.13017635       0.16110583 </v>
    </varray>
   </crystal>
   <varray name="positions" >
    <v>       0.11430000       0.61430000       0.17536000 </v>
    <v>       0.88570000       0.38570000       0.82464000 </v>
    <v>       0.61430000       0.43894000       0.50000000 </v>
    <v>       0.38570000       0.56106000       0.50000000 </v>
    <v>       0.43894000       0.93894000       0.82464000 </v>
    <v>       0.56106000       0.06106000       0.17536000 </v>
    <v>       0.93894000       0.11430000       0.50000000 </v>
    <v>       0.06106000       0.88570000       0.50000000 </v>
    <v>       0.28276000       0.21724000       0.50000000 </v>
    <v>       0.25000000       0.25000000       0.00000000 </v>
    <v>       0.71724000       0.78276000       0.50000000 </v>
    <v>       0.75000000       0.75000000       0.00000000 </v>
    <v>       0.21724000       0.71724000       0.93447000 </v>
    <v>       0.78276000       0.28276000       0.06553000 </v>
    <v>       0.00000000       0.00000000       0.00000000 </v>
    <v>       0.50000000       0.50000000       0.00000000 </v>
   </varray>
  </structure>
  <varray name="primitive_index" >
   <v type="int" >        1 </v>
   <v type="int" >        2 </v>
   <v type="int" >        3 </v>
   <v type="int" >        4 </v>
   <v type="int" >        5 </v>
   <v type="int" >        6 </v>
   <v type="int" >        7 </v>
   <v type="int" >        8 </v>
   <v type="int" >        9 </v>
   <v type="int" >       10 </v>
   <v type="int" >       11 </v>
   <v type="int" >       12 </v>
   <v type="int" >       13 </v>
   <v type="int" >       14 </v>
   <v type="int" >       15 </v>
   <v type="int" >       16 </v>
  </varray>
 </primitive_cell>
 <kpoints>
  <generation param="Gamma">
   <v type="int" name="divisions">       7        7        8 </v>
   <v name="usershift">      0.00000000       0.00000000       0.00000000 </v>
   <v name="genvec1">      0.14285714       0.00000000       0.00000000 </v>
   <v name="genvec2">      0.00000000       0.14285714       0.00000000 </v>
   <v name="genvec3">      0.00000000       0.00000000       0.12500000 </v>
   <v name="shift">      0.00000000       0.00000000       0.00000000 </v>
  </generation>
  <varray name="kpointlist" >
   <v>       0.00000000       0.00000000       0.00000000 </v>
   <v>       0.14285714       0.00000000       0.00000000 </v>
   <v>       0.28571429       0.00000000       0.00000000 </v>
   <v>       0.42857143       0.00000000       0.00000000 </v>
   <v>       0.14285714       0.14285714       0.00000000 </v>
   <v>       0.28571429       0.14285714       0.00000000 </v>
   <v>       0.42857143       0.14285714       0.00000000 </v>
   <v>      -0.42857143       0.14285714       0.00000000 </v>
   <v>      -0.28571429       0.14285714       0.00000000 </v>
   <v>      -0.14285714       0.14285714       0.00000000 </v>
   <v>       0.28571429       0.28571429       0.00000000 </v>
   <v>       0.42857143       0.28571429       0.00000000 </v>
   <v>      -0.42857143       0.28571429       0.00000000 </v>
   <v>      -0.28571429       0.28571429       0.00000000 </v>
   <v>       0.42857143       0.42857143       0.00000000 </v>
   <v>      -0.42857143       0.42857143       0.00000000 </v>
   <v>      -0.00000000      -0.00000000       0.12500000 </v>
   <v>       0.14285714      -0.00000000       0.12500000 </v>
   <v>       0.28571429      -0.00000000       0.12500000 </v>
   <v>       0.42857143       0.00000000       0.12500000 </v>
   <v>      -0.42857143       0.00000000       0.12500000 </v>
   <v>      -0.28571429       0.00000000       0.12500000 </v>
   <v>      -0.14285714       0.00000000       0.12500000 </v>
   <v>       0.14285714       0.14285714       0.12500000 </v>
   <v>       0.28571429       0.14285714       0.12500000 </v>
   <v>       0.42857143       0.14285714       0.12500000 </v>
   <v>      -0.42857143       0.14285714       0.12500000 </v>
   <v>      -0.28571429       0.14285714       0.12500000 </v>
   <v>      -0.14285714       0.14285714       0.12500000 </v>
   <v>       0.28571429       0.28571429       0.12500000 </v>
   <v>       0.42857143       0.28571429       0.12500000 </v>
   <v>      -0.42857143       0.28571429       0.12500000 </v>
   <v>      -0.28571429       0.28571429       0.12500000 </v>
   <v>      -0.14285714       0.28571429       0.12500000 </v>
   <v>       0.42857143       0.42857143       0.12500000 </v>
   <v>      -0.42857143       0.42857143       0.12500000 </v>
   <v>      -0.28571429       0.42857143       0.12500000 </v>
   <v>      -0.14285714       0.42857143       0.12500000 </v>
   <v>      -0.42857143      -0.42857143       0.12500000 </v>
   <v>      -0.28571429      -0.42857143       0.12500000 </v>
   <v>      -0.14285714      -0.42857143       0.12500000 </v>
   <v>      -0.28571429      -0.28571429       0.12500000 </v>
   <v>      -0.14285714      -0.28571429       0.12500000 </v>
   <v>      -0.14285714      -0.14285714       0.12500000 </v>
   <v>      -0.00000000      -0.00000000       0.25000000 </v>
   <v>       0.14285714      -0.00000000       0.25000000 </v>
   <v>       0.28571429      -0.00000000       0.25000000 </v>
   <v>       0.42857143       0.00000000       0.25000000 </v>
   <v>      -0.42857143      -0.00000000       0.25000000 </v>
   <v>      -0.28571429       0.00000000       0.25000000 </v>
   <v>      -0.14285714       0.00000000       0.25000000 </v>
   <v>       0.14285714       0.14285714       0.25000000 </v>
   <v>       0.28571429       0.14285714       0.25000000 </v>
   <v>       0.42857143       0.14285714       0.25000000 </v>
   <v>      -0.42857143       0.14285714       0.25000000 </v>
   <v>      -0.28571429       0.14285714       0.25000000 </v>
   <v>      -0.14285714       0.14285714       0.25000000 </v>
   <v>       0.28571429       0.28571429       0.25000000 </v>
   <v>       0.42857143       0.28571429       0.25000000 </v>
   <v>      -0.42857143       0.28571429       0.25000000 </v>
   <v>      -0.28571429       0.28571429       0.25000000 </v>
   <v>      -0.14285714       0.28571429       0.25000000 </v>
   <v>       0.42857143       0.42857143       0.25000000 </v>
   <v>      -0.42857143       0.42857143       0.25000000 </v>
   <v>      -0.28571429       0.42857143       0.25000000 </v>
   <v>      -0.14285714       0.42857143       0.25000000 </v>
   <v>      -0.42857143      -0.42857143       0.25000000 </v>
   <v>      -0.28571429      -0.42857143       0.25000000 </v>
   <v>      -0.14285714      -0.42857143       0.25000000 </v>
   <v>      -0.28571429      -0.28571429       0.25000000 </v>
   <v>      -0.14285714      -0.28571429       0.25000000 </v>
   <v>      -0.14285714      -0.14285714       0.25000000 </v>
   <v>      -0.00000000       0.00000000       0.37500000 </v>
   <v>       0.14285714       0.00000000       0.37500000 </v>
   <v>       0.28571429      -0.00000000       0.37500000 </v>
   <v>       0.42857143      -0.00000000       0.37500000 </v>
   <v>      -0.42857143      -0.00000000       0.37500000 </v>
   <v>      -0.28571429      -0.00000000       0.37500000 </v>
   <v>      -0.14285714      -0.00000000       0.37500000 </v>
   <v>       0.14285714       0.14285714       0.37500000 </v>
   <v>       0.28571429       0.14285714       0.37500000 </v>
   <v>       0.42857143       0.14285714       0.37500000 </v>
   <v>      -0.42857143       0.14285714       0.37500000 </v>
   <v>      -0.28571429       0.14285714       0.37500000 </v>
   <v>      -0.14285714       0.14285714       0.37500000 </v>
   <v>       0.28571429       0.28571429       0.37500000 </v>
   <v>       0.42857143       0.28571429       0.37500000 </v>
   <v>      -0.42857143       0.28571429       0.37500000 </v>
   <v>      -0.28571429       0.28571429       0.37500000 </v>
   <v>      -0.14285714       0.28571429       0.37500000 </v>
   <v>       0.42857143       0.42857143       0.37500000 </v>
   <v>      -0.42857143       0.42857143       0.37500000 </v>
   <v>      -0.28571429       0.42857143       0.37500000 </v>
   <v>      -0.14285714       0.42857143       0.37500000 </v>
   <v>      -0.42857143      -0.42857143       0.37500000 </v>
   <v>      -0.28571429      -0.42857143       0.37500000 </v>
   <v>      -0.14285714      -0.42857143       0.37500000 </v>
   <v>      -0.28571429      -0.28571429       0.37500000 </v>
   <v>      -0.14285714      -0.28571429       0.37500000 </v>
   <v>      -0.14285714      -0.14285714       0.37500000 </v>
   <v>      -0.00000000      -0.00000000       0.50000000 </v>
   <v>       0.14285714       0.00000000       0.50000000 </v>
   <v>       0.28571429      -0.00000000       0.50000000 </v>
   <v>       0.42857143       0.00000000       0.50000000 </v>
   <v>       0.14285714       0.14285714       0.50000000 </v>
   <v>       0.28571429       0.14285714       0.50000000 </v>
   <v>       0.42857143       0.14285714       0.50000000 </v>
   <v>      -0.42857143       0.14285714       0.50000000 </v>
   <v>      -0.28571429       0.14285714       0.50000000 </v>
   <v>      -0.14285714       0.14285714       0.50000000 </v>
   <v>       0.28571429       0.28571429       0.50000000 </v>
   <v>       0.42857143       0.28571429       0.50000000 </v>
   <v>      -0.42857143       0.28571429       0.50000000 </v>
   <v>      -0.28571429       0.28571429       0.50000000 </v>
   <v>       0.42857143       0.42857143       0.50000000 </v>
   <v>      -0.42857143       0.42857143       0.50000000 </v>
  </varray>
  <varray name="weights" >
   <v>       0.00255102 </v>
   <v>       0.01020408 </v>
   <v>       0.01020408 </v>
   <v>       0.01020408 </v>
   <v>       0.00510204 </v>
   <v>       0.01020408 </v>
   <v>       0.01020408 </v>
   <v>       0.01020408 </v>
   <v>       0.01020408 </v>
   <v>       0.00510204 </v>
   <v>       0.00510204 </v>
   <v>       0.01020408 </v>
   <v>       0.01020408 </v>
   <v>       0.00510204 </v>
   <v>       0.00510204 </v>
   <v>       0.00510204 </v>
   <v>       0.00510204 </v>
   <v>       0.01020408 </v>
   <v>       0.01020408 </v>
   <v>       0.01020408 </v>
   <v>       0.01020408 </v>
   <v>       0.01020408 </v>
   <v>       0.01020408 </v>
   <v>       0.00510204 </v>
   <v>       0.01020408 </v>
   <v>       0.01020408 </v>
   <v>       0.01020408 </v>
   <v>       0.01020408 </v>
   <v>       0.01020408 </v>
   <v>       0.00510204 </v>
   <v>       0.01020408 </v>
   <v>       0.01020408 </v>
   <v>       0.01020408 </v>
   <v>       0.01020408 </v>
   <v>       0.00510204 </v>
   <v>       0.01020408 </v>
   <v>       0.01020408 </v>
   <v>       0.01020408 </v>
   <v>       0.00510204 </v>
   <v>       0.01020408 </v>
   <v>       0.01020408 </v>
   <v>       0.00510204 </v>
   <v>       0.01020408 </v>
   <v>       0.00510204 </v>
   <v>       0.00510204 </v>
   <v>       0.01020408 </v>
   <v>       0.01020408 </v>
   <v>       0.01020408 </v>
   <v>       0.01020408 </v>
   <v>       0.01020408 </v>
   <v>       0.01020408 </v>
   <v>       0.00510204 </v>
   <v>       0.01020408 </v>
   <v>       0.01020408 </v>
   <v>       0.01020408 </v>
   <v>       0.01020408 </v>
   <v>       0.01020408 </v>
   <v>       0.00510204 </v>
   <v>       0.01020408 </v>
   <v>       0.01020408 </v>
   <v>       0.01020408 </v>
   <v>       0.01020408 </v>
   <v>       0.00510204 </v>
   <v>       0.01020408 </v>
   <v>       0.01020408 </v>
   <v>       0.01020408 </v>
   <v>       0.00510204 </v>
   <v>       0.01020408 </v>
   <v>       0.01020408 </v>
   <v>       0.00510204 </v>
   <v>       0.01020408 </v>
   <v>       0.00510204 </v>
   <v>       0.00510204 </v>
   <v>       0.01020408 </v>
   <v>       0.01020408 </v>
   <v>       0.01020408 </v>
   <v>       0.01020408 </v>
   <v>       0.01020408 </v>
   <v>       0.01020408 </v>
   <v>       0.00510204 </v>
   <v>       0.01020408 </v>
   <v>       0.01020408 </v>
   <v>       0.01020408 </v>
   <v>       0.01020408 </v>
   <v>       0.01020408 </v>
   <v>       0.00510204 </v>
   <v>       0.01020408 </v>
   <v>       0.01020408 </v>
   <v>       0.01020408 </v>
   <v>       0.01020408 </v>
   <v>       0.00510204 </v>
   <v>       0.01020408 </v>
   <v>       0.01020408 </v>
   <v>       0.01020408 </v>
   <v>       0.00510204 </v>
   <v>       0.01020408 </v>
   <v>       0.01020408 </v>
   <v>       0.00510204 </v>
   <v>       0.01020408 </v>
   <v>       0.00510204 </v>
   <v>       0.00255102 </v>
   <v>       0.01020408 </v>
   <v>       0.01020408 </v>
   <v>       0.01020408 </v>
   <v>       0.00510204 </v>
   <v>       0.01020408 </v>
   <v>       0.01020408 </v>
   <v>       0.01020408 </v>
   <v>       0.01020408 </v>
   <v>       0.00510204 </v>
   <v>       0.00510204 </v>
   <v>       0.01020408 </v>
   <v>       0.01020408 </v>
   <v>       0.00510204 </v>
   <v>       0.00510204 </v>
   <v>       0.00510204 </v>
  </varray>
 </kpoints>
 <parameters>
  <separator name="general" >
   <i type="string" name="SYSTEM">routine with relax: pwdword</i>
   <i type="logical" name="LCOMPAT"> F  </i>
  </separator>
  <separator name="electronic" >
   <i type="string" name="PREC">acc</i>
   <i name="ENMAX">    600.00000000</i>
   <i name="ENAUG">    535.51400000</i>
   <i name="EDIFF">      0.00000000</i>
   <i type="int" name="IALGO">    58</i>
   <i type="int" name="IWAVPR">    10</i>
   <i type="int" name="NBANDS">    72</i>
   <i type="int" name="NBANDSLOW">    -1</i>
   <i type="int" name="NBANDSHIGH">    -1</i>
   <i name="NELECT">    116.00000000</i>
   <i type="int" name="TURBO">     0</i>
   <i type="int" name="IRESTART">     0</i>
   <i type="int" name="NREBOOT">     0</i>
   <i type="int" name="NMIN">     0</i>
   <i name="EREF">      0.00000000</i>
   <separator name="electronic smearing" >
    <i type="int" name="ISMEAR">     0</i>
    <i name="SIGMA">      0.02000000</i>
    <i name="KSPACING">      0.50000000</i>
    <i type="logical" name="KGAMMA"> T  </i>
    <i type="logical" name="KBLOWUP"> F  </i>
   </separator>
   <separator name="electronic projectors" >
    <i type="logical" name="LREAL"> F  </i>
    <v name="ROPT">      0.00000000      0.00000000      0.00000000</v>
    <i type="int" name="LMAXPAW">  -100</i>
    <i type="int" name="LMAXMIX">     2</i>
    <i type="logical" name="NLSPLINE"> F  </i>
   </separator>
   <separator name="electronic startup" >
    <i type="int" name="ISTART">     0</i>
    <i type="int" name="ICHARG">     2</i>
    <i type="int" name="INIWAV">     1</i>
   </separator>
   <separator name="electronic spin" >
    <i type="int" name="ISPIN">     1</i>
    <i type="logical" name="LNONCOLLINEAR"> F  </i>
    <v name="MAGMOM">      1.00000000      1.00000000      1.00000000      1.00000000      1.00000000      1.00000000      1.00000000      1.00000000      1.00000000      1.00000000      1.00000000      1.00000000      1.00000000      1.00000000      1.00000000      1.00000000</v>
    <i name="NUPDOWN">     -1.00000000</i>
    <i type="logical" name="LSORBIT"> F  </i>
    <v name="SAXIS">      0.00000000      0.00000000      1.00000000</v>
    <i type="logical" name="LSPIRAL"> F  </i>
    <v name="QSPIRAL">      0.00000000      0.00000000      0.00000000</v>
    <i type="logical" name="LZEROZ"> F  </i>
   </separator>
   <separator name="electronic exchange-correlation" >
    <i type="logical" name="LASPH"> T  </i>
    <i type="logical" name="LMETAGGA"> F  </i>
   </separator>
   <separator name="electronic convergence" >
    <i type="int" name="NELM">   100</i>
    <i type="int" name="NELMDL">    -5</i>
    <i type="int" name="NELMIN">     6</i>
    <i name="ENINI">    600.00000000</i>
    <separator name="electronic convergence detail" >
     <i type="logical" name="LDIAG"> T  </i>
     <i type="logical" name="LSUBROT"> F  </i>
     <i name="WEIMIN">      0.00000000</i>
     <i name="EBREAK">      0.00000000</i>
     <i name="DEPER">      0.30000000</i>
     <i type="int" name="NRMM">     4</i>
     <i name="TIME">      0.40000000</i>
    </separator>
   </separator>
   <separator name="electronic mixer" >
    <i name="AMIX">      0.40000000</i>
    <i name="BMIX">      1.00000000</i>
    <i name="AMIN">      0.10000000</i>
    <i name="AMIX_MAG">      1.60000000</i>
    <i name="BMIX_MAG">      1.00000000</i>
    <separator name="electronic mixer details" >
     <i type="int" name="IMIX">     4</i>
     <i type="logical" name="MIXFIRST"> F  </i>
     <i type="int" name="MAXMIX">   -45</i>
     <i name="WC">    100.00000000</i>
     <i type="int" name="INIMIX">     1</i>
     <i type="int" name="MIXPRE">     1</i>
     <i type="int" name="MREMOVE">     5</i>
    </separator>
   </separator>
   <separator name="electronic dipolcorrection" >
    <i type="logical" name="LDIPOL"> F  </i>
    <i type="logical" name="LMONO"> F  </i>
    <i type="int" name="IDIPOL">     0</i>
    <i name="EPSILON">      1.00000000</i>
    <v name="DIPOL">   -100.00000000   -100.00000000   -100.00000000</v>
    <i name="EFIELD">      0.00000000</i>
   </separator>
  </separator>
  <separator name="grids" >
   <i type="int" name="NGX">    50</i>
   <i type="int" name="NGY">    50</i>
   <i type="int" name="NGZ">    50</i>
   <i type="int" name="NGXF">   100</i>
   <i type="int" name="NGYF">   100</i>
   <i type="int" name="NGZF">   100</i>
   <i type="logical" name="ADDGRID"> T  </i>
  </separator>
  <separator name="ionic" >
   <i type="int" name="NSW">     0</i>
   <i type="int" name="IBRION">    -1</i>
   <i type="int" name="MDALGO">     0</i>
   <i type="int" name="ISIF">    -1</i>
   <i name="PSTRESS">      0.00000000</i>
   <i name="EDIFFG">      0.00000001</i>
   <i type="int" name="NFREE">     0</i>
   <i name="POTIM">      0.50000000</i>
   <i name="SMASS">     -3.00000000</i>
   <i name="SCALEE">      1.00000000</i>
  </separator>
  <separator name="ionic md" >
   <i name="TEBEG">      0.00010000</i>
   <i name="TEEND">      0.00010000</i>
   <i type="int" name="NBLOCK">     1</i>
   <i type="int" name="KBLOCK">     1</i>
   <i type="int" name="NPACO">   256</i>
   <i name="APACO">     16.00000000</i>
  </separator>
  <separator name="symmetry" >
   <i type="int" name="ISYM">     2</i>
   <i name="SYMPREC">      0.00001000</i>
  </separator>
  <separator name="dos" >
   <i type="int" name="LORBIT">     0</i>
   <v name="RWIGS">     -1.00000000     -1.00000000     -1.00000000</v>
   <i type="int" name="NEDOS">   301</i>
   <i name="EMIN">     10.00000000</i>
   <i name="EMAX">    -10.00000000</i>
   <i name="EFERMI">      0.00000000</i>
  </separator>
  <separator name="writing" >
   <i type="int" name="NWRITE">     2</i>
   <i type="logical" name="LWAVE"> T  </i>
   <i type="logical" name="LDOWNSAMPLE"> F  </i>
   <i type="logical" name="LCHARG"> T  </i>
   <i type="logical" name="LPARD"> F  </i>
   <i type="logical" name="LVTOT"> F  </i>
   <i type="logical" name="LVHAR"> F  </i>
   <i type="logical" name="LELF"> F  </i>
   <i type="logical" name="LOPTICS"> F  </i>
   <v name="STM">      0.00000000      0.00000000      0.00000000      0.00000000      0.00000000      0.00000000      0.00000000</v>
  </separator>
  <separator name="performance" >
   <i type="int" name="NPAR">     6</i>
   <i type="int" name="NSIM">     4</i>
   <i type="int" name="NBLK">    -1</i>
   <i type="logical" name="LPLANE"> T  </i>
   <i type="logical" name="LSCALAPACK"> T  </i>
   <i type="logical" name="LSCAAWARE"> F  </i>
   <i type="logical" name="LSCALU"> F  </i>
   <i type="logical" name="LASYNC"> F  </i>
   <i type="logical" name="LORBITALREAL"> F  </i>
  </separator>
  <separator name="miscellaneous" >
   <i type="int" name="IDIOT">     3</i>
   <i type="int" name="PHON_NSTRUCT">    -1</i>
   <i type="logical" name="LMUSIC"> F  </i>
   <v name="POMASS">     10.81100000     95.94000000     28.08500000</v>
   <v name="DARWINR">      0.00000000      0.00000000      0.00000000</v>
   <v name="DARWINV">      1.00000000      1.00000000      1.00000000</v>
   <i type="logical" name="LCORR"> T  </i>
  </separator>
  <i type="logical" name="GGA_COMPAT"> T  </i>
  <i type="logical" name="LBERRY"> F  </i>
  <i type="int" name="ICORELEVEL">     0</i>
  <i type="logical" name="LDAU"> F  </i>
  <i type="int" name="I_CONSTRAINED_M">     0</i>
  <separator name="electronic exchange-correlation" >
   <i type="string" name="GGA">--</i>
   <i type="int" name="VOSKOWN">     0</i>
   <i type="logical" name="LHFCALC"> F  </i>
   <i type="string" name="PRECFOCK"></i>
   <i type="logical" name="LSYMGRAD"> F  </i>
   <i type="logical" name="LHFONE"> F  </i>
   <i type="logical" name="LRHFCALC"> F  </i>
   <i type="logical" name="LTHOMAS"> F  </i>
   <i type="logical" name="LMODELHF"> F  </i>
   <i type="logical" name="LFOCKACE"> F  </i>
   <i name="ENCUT4O">     -1.00000000</i>
   <i type="int" name="EXXOEP">     0</i>
   <i type="int" name="FOURORBIT">     0</i>
   <i name="AEXX">      0.00000000</i>
   <i name="HFALPHA">      0.00000000</i>
   <i name="MCALPHA">      0.00000000</i>
   <i name="ALDAX">      1.00000000</i>
   <i name="AGGAX">      1.00000000</i>
   <i name="ALDAC">      1.00000000</i>
   <i name="AGGAC">      1.00000000</i>
   <i type="int" name="NKREDX">     1</i>
   <i type="int" name="NKREDY">     1</i>
   <i type="int" name="NKREDZ">     1</i>
   <i type="logical" name="SHIFTRED"> F  </i>
   <i type="logical" name="ODDONLY"> F  </i>
   <i type="logical" name="EVENONLY"> F  </i>
   <i type="int" name="LMAXFOCK">     0</i>
   <i type="int" name="NMAXFOCKAE">     0</i>
   <i type="logical" name="LFOCKAEDFT"> F  </i>
   <i name="HFSCREEN">      0.00000000</i>
   <i name="HFSCREENC">      0.00000000</i>
   <i type="int" name="NBANDSGWLOW">     0</i>
  </separator>
  <separator name="vdW DFT" >
   <i type="logical" name="LUSE_VDW"> F  </i>
   <i name="Zab_VDW">     -0.84910000</i>
   <i name="PARAM1">      0.12340000</i>
   <i name="PARAM2">      1.00000000</i>
   <i name="PARAM3">      0.00000000</i>
  </separator>
  <separator name="model GW" >
   <i type="int" name="MODEL_GW">     0</i>
   <i name="MODEL_EPS0">      6.38048154</i>
   <i name="MODEL_ALPHA">      1.00000000</i>
  </separator>
  <separator name="linear response parameters" >
   <i type="logical" name="LEPSILON"> F  </i>
   <i type="logical" name="LRPA"> F  </i>
   <i type="logical" name="LNABLA"> F  </i>
   <i type="logical" name="LVEL"> F  </i>
   <i type="int" name="KINTER">     0</i>
   <i name="CSHIFT">      0.10000000</i>
   <i name="OMEGAMAX">     -1.00000000</i>
   <i name="DEG_THRESHOLD">      0.00200000</i>
   <i name="RTIME">     -0.10000000</i>
   <i name="WPLASMAI">      0.00000000</i>
   <v name="DFIELD">      0.00000000      0.00000000      0.00000000</v>
   <v name="WPLASMA">      0.00000000      0.00000000      0.00000000      0.00000000      0.00000000      0.00000000      0.00000000      0.00000000      0.00000000</v>
  </separator>
  <separator name="orbital magnetization" >
   <i type="logical" name="NUCIND"> F  </i>
   <v name="MAGPOS">      0.00000000      0.00000000      0.00000000</v>
   <i type="logical" name="LNICSALL"> T  </i>
   <i type="logical" name="ORBITALMAG"> F  </i>
   <i type="logical" name="LMAGBLOCH"> F  </i>
   <i type="logical" name="LCHIMAG"> F  </i>
   <i type="logical" name="LGAUGE"> T  </i>
   <i type="int" name="MAGATOM">     0</i>
   <v name="MAGDIPOL">      0.00000000      0.00000000      0.00000000</v>
   <v name="AVECCONST">      0.00000000      0.00000000      0.00000000</v>
  </separator>
  <separator name="response functions" >
   <i type="logical" name="LFINITE_TEMPERATURE"> F  </i>
   <i type="logical" name="LADDER"> F  </i>
   <i type="logical" name="LRPAFORCE"> F  </i>
   <i type="logical" name="LFXC"> F  </i>
   <i type="logical" name="LHARTREE"> T  </i>
   <i type="int" name="IBSE">     0</i>
   <v type="int" name="KPOINT">    -1     0     0     0</v>
   <i type="logical" name="LTCTC"> F  </i>
   <i type="logical" name="LTCTE"> F  </i>
   <i type="logical" name="LTETE"> F  </i>
   <i type="logical" name="LTRIPLET"> F  </i>
   <i type="logical" name="LFXCEPS"> F  </i>
   <i type="logical" name="LFXHEG"> F  </i>
   <i type="int" name="NATURALO">     2</i>
   <i type="logical" name="LHOLEGF"> F  </i>
   <i type="logical" name="L2ORDER"> F  </i>
   <i type="logical" name="LDMP1"> F  </i>
   <i type="logical" name="LMP2LT"> F  </i>
   <i type="logical" name="LSMP2LT"> F  </i>
   <i type="logical" name="LGWLF"> F  </i>
   <i name="ENCUTGW">     -2.00000000</i>
   <i name="ENCUTGWSOFT">     -2.00000000</i>
   <i name="ENCUTLF">     -1.00000000</i>
   <i type="logical" name="LESF_SPLINES"> F  </i>
   <i type="int" name="LMAXMP2">    -1</i>
   <i name="SCISSOR">      0.00000000</i>
   <i type="int" name="NOMEGA">     0</i>
   <i type="int" name="NOMEGAR">     0</i>
   <i type="int" name="NBANDSGW">    -1</i>
   <i type="int" name="NBANDSO">    -1</i>
   <i type="int" name="NBANDSV">    -1</i>
   <i type="int" name="NELM">   100</i>
   <i type="int" name="NELMHF">     1</i>
   <i type="int" name="DIM">     3</i>
   <i type="int" name="IESPILON">     4</i>
   <i type="int" name="ANTIRES">     0</i>
   <i name="OMEGAMAX">    -30.00000000</i>
   <i name="OMEGAMIN">    -30.00000000</i>
   <i name="OMEGATL">   -200.00000000</i>
   <i type="int" name="OMEGAGRID">     0</i>
   <i name="CSHIFT">     -0.10000000</i>
   <i type="logical" name="LSELFENERGY"> F  </i>
   <i type="logical" name="LSPECTRAL"> F  </i>
   <i type="logical" name="LSPECTRALGW"> F  </i>
   <i type="logical" name="LSINGLES"> F  </i>
   <i type="logical" name="LFERMIGW"> F  </i>
   <i type="logical" name="ODDONLYGW"> F  </i>
   <i type="logical" name="EVENONLYGW"> F  </i>
   <i type="int" name="NKREDLFX">     1</i>
   <i type="int" name="NKREDLFY">     1</i>
   <i type="int" name="NKREDLFZ">     1</i>
   <i type="int" name="MAXMEM">  2800</i>
   <i type="int" name="TELESCOPE">     0</i>
   <i type="int" name="NTAUPAR">    -1</i>
   <i type="int" name="NOMEGAPAR">    -1</i>
   <i name="DAMP_NEWTON">      0.80000001</i>
   <i name="LAMBDA">      1.00000000</i>
  </separator>
  <separator name="External order field" >
   <i name="OFIELD_KAPPA">      0.00000000</i>
   <v name="OFIELD_K">      0.00000000      0.00000000      0.00000000</v>
   <i name="OFIELD_Q6_NEAR">      0.00000000</i>
   <i name="OFIELD_Q6_FAR">      0.00000000</i>
   <i name="OFIELD_A">      0.00000000</i>
  </separator>
 </parameters>
 <atominfo>
  <atoms>      16 </atoms>
  <types>       3 </types>
  <array name="atoms" >
   <dimension dim="1">ion</dimension>
   <field type="string">element</field>
   <field type="int">atomtype</field>
   <set>
    <rc><c>B </c><c>   1</c></rc>
    <rc><c>B </c><c>   1</c></rc>
    <rc><c>B </c><c>   1</c></rc>
    <rc><c>B </c><c>   1</c></rc>
    <rc><c>B </c><c>   1</c></rc>
    <rc><c>B </c><c>   1</c></rc>
    <rc><c>B </c><c>   1</c></rc>
    <rc><c>B </c><c>   1</c></rc>
    <rc><c>Mo</c><c>   2</c></rc>
    <rc><c>Mo</c><c>   2</c></rc>
    <rc><c>Mo</c><c>   2</c></rc>
    <rc><c>Mo</c><c>   2</c></rc>
    <rc><c>Mo</c><c>   2</c></rc>
    <rc><c>Mo</c><c>   2</c></rc>
    <rc><c>Si</c><c>   3</c></rc>
    <rc><c>Si</c><c>   3</c></rc>
   </set>
  </array>
  <array name="atomtypes" >
   <dimension dim="1">type</dimension>
   <field type="int">atomspertype</field>
   <field type="string">element</field>
   <field>mass</field>
   <field>valence</field>
   <field type="string">pseudopotential</field>
   <set>
    <rc><c>   8</c><c>B </c><c>     10.81100000</c><c>      3.00000000</c><c>  PAW_PBE B 06Sep2000                   </c></rc>
    <rc><c>   6</c><c>Mo</c><c>     95.94000000</c><c>     14.00000000</c><c>  PAW_PBE Mo_sv 02Feb2006               </c></rc>
    <rc><c>   2</c><c>Si</c><c>     28.08500000</c><c>      4.00000000</c><c>  PAW_PBE Si 05Jan2001                  </c></rc>
   </set>
  </array>
 </atominfo>
 <structure name="initialpos" >
  <crystal>
   <varray name="basis" >
    <v>       5.39779097       0.00000000      -3.06462772 </v>
    <v>      -1.82951675       5.07828867      -3.06462772 </v>
    <v>       0.00000000       0.00000000       6.20710000 </v>
   </varray>
   <i name="volume">    170.14617434 </i>
   <varray name="rec_basis" >
    <v>       0.18526097       0.06674257       0.00000000 </v>
    <v>       0.00000000       0.19691673       0.00000000 </v>
    <v>       0.09146879       0.13017635       0.16110583 </v>
   </varray>
  </crystal>
  <varray name="positions" >
   <v>       0.11430000       0.61430000       0.17536000 </v>
   <v>       0.88570000       0.38570000       0.82464000 </v>
   <v>       0.61430000       0.43894000       0.50000000 </v>
   <v>       0.38570000       0.56106000       0.50000000 </v>
   <v>       0.43894000       0.93894000       0.82464000 </v>
   <v>       0.56106000       0.06106000       0.17536000 </v>
   <v>       0.93894000       0.11430000       0.50000000 </v>
   <v>       0.06106000       0.88570000       0.50000000 </v>
   <v>       0.28276000       0.21724000       0.50000000 </v>
   <v>       0.25000000       0.25000000       0.00000000 </v>
   <v>       0.71724000       0.78276000       0.50000000 </v>
   <v>       0.75000000       0.75000000       0.00000000 </v>
   <v>       0.21724000       0.71724000       0.93447000 </v>
   <v>       0.78276000       0.28276000       0.06553000 </v>
   <v>       0.00000000       0.00000000       0.00000000 </v>
   <v>       0.50000000       0.50000000       0.00000000 </v>
  </varray>
 </structure>
 <calculation>
  <scstep>
   <time name="total">   24.51   24.76</time>
   <energy>
    <i name="alphaZ">    675.00669222 </i>
    <i name="ewald">  -9918.49972124 </i>
    <i name="hartreedc">  -2481.67254582 </i>
    <i name="XCdc">    524.94503889 </i>
    <i name="pawpsdc">   9417.46121024 </i>
    <i name="pawaedc">  -9379.23717351 </i>
    <i name="eentropy">     -0.00082447 </i>
    <i name="bandstr">    379.42883050 </i>
    <i name="atom">  11949.18504973 </i>
    <i name="e_fr_energy">   1166.61655655 </i>
    <i name="e_wo_entrp">   1166.61738102 </i>
    <i name="e_0_energy">   1166.61696879 </i>
   </energy>
  </scstep>
  <scstep>
   <time name="total">   25.46   25.71</time>
   <energy>
    <i name="e_fr_energy">   -204.96653765 </i>
    <i name="e_wo_entrp">   -204.96528213 </i>
    <i name="e_0_energy">   -204.96590989 </i>
   </energy>
  </scstep>
  <scstep>
   <time name="total">   27.25   27.53</time>
   <energy>
    <i name="e_fr_energy">   -269.58964570 </i>
    <i name="e_wo_entrp">   -269.58847629 </i>
    <i name="e_0_energy">   -269.58906100 </i>
   </energy>
  </scstep>
  <scstep>
   <time name="total">   26.86   27.12</time>
   <energy>
    <i name="e_fr_energy">   -270.99663247 </i>
    <i name="e_wo_entrp">   -270.99541574 </i>
    <i name="e_0_energy">   -270.99602410 </i>
   </energy>
  </scstep>
  <scstep>
   <time name="total">   28.92   29.21</time>
   <energy>
    <i name="e_fr_energy">   -271.01842164 </i>
    <i name="e_wo_entrp">   -271.01720418 </i>
    <i name="e_0_energy">   -271.01781291 </i>
   </energy>
  </scstep>
  <scstep>
   <time name="total">   28.22   28.48</time>
   <energy>
    <i name="e_fr_energy">   -189.95100697 </i>
    <i name="e_wo_entrp">   -189.94939540 </i>
    <i name="e_0_energy">   -189.95020119 </i>
   </energy>
  </scstep>
  <scstep>
   <time name="total">   28.37   28.62</time>
   <energy>
    <i name="e_fr_energy">   -214.63902473 </i>
    <i name="e_wo_entrp">   -214.63759905 </i>
    <i name="e_0_energy">   -214.63831189 </i>
   </energy>
  </scstep>
  <scstep>
   <time name="total">   27.85   28.10</time>
   <energy>
    <i name="e_fr_energy">   -219.17709820 </i>
    <i name="e_wo_entrp">   -219.17529372 </i>
    <i name="e_0_energy">   -219.17619596 </i>
   </energy>
  </scstep>
  <scstep>
   <time name="total">   27.73   27.98</time>
   <energy>
    <i name="e_fr_energy">   -220.57051475 </i>
    <i name="e_wo_entrp">   -220.56910910 </i>
    <i name="e_0_energy">   -220.56981193 </i>
   </energy>
  </scstep>
  <scstep>
   <time name="total">   28.41   28.66</time>
   <energy>
    <i name="e_fr_energy">   -220.98014493 </i>
    <i name="e_wo_entrp">   -220.97868024 </i>
    <i name="e_0_energy">   -220.97941258 </i>
   </energy>
  </scstep>
  <scstep>
   <time name="total">   28.07   28.32</time>
   <energy>
    <i name="e_fr_energy">   -221.10679480 </i>
    <i name="e_wo_entrp">   -221.10530924 </i>
    <i name="e_0_energy">   -221.10605202 </i>
   </energy>
  </scstep>
  <scstep>
   <time name="total">   28.05   28.30</time>
   <energy>
    <i name="e_fr_energy">   -221.15425577 </i>
    <i name="e_wo_entrp">   -221.15273732 </i>
    <i name="e_0_energy">   -221.15349654 </i>
   </energy>
  </scstep>
  <scstep>
   <time name="total">   27.89   28.14</time>
   <energy>
    <i name="e_fr_energy">   -221.17357596 </i>
    <i name="e_wo_entrp">   -221.17217038 </i>
    <i name="e_0_energy">   -221.17287317 </i>
   </energy>
  </scstep>
  <scstep>
   <time name="total">   28.07   28.32</time>
   <energy>
    <i name="e_fr_energy">   -221.18168042 </i>
    <i name="e_wo_entrp">   -221.18037013 </i>
    <i name="e_0_energy">   -221.18102527 </i>
   </energy>
  </scstep>
  <scstep>
   <time name="total">   27.82   28.07</time>
   <energy>
    <i name="e_fr_energy">   -221.18454508 </i>
    <i name="e_wo_entrp">   -221.18328774 </i>
    <i name="e_0_energy">   -221.18391641 </i>
   </energy>
  </scstep>
  <scstep>
   <time name="total">   28.53   28.77</time>
   <energy>
    <i name="e_fr_energy">   -221.18558381 </i>
    <i name="e_wo_entrp">   -221.18435488 </i>
    <i name="e_0_energy">   -221.18496934 </i>
   </energy>
  </scstep>
  <scstep>
   <time name="total">   28.00   28.24</time>
   <energy>
    <i name="e_fr_energy">   -221.18593170 </i>
    <i name="e_wo_entrp">   -221.18471306 </i>
    <i name="e_0_energy">   -221.18532238 </i>
   </energy>
  </scstep>
  <scstep>
   <time name="total">   27.82   28.07</time>
   <energy>
    <i name="e_fr_energy">   -221.18607701 </i>
    <i name="e_wo_entrp">   -221.18486232 </i>
    <i name="e_0_energy">   -221.18546966 </i>
   </energy>
  </scstep>
  <scstep>
   <time name="total">   27.71   27.97</time>
   <energy>
    <i name="e_fr_energy">   -221.18613405 </i>
    <i name="e_wo_entrp">   -221.18492010 </i>
    <i name="e_0_energy">   -221.18552707 </i>
   </energy>
  </scstep>
  <scstep>
   <time name="total">   28.14   28.40</time>
   <energy>
    <i name="e_fr_energy">   -221.18615571 </i>
    <i name="e_wo_entrp">   -221.18494022 </i>
    <i name="e_0_energy">   -221.18554796 </i>
   </energy>
  </scstep>
  <scstep>
   <time name="total">   27.87   28.12</time>
   <energy>
    <i name="e_fr_energy">   -221.18616436 </i>
    <i name="e_wo_entrp">   -221.18494764 </i>
    <i name="e_0_energy">   -221.18555600 </i>
   </energy>
  </scstep>
  <scstep>
   <time name="total">   28.50   28.75</time>
   <energy>
    <i name="e_fr_energy">   -221.18616765 </i>
    <i name="e_wo_entrp">   -221.18494934 </i>
    <i name="e_0_energy">   -221.18555850 </i>
   </energy>
  </scstep>
  <scstep>
   <time name="total">   27.75   27.99</time>
   <energy>
    <i name="e_fr_energy">   -221.18616893 </i>
    <i name="e_wo_entrp">   -221.18494979 </i>
    <i name="e_0_energy">   -221.18555936 </i>
   </energy>
  </scstep>
  <scstep>
   <time name="total">   27.83   28.08</time>
   <energy>
    <i name="e_fr_energy">   -221.18616949 </i>
    <i name="e_wo_entrp">   -221.18494966 </i>
    <i name="e_0_energy">   -221.18555957 </i>
   </energy>
  </scstep>
  <scstep>
   <time name="total">   27.82   28.07</time>
   <energy>
    <i name="e_fr_energy">   -221.18616974 </i>
    <i name="e_wo_entrp">   -221.18494979 </i>
    <i name="e_0_energy">   -221.18555976 </i>
   </energy>
  </scstep>
  <scstep>
   <time name="total">   27.82   28.06</time>
   <energy>
    <i name="e_fr_energy">   -221.18616977 </i>
    <i name="e_wo_entrp">   -221.18494976 </i>
    <i name="e_0_energy">   -221.18555976 </i>
   </energy>
  </scstep>
  <scstep>
   <time name="total">   27.67   27.91</time>
   <energy>
    <i name="e_fr_energy">   -221.18616979 </i>
    <i name="e_wo_entrp">   -221.18494968 </i>
    <i name="e_0_energy">   -221.18555974 </i>
   </energy>
  </scstep>
  <scstep>
   <time name="total">   28.22   28.46</time>
   <energy>
    <i name="e_fr_energy">   -221.18616979 </i>
    <i name="e_wo_entrp">   -221.18494973 </i>
    <i name="e_0_energy">   -221.18555976 </i>
   </energy>
  </scstep>
  <scstep>
   <time name="total">   27.87   28.13</time>
   <energy>
    <i name="e_fr_energy">   -221.18616982 </i>
    <i name="e_wo_entrp">   -221.18494977 </i>
    <i name="e_0_energy">   -221.18555979 </i>
   </energy>
  </scstep>
  <scstep>
   <time name="total">   28.39   28.64</time>
   <energy>
    <i name="e_fr_energy">   -221.18616983 </i>
    <i name="e_wo_entrp">   -221.18494978 </i>
    <i name="e_0_energy">   -221.18555980 </i>
   </energy>
  </scstep>
  <scstep>
   <time name="total">   27.82   28.07</time>
   <energy>
    <i name="e_fr_energy">   -221.18616983 </i>
    <i name="e_wo_entrp">   -221.18494979 </i>
    <i name="e_0_energy">   -221.18555981 </i>
   </energy>
  </scstep>
  <scstep>
   <time name="total">   32.73   33.02</time>
   <energy>
    <i name="alphaZ">    675.00669222 </i>
    <i name="ewald">  -9918.49972124 </i>
    <i name="hartreedc">  -2342.32370699 </i>
    <i name="XCdc">    536.48243262 </i>
    <i name="pawpsdc">  16292.73062794 </i>
    <i name="pawaedc"> -16272.04082231 </i>
    <i name="eentropy">     -0.00122004 </i>
    <i name="bandstr">  -1141.72550176 </i>
    <i name="atom">  11949.18504973 </i>
    <i name="e_fr_energy">   -221.18616983 </i>
    <i name="e_wo_entrp">   -221.18494979 </i>
    <i name="e_0_energy">   -221.18555981 </i>
   </energy>
  </scstep>
  <structure>
   <crystal>
    <varray name="basis" >
     <v>       5.39779097       0.00000000      -3.06462772 </v>
     <v>      -1.82951675       5.07828867      -3.06462772 </v>
     <v>       0.00000000       0.00000000       6.20710000 </v>
    </varray>
    <i name="volume">    170.14617434 </i>
    <varray name="rec_basis" >
     <v>       0.18526097       0.06674257       0.00000000 </v>
     <v>       0.00000000       0.19691673       0.00000000 </v>
     <v>       0.09146879       0.13017635       0.16110583 </v>
    </varray>
   </crystal>
   <varray name="positions" >
    <v>       0.11430000       0.61430000       0.17536000 </v>
    <v>       0.88570000       0.38570000       0.82464000 </v>
    <v>       0.61430000       0.43894000       0.50000000 </v>
    <v>       0.38570000       0.56106000       0.50000000 </v>
    <v>       0.43894000       0.93894000       0.82464000 </v>
    <v>       0.56106000       0.06106000       0.17536000 </v>
    <v>       0.93894000       0.11430000       0.50000000 </v>
    <v>       0.06106000       0.88570000       0.50000000 </v>
    <v>       0.28276000       0.21724000       0.50000000 </v>
    <v>       0.25000000       0.25000000       0.00000000 </v>
    <v>       0.71724000       0.78276000       0.50000000 </v>
    <v>       0.75000000       0.75000000       0.00000000 </v>
    <v>       0.21724000       0.71724000       0.93447000 </v>
    <v>       0.78276000       0.28276000       0.06553000 </v>
    <v>       0.00000000       0.00000000       0.00000000 </v>
    <v>       0.50000000       0.50000000       0.00000000 </v>
   </varray>
  </structure>
  <varray name="forces" >
   <v>       0.00000000       0.00000000       0.00000000 </v>
   <v>       0.00000000       0.00000000       0.00000000 </v>
   <v>       0.00000000       0.00000000       0.00000000 </v>
   <v>       0.00000000       0.00000000       0.00000000 </v>
   <v>       0.00000000       0.00000000       0.00000000 </v>
   <v>       0.00000000       0.00000000       0.00000000 </v>
   <v>       0.00000000       0.00000000       0.00000000 </v>
   <v>       0.00000000       0.00000000       0.00000000 </v>
   <v>       0.00000000       0.00000000       0.00000000 </v>
   <v>       0.00000000       0.00000000       0.00000000 </v>
   <v>       0.00000000       0.00000000       0.00000000 </v>
   <v>       0.00000000       0.00000000       0.00000000 </v>
   <v>       0.00000000       0.00000000       0.00000000 </v>
   <v>       0.00000000       0.00000000       0.00000000 </v>
   <v>       0.00000000       0.00000000       0.00000000 </v>
   <v>       0.00000000       0.00000000       0.00000000 </v>
  </varray>
  <varray name="stress" >
   <v>       0.00000000       0.00000000       0.00000000 </v>
   <v>       0.00000000       0.00000000       0.00000000 </v>
   <v>       0.00000000       0.00000000       0.00000000 </v>
  </varray>
  <energy>
   <i name="e_fr_energy">   -221.18616983 </i>
   <i name="e_wo_entrp">   -221.18494979 </i>
   <i name="e_0_energy">   -221.18555981 </i>
  </energy>
  <time name="totalsc">  897.79  905.90</time>
  <eigenvalues>
   <array>
    <dimension dim="1">band</dimension>
    <dimension dim="2">kpoint</dimension>
    <dimension dim="3">spin</dimension>
    <field>eigene</field>
    <field>occ</field>
    <set>
     <set comment="spin 1">
      <set comment="kpoint 1">
       <r>  -52.4535    1.0000 </r>
       <r>  -52.4495    1.0000 </r>
       <r>  -51.6242    1.0000 </r>
       <r>  -51.5997    1.0000 </r>
       <r>  -51.5988    1.0000 </r>
       <r>  -51.5754    1.0000 </r>
       <r>  -26.4103    1.0000 </r>
       <r>  -26.3077    1.0000 </r>
       <r>  -25.9519    1.0000 </r>
       <r>  -25.9508    1.0000 </r>
       <r>  -25.9417    1.0000 </r>
       <r>  -25.9409    1.0000 </r>
       <r>  -25.4892    1.0000 </r>
       <r>  -25.3767    1.0000 </r>
       <r>  -25.3765    1.0000 </r>
       <r>  -25.2221    1.0000 </r>
       <r>  -25.1598    1.0000 </r>
       <r>  -25.1408    1.0000 </r>
       <r>  -25.1243    1.0000 </r>
       <r>  -25.1230    1.0000 </r>
       <r>  -24.9776    1.0000 </r>
       <r>  -24.7793    1.0000 </r>
       <r>  -24.7778    1.0000 </r>
       <r>  -24.6748    1.0000 </r>
       <r>   -2.8392    1.0000 </r>
       <r>   -0.1985    1.0000 </r>
       <r>    0.1546    1.0000 </r>
       <r>    0.8362    1.0000 </r>
       <r>    0.9365    1.0000 </r>
       <r>    0.9404    1.0000 </r>
       <r>    2.5161    1.0000 </r>
       <r>    3.4138    1.0000 </r>
       <r>    3.4145    1.0000 </r>
       <r>    3.6199    1.0000 </r>
       <r>    5.0901    1.0000 </r>
       <r>    5.0902    1.0000 </r>
       <r>    5.1293    1.0000 </r>
       <r>    5.4644    1.0000 </r>
       <r>    5.5912    1.0000 </r>
       <r>    5.9137    1.0000 </r>
       <r>    5.9137    1.0000 </r>
       <r>    6.2576    1.0000 </r>
       <r>    6.4137    1.0000 </r>
       <r>    6.4153    1.0000 </r>
       <r>    6.6322    1.0000 </r>
       <r>    8.0150    1.0000 </r>
       <r>    8.7888    1.0000 </r>
       <r>    8.9570    1.0000 </r>
       <r>    9.3275    1.0000 </r>
       <r>    9.4394    1.0000 </r>
       <r>    9.4409    1.0000 </r>
       <r>    9.6328    1.0000 </r>
       <r>    9.6332    1.0000 </r>
       <r>    9.6911    1.0000 </r>
       <r>   10.0871    1.0000 </r>
       <r>   10.0892    1.0000 </r>
       <r>   10.1570    1.0000 </r>
       <r>   10.6742    1.0000 </r>
       <r>   10.9292    1.0000 </r>
       <r>   11.2252    0.8636 </r>
       <r>   11.2257    0.8552 </r>
       <r>   12.3563    0.0000 </r>
       <r>   12.5814    0.0000 </r>
       <r>   12.6601    0.0000 </r>
       <r>   12.7429    0.0000 </r>
       <r>   12.7435    0.0000 </r>
       <r>   13.2282    0.0000 </r>
       <r>   13.2294    0.0000 </r>
       <r>   13.6438    0.0000 </r>
       <r>   14.0809    0.0000 </r>
       <r>   14.1137    0.0000 </r>
       <r>   14.1934    0.0000 </r>
      </set>
      <set comment="kpoint 2">
       <r>  -52.4532    1.0000 </r>
       <r>  -52.4496    1.0000 </r>
       <r>  -51.6231    1.0000 </r>
       <r>  -51.6007    1.0000 </r>
       <r>  -51.5980    1.0000 </r>
       <r>  -51.5766    1.0000 </r>
       <r>  -26.3982    1.0000 </r>
       <r>  -26.3054    1.0000 </r>
       <r>  -25.9474    1.0000 </r>
       <r>  -25.9466    1.0000 </r>
       <r>  -25.9368    1.0000 </r>
       <r>  -25.9353    1.0000 </r>
       <r>  -25.4910    1.0000 </r>
       <r>  -25.3894    1.0000 </r>
       <r>  -25.3714    1.0000 </r>
       <r>  -25.2314    1.0000 </r>
       <r>  -25.1632    1.0000 </r>
       <r>  -25.1429    1.0000 </r>
       <r>  -25.1303    1.0000 </r>
       <r>  -25.1268    1.0000 </r>
       <r>  -24.9692    1.0000 </r>
       <r>  -24.7900    1.0000 </r>
       <r>  -24.7745    1.0000 </r>
       <r>  -24.6812    1.0000 </r>
       <r>   -2.7157    1.0000 </r>
       <r>   -0.0979    1.0000 </r>
       <r>    0.1671    1.0000 </r>
       <r>    0.3608    1.0000 </r>
       <r>    0.8637    1.0000 </r>
       <r>    1.2226    1.0000 </r>
       <r>    2.5758    1.0000 </r>
       <r>    3.0846    1.0000 </r>
       <r>    3.5967    1.0000 </r>
       <r>    4.1004    1.0000 </r>
       <r>    4.3879    1.0000 </r>
       <r>    5.0796    1.0000 </r>
       <r>    5.5122    1.0000 </r>
       <r>    5.5893    1.0000 </r>
       <r>    5.7471    1.0000 </r>
       <r>    5.9156    1.0000 </r>
       <r>    5.9972    1.0000 </r>
       <r>    6.2212    1.0000 </r>
       <r>    6.4192    1.0000 </r>
       <r>    6.4537    1.0000 </r>
       <r>    6.5894    1.0000 </r>
       <r>    7.9334    1.0000 </r>
       <r>    8.7164    1.0000 </r>
       <r>    8.8766    1.0000 </r>
       <r>    9.0555    1.0000 </r>
       <r>    9.2189    1.0000 </r>
       <r>    9.2879    1.0000 </r>
       <r>    9.4094    1.0000 </r>
       <r>    9.4272    1.0000 </r>
       <r>    9.5853    1.0000 </r>
       <r>    9.8363    1.0000 </r>
       <r>   10.0070    1.0000 </r>
       <r>   10.0869    1.0000 </r>
       <r>   11.3571    0.0000 </r>
       <r>   11.3822    0.0000 </r>
       <r>   11.4580    0.0000 </r>
       <r>   11.4991    0.0000 </r>
       <r>   12.2090    0.0000 </r>
       <r>   12.2212    0.0000 </r>
       <r>   12.4696    0.0000 </r>
       <r>   12.6803    0.0000 </r>
       <r>   12.7408    0.0000 </r>
       <r>   13.1283    0.0000 </r>
       <r>   13.5032    0.0000 </r>
       <r>   13.6875    0.0000 </r>
       <r>   13.7327    0.0000 </r>
       <r>   14.0637    0.0000 </r>
       <r>   14.2538    0.0000 </r>
      </set>
      <set comment="kpoint 3">
       <r>  -52.4524    1.0000 </r>
       <r>  -52.4499    1.0000 </r>
       <r>  -51.6199    1.0000 </r>
       <r>  -51.6044    1.0000 </r>
       <r>  -51.5948    1.0000 </r>
       <r>  -51.5799    1.0000 </r>
       <r>  -26.3679    1.0000 </r>
       <r>  -26.3029    1.0000 </r>
       <r>  -25.9357    1.0000 </r>
       <r>  -25.9346    1.0000 </r>
       <r>  -25.9257    1.0000 </r>
       <r>  -25.9236    1.0000 </r>
       <r>  -25.4938    1.0000 </r>
       <r>  -25.4233    1.0000 </r>
       <r>  -25.3556    1.0000 </r>
       <r>  -25.2575    1.0000 </r>
       <r>  -25.1690    1.0000 </r>
       <r>  -25.1471    1.0000 </r>
       <r>  -25.1451    1.0000 </r>
       <r>  -25.1348    1.0000 </r>
       <r>  -24.9448    1.0000 </r>
       <r>  -24.8209    1.0000 </r>
       <r>  -24.7627    1.0000 </r>
       <r>  -24.6984    1.0000 </r>
       <r>   -2.3581    1.0000 </r>
       <r>   -0.3596    1.0000 </r>
       <r>    0.1946    1.0000 </r>
       <r>    0.2371    1.0000 </r>
       <r>    0.6951    1.0000 </r>
       <r>    1.5162    1.0000 </r>
       <r>    2.1240    1.0000 </r>
       <r>    3.4951    1.0000 </r>
       <r>    3.5811    1.0000 </r>
       <r>    4.1067    1.0000 </r>
       <r>    4.6675    1.0000 </r>
       <r>    5.1504    1.0000 </r>
       <r>    5.4440    1.0000 </r>
       <r>    5.7598    1.0000 </r>
       <r>    5.7789    1.0000 </r>
       <r>    5.9392    1.0000 </r>
       <r>    6.0523    1.0000 </r>
       <r>    6.1950    1.0000 </r>
       <r>    6.4638    1.0000 </r>
       <r>    6.5263    1.0000 </r>
       <r>    6.8031    1.0000 </r>
       <r>    7.8769    1.0000 </r>
       <r>    8.0920    1.0000 </r>
       <r>    8.2716    1.0000 </r>
       <r>    8.4426    1.0000 </r>
       <r>    8.7160    1.0000 </r>
       <r>    9.0720    1.0000 </r>
       <r>    9.2114    1.0000 </r>
       <r>    9.4098    1.0000 </r>
       <r>    9.7266    1.0000 </r>
       <r>    9.8400    1.0000 </r>
       <r>    9.9852    1.0000 </r>
       <r>   10.4416    1.0000 </r>
       <r>   11.4903    0.0000 </r>
       <r>   11.6956    0.0000 </r>
       <r>   11.7021    0.0000 </r>
       <r>   11.7641    0.0000 </r>
       <r>   12.0791    0.0000 </r>
       <r>   12.0809    0.0000 </r>
       <r>   12.3834    0.0000 </r>
       <r>   12.5037    0.0000 </r>
       <r>   12.8240    0.0000 </r>
       <r>   12.8353    0.0000 </r>
       <r>   13.2559    0.0000 </r>
       <r>   13.4381    0.0000 </r>
       <r>   14.0472    0.0000 </r>
       <r>   14.3792    0.0000 </r>
       <r>   14.5905    0.0000 </r>
      </set>
      <set comment="kpoint 4">
       <r>  -52.4514    1.0000 </r>
       <r>  -52.4506    1.0000 </r>
       <r>  -51.6151    1.0000 </r>
       <r>  -51.6096    1.0000 </r>
       <r>  -51.5900    1.0000 </r>
       <r>  -51.5847    1.0000 </r>
       <r>  -26.3339    1.0000 </r>
       <r>  -26.3105    1.0000 </r>
       <r>  -25.9228    1.0000 </r>
       <r>  -25.9213    1.0000 </r>
       <r>  -25.9176    1.0000 </r>
       <r>  -25.9171    1.0000 </r>
       <r>  -25.4881    1.0000 </r>
       <r>  -25.4629    1.0000 </r>
       <r>  -25.3288    1.0000 </r>
       <r>  -25.2935    1.0000 </r>
       <r>  -25.1694    1.0000 </r>
       <r>  -25.1611    1.0000 </r>
       <r>  -25.1474    1.0000 </r>
       <r>  -25.1430    1.0000 </r>
       <r>  -24.9075    1.0000 </r>
       <r>  -24.8633    1.0000 </r>
       <r>  -24.7442    1.0000 </r>
       <r>  -24.7213    1.0000 </r>
       <r>   -1.8039    1.0000 </r>
       <r>   -1.1116    1.0000 </r>
       <r>    0.3431    1.0000 </r>
       <r>    0.4848    1.0000 </r>
       <r>    0.6839    1.0000 </r>
       <r>    1.2428    1.0000 </r>
       <r>    2.2387    1.0000 </r>
       <r>    2.8528    1.0000 </r>
       <r>    4.1686    1.0000 </r>
       <r>    4.6823    1.0000 </r>
       <r>    4.9227    1.0000 </r>
       <r>    5.0909    1.0000 </r>
       <r>    5.4359    1.0000 </r>
       <r>    5.4957    1.0000 </r>
       <r>    5.6094    1.0000 </r>
       <r>    5.7939    1.0000 </r>
       <r>    6.2319    1.0000 </r>
       <r>    6.2687    1.0000 </r>
       <r>    6.6845    1.0000 </r>
       <r>    6.7609    1.0000 </r>
       <r>    7.1660    1.0000 </r>
       <r>    7.3080    1.0000 </r>
       <r>    7.5410    1.0000 </r>
       <r>    7.7147    1.0000 </r>
       <r>    8.2080    1.0000 </r>
       <r>    8.3656    1.0000 </r>
       <r>    9.0300    1.0000 </r>
       <r>    9.0885    1.0000 </r>
       <r>    9.5607    1.0000 </r>
       <r>    9.7513    1.0000 </r>
       <r>    9.9646    1.0000 </r>
       <r>   10.2263    1.0000 </r>
       <r>   10.7654    1.0000 </r>
       <r>   11.1742    1.0000 </r>
       <r>   11.2129    0.9753 </r>
       <r>   11.6201    0.0000 </r>
       <r>   11.7017    0.0000 </r>
       <r>   11.8724    0.0000 </r>
       <r>   12.3770    0.0000 </r>
       <r>   12.3871    0.0000 </r>
       <r>   12.6157    0.0000 </r>
       <r>   12.8628    0.0000 </r>
       <r>   12.9249    0.0000 </r>
       <r>   13.0340    0.0000 </r>
       <r>   13.6195    0.0000 </r>
       <r>   13.9285    0.0000 </r>
       <r>   14.5497    0.0000 </r>
       <r>   14.7064    0.0000 </r>
      </set>
      <set comment="kpoint 5">
       <r>  -52.4526    1.0000 </r>
       <r>  -52.4499    1.0000 </r>
       <r>  -51.6221    1.0000 </r>
       <r>  -51.5999    1.0000 </r>
       <r>  -51.5990    1.0000 </r>
       <r>  -51.5778    1.0000 </r>
       <r>  -26.3768    1.0000 </r>
       <r>  -26.3040    1.0000 </r>
       <r>  -25.9431    1.0000 </r>
       <r>  -25.9374    1.0000 </r>
       <r>  -25.9269    1.0000 </r>
       <r>  -25.9260    1.0000 </r>
       <r>  -25.5015    1.0000 </r>
       <r>  -25.3938    1.0000 </r>
       <r>  -25.3820    1.0000 </r>
       <r>  -25.2401    1.0000 </r>
       <r>  -25.1702    1.0000 </r>
       <r>  -25.1448    1.0000 </r>
       <r>  -25.1408    1.0000 </r>
       <r>  -25.1320    1.0000 </r>
       <r>  -24.9611    1.0000 </r>
       <r>  -24.7866    1.0000 </r>
       <r>  -24.7847    1.0000 </r>
       <r>  -24.6877    1.0000 </r>
       <r>   -2.5147    1.0000 </r>
       <r>    0.0574    1.0000 </r>
       <r>    0.1771    1.0000 </r>
       <r>    0.2953    1.0000 </r>
       <r>    0.3093    1.0000 </r>
       <r>    1.5273    1.0000 </r>
       <r>    2.2434    1.0000 </r>
       <r>    3.3935    1.0000 </r>
       <r>    3.7372    1.0000 </r>
       <r>    4.2199    1.0000 </r>
       <r>    4.5179    1.0000 </r>
       <r>    4.7439    1.0000 </r>
       <r>    5.5442    1.0000 </r>
       <r>    5.7815    1.0000 </r>
       <r>    5.8145    1.0000 </r>
       <r>    5.8594    1.0000 </r>
       <r>    6.1738    1.0000 </r>
       <r>    6.1894    1.0000 </r>
       <r>    6.4233    1.0000 </r>
       <r>    6.4299    1.0000 </r>
       <r>    6.7731    1.0000 </r>
       <r>    7.7317    1.0000 </r>
       <r>    8.2545    1.0000 </r>
       <r>    8.4490    1.0000 </r>
       <r>    8.6478    1.0000 </r>
       <r>    8.7114    1.0000 </r>
       <r>    9.0900    1.0000 </r>
       <r>    9.4039    1.0000 </r>
       <r>    9.5524    1.0000 </r>
       <r>    9.6916    1.0000 </r>
       <r>   10.0272    1.0000 </r>
       <r>   10.1512    1.0000 </r>
       <r>   10.6762    1.0000 </r>
       <r>   11.0072    1.0000 </r>
       <r>   11.3304    0.0000 </r>
       <r>   11.7675    0.0000 </r>
       <r>   11.8348    0.0000 </r>
       <r>   11.9917    0.0000 </r>
       <r>   12.0894    0.0000 </r>
       <r>   12.4663    0.0000 </r>
       <r>   12.5398    0.0000 </r>
       <r>   12.8057    0.0000 </r>
       <r>   12.8396    0.0000 </r>
       <r>   13.4290    0.0000 </r>
       <r>   13.4993    0.0000 </r>
       <r>   14.1355    0.0000 </r>
       <r>   14.1473    0.0000 </r>
       <r>   14.3602    0.0000 </r>
      </set>
      <set comment="kpoint 6">
       <r>  -52.4517    1.0000 </r>
       <r>  -52.4504    1.0000 </r>
       <r>  -51.6190    1.0000 </r>
       <r>  -51.6031    1.0000 </r>
       <r>  -51.5961    1.0000 </r>
       <r>  -51.5811    1.0000 </r>
       <r>  -26.3440    1.0000 </r>
       <r>  -26.3064    1.0000 </r>
       <r>  -25.9314    1.0000 </r>
       <r>  -25.9249    1.0000 </r>
       <r>  -25.9178    1.0000 </r>
       <r>  -25.9157    1.0000 </r>
       <r>  -25.5052    1.0000 </r>
       <r>  -25.4214    1.0000 </r>
       <r>  -25.3710    1.0000 </r>
       <r>  -25.2639    1.0000 </r>
       <r>  -25.1749    1.0000 </r>
       <r>  -25.1533    1.0000 </r>
       <r>  -25.1468    1.0000 </r>
       <r>  -25.1421    1.0000 </r>
       <r>  -24.9374    1.0000 </r>
       <r>  -24.8160    1.0000 </r>
       <r>  -24.7731    1.0000 </r>
       <r>  -24.7056    1.0000 </r>
       <r>   -2.1006    1.0000 </r>
       <r>   -0.5085    1.0000 </r>
       <r>    0.1508    1.0000 </r>
       <r>    0.2979    1.0000 </r>
       <r>    0.4425    1.0000 </r>
       <r>    1.6405    1.0000 </r>
       <r>    2.0216    1.0000 </r>
       <r>    3.6372    1.0000 </r>
       <r>    3.8520    1.0000 </r>
       <r>    4.2163    1.0000 </r>
       <r>    4.7281    1.0000 </r>
       <r>    5.1021    1.0000 </r>
       <r>    5.1196    1.0000 </r>
       <r>    5.7515    1.0000 </r>
       <r>    5.9298    1.0000 </r>
       <r>    5.9704    1.0000 </r>
       <r>    6.1922    1.0000 </r>
       <r>    6.2108    1.0000 </r>
       <r>    6.4044    1.0000 </r>
       <r>    6.5095    1.0000 </r>
       <r>    7.1167    1.0000 </r>
       <r>    7.4388    1.0000 </r>
       <r>    7.6468    1.0000 </r>
       <r>    7.8235    1.0000 </r>
       <r>    8.2039    1.0000 </r>
       <r>    8.4336    1.0000 </r>
       <r>    8.9448    1.0000 </r>
       <r>    9.2472    1.0000 </r>
       <r>    9.7633    1.0000 </r>
       <r>    9.9459    1.0000 </r>
       <r>   10.1784    1.0000 </r>
       <r>   10.2223    1.0000 </r>
       <r>   10.6044    1.0000 </r>
       <r>   11.1574    1.0000 </r>
       <r>   11.3190    0.0000 </r>
       <r>   11.7430    0.0000 </r>
       <r>   11.8957    0.0000 </r>
       <r>   12.0716    0.0000 </r>
       <r>   12.2515    0.0000 </r>
       <r>   12.3759    0.0000 </r>
       <r>   12.4527    0.0000 </r>
       <r>   12.6353    0.0000 </r>
       <r>   12.7829    0.0000 </r>
       <r>   13.2616    0.0000 </r>
       <r>   13.3269    0.0000 </r>
       <r>   14.2385    0.0000 </r>
       <r>   14.5203    0.0000 </r>
       <r>   14.6497    0.0000 </r>
      </set>
      <set comment="kpoint 7">
       <r>  -52.4511    1.0000 </r>
       <r>  -52.4508    1.0000 </r>
       <r>  -51.6142    1.0000 </r>
       <r>  -51.6082    1.0000 </r>
       <r>  -51.5913    1.0000 </r>
       <r>  -51.5859    1.0000 </r>
       <r>  -26.3205    1.0000 </r>
       <r>  -26.3149    1.0000 </r>
       <r>  -25.9223    1.0000 </r>
       <r>  -25.9190    1.0000 </r>
       <r>  -25.9177    1.0000 </r>
       <r>  -25.9107    1.0000 </r>
       <r>  -25.4907    1.0000 </r>
       <r>  -25.4512    1.0000 </r>
       <r>  -25.3419    1.0000 </r>
       <r>  -25.2963    1.0000 </r>
       <r>  -25.1729    1.0000 </r>
       <r>  -25.1627    1.0000 </r>
       <r>  -25.1502    1.0000 </r>
       <r>  -25.1444    1.0000 </r>
       <r>  -24.9011    1.0000 </r>
       <r>  -24.8576    1.0000 </r>
       <r>  -24.7538    1.0000 </r>
       <r>  -24.7296    1.0000 </r>
       <r>   -1.5226    1.0000 </r>
       <r>   -1.2631    1.0000 </r>
       <r>    0.0835    1.0000 </r>
       <r>    0.3946    1.0000 </r>
       <r>    0.9118    1.0000 </r>
       <r>    1.0841    1.0000 </r>
       <r>    2.4846    1.0000 </r>
       <r>    2.9803    1.0000 </r>
       <r>    4.3737    1.0000 </r>
       <r>    4.4735    1.0000 </r>
       <r>    4.9290    1.0000 </r>
       <r>    5.1041    1.0000 </r>
       <r>    5.2239    1.0000 </r>
       <r>    5.5312    1.0000 </r>
       <r>    5.7772    1.0000 </r>
       <r>    5.8508    1.0000 </r>
       <r>    6.2103    1.0000 </r>
       <r>    6.3164    1.0000 </r>
       <r>    6.5581    1.0000 </r>
       <r>    6.6030    1.0000 </r>
       <r>    6.9709    1.0000 </r>
       <r>    7.0805    1.0000 </r>
       <r>    7.4431    1.0000 </r>
       <r>    7.6468    1.0000 </r>
       <r>    8.1773    1.0000 </r>
       <r>    8.2525    1.0000 </r>
       <r>    8.8877    1.0000 </r>
       <r>    9.1481    1.0000 </r>
       <r>    9.9021    1.0000 </r>
       <r>   10.0608    1.0000 </r>
       <r>   10.1733    1.0000 </r>
       <r>   10.3745    1.0000 </r>
       <r>   10.6345    1.0000 </r>
       <r>   11.1568    1.0000 </r>
       <r>   11.2984    0.0000 </r>
       <r>   11.4882    0.0000 </r>
       <r>   11.8288    0.0000 </r>
       <r>   11.8579    0.0000 </r>
       <r>   12.3828    0.0000 </r>
       <r>   12.4675    0.0000 </r>
       <r>   12.5340    0.0000 </r>
       <r>   12.8162    0.0000 </r>
       <r>   12.9302    0.0000 </r>
       <r>   13.0254    0.0000 </r>
       <r>   13.5266    0.0000 </r>
       <r>   14.0343    0.0000 </r>
       <r>   14.5648    0.0000 </r>
       <r>   14.6891    0.0000 </r>
      </set>
      <set comment="kpoint 8">
       <r>  -52.4520    1.0000 </r>
       <r>  -52.4501    1.0000 </r>
       <r>  -51.6136    1.0000 </r>
       <r>  -51.6085    1.0000 </r>
       <r>  -51.5913    1.0000 </r>
       <r>  -51.5860    1.0000 </r>
       <r>  -26.3474    1.0000 </r>
       <r>  -26.3002    1.0000 </r>
       <r>  -25.9342    1.0000 </r>
       <r>  -25.9266    1.0000 </r>
       <r>  -25.9161    1.0000 </r>
       <r>  -25.9131    1.0000 </r>
       <r>  -25.4687    1.0000 </r>
       <r>  -25.4550    1.0000 </r>
       <r>  -25.3291    1.0000 </r>
       <r>  -25.3029    1.0000 </r>
       <r>  -25.1666    1.0000 </r>
       <r>  -25.1630    1.0000 </r>
       <r>  -25.1514    1.0000 </r>
       <r>  -25.1369    1.0000 </r>
       <r>  -24.9009    1.0000 </r>
       <r>  -24.8579    1.0000 </r>
       <r>  -24.7536    1.0000 </r>
       <r>  -24.7300    1.0000 </r>
       <r>   -1.9163    1.0000 </r>
       <r>   -0.8500    1.0000 </r>
       <r>    0.0492    1.0000 </r>
       <r>    0.4561    1.0000 </r>
       <r>    0.5763    1.0000 </r>
       <r>    1.5045    1.0000 </r>
       <r>    2.4232    1.0000 </r>
       <r>    3.0646    1.0000 </r>
       <r>    3.9255    1.0000 </r>
       <r>    4.4051    1.0000 </r>
       <r>    4.9084    1.0000 </r>
       <r>    5.2124    1.0000 </r>
       <r>    5.3434    1.0000 </r>
       <r>    5.6351    1.0000 </r>
       <r>    5.7043    1.0000 </r>
       <r>    5.9353    1.0000 </r>
       <r>    6.1409    1.0000 </r>
       <r>    6.2141    1.0000 </r>
       <r>    6.5155    1.0000 </r>
       <r>    6.5544    1.0000 </r>
       <r>    6.9661    1.0000 </r>
       <r>    7.0505    1.0000 </r>
       <r>    7.3871    1.0000 </r>
       <r>    8.1748    1.0000 </r>
       <r>    8.2309    1.0000 </r>
       <r>    8.5245    1.0000 </r>
       <r>    8.8812    1.0000 </r>
       <r>    9.1385    1.0000 </r>
       <r>    9.7432    1.0000 </r>
       <r>    9.7783    1.0000 </r>
       <r>   10.1890    1.0000 </r>
       <r>   10.3696    1.0000 </r>
       <r>   10.7888    1.0000 </r>
       <r>   11.1056    1.0000 </r>
       <r>   11.3441    0.0000 </r>
       <r>   11.5086    0.0000 </r>
       <r>   11.8874    0.0000 </r>
       <r>   12.0577    0.0000 </r>
       <r>   12.4048    0.0000 </r>
       <r>   12.6084    0.0000 </r>
       <r>   12.6754    0.0000 </r>
       <r>   12.7536    0.0000 </r>
       <r>   12.9371    0.0000 </r>
       <r>   12.9710    0.0000 </r>
       <r>   13.6960    0.0000 </r>
       <r>   13.7965    0.0000 </r>
       <r>   14.4924    0.0000 </r>
       <r>   14.8123    0.0000 </r>
      </set>
      <set comment="kpoint 9">
       <r>  -52.4528    1.0000 </r>
       <r>  -52.4497    1.0000 </r>
       <r>  -51.6184    1.0000 </r>
       <r>  -51.6032    1.0000 </r>
       <r>  -51.5961    1.0000 </r>
       <r>  -51.5812    1.0000 </r>
       <r>  -26.3780    1.0000 </r>
       <r>  -26.2993    1.0000 </r>
       <r>  -25.9471    1.0000 </r>
       <r>  -25.9368    1.0000 </r>
       <r>  -25.9254    1.0000 </r>
       <r>  -25.9239    1.0000 </r>
       <r>  -25.4757    1.0000 </r>
       <r>  -25.4129    1.0000 </r>
       <r>  -25.3560    1.0000 </r>
       <r>  -25.2659    1.0000 </r>
       <r>  -25.1648    1.0000 </r>
       <r>  -25.1486    1.0000 </r>
       <r>  -25.1467    1.0000 </r>
       <r>  -25.1283    1.0000 </r>
       <r>  -24.9373    1.0000 </r>
       <r>  -24.8165    1.0000 </r>
       <r>  -24.7730    1.0000 </r>
       <r>  -24.7061    1.0000 </r>
       <r>   -2.4036    1.0000 </r>
       <r>   -0.1659    1.0000 </r>
       <r>    0.0434    1.0000 </r>
       <r>    0.1816    1.0000 </r>
       <r>    0.5064    1.0000 </r>
       <r>    1.9249    1.0000 </r>
       <r>    2.2245    1.0000 </r>
       <r>    3.4437    1.0000 </r>
       <r>    3.6059    1.0000 </r>
       <r>    3.8241    1.0000 </r>
       <r>    4.7306    1.0000 </r>
       <r>    4.8912    1.0000 </r>
       <r>    5.5805    1.0000 </r>
       <r>    5.7014    1.0000 </r>
       <r>    5.8752    1.0000 </r>
       <r>    5.9960    1.0000 </r>
       <r>    6.1406    1.0000 </r>
       <r>    6.1827    1.0000 </r>
       <r>    6.3918    1.0000 </r>
       <r>    6.4273    1.0000 </r>
       <r>    6.6878    1.0000 </r>
       <r>    7.6190    1.0000 </r>
       <r>    7.9898    1.0000 </r>
       <r>    8.2318    1.0000 </r>
       <r>    8.7668    1.0000 </r>
       <r>    8.9490    1.0000 </r>
       <r>    9.0536    1.0000 </r>
       <r>    9.1625    1.0000 </r>
       <r>    9.5658    1.0000 </r>
       <r>    9.7384    1.0000 </r>
       <r>    9.9139    1.0000 </r>
       <r>   10.2050    1.0000 </r>
       <r>   10.4410    1.0000 </r>
       <r>   11.1762    1.0000 </r>
       <r>   11.6240    0.0000 </r>
       <r>   11.7770    0.0000 </r>
       <r>   11.8746    0.0000 </r>
       <r>   12.1377    0.0000 </r>
       <r>   12.2212    0.0000 </r>
       <r>   12.4869    0.0000 </r>
       <r>   12.6551    0.0000 </r>
       <r>   12.8687    0.0000 </r>
       <r>   13.0959    0.0000 </r>
       <r>   13.2326    0.0000 </r>
       <r>   13.5277    0.0000 </r>
       <r>   13.7601    0.0000 </r>
       <r>   14.3822    0.0000 </r>
       <r>   14.5878    0.0000 </r>
      </set>
      <set comment="kpoint 10">
       <r>  -52.4532    1.0000 </r>
       <r>  -52.4496    1.0000 </r>
       <r>  -51.6217    1.0000 </r>
       <r>  -51.5998    1.0000 </r>
       <r>  -51.5990    1.0000 </r>
       <r>  -51.5778    1.0000 </r>
       <r>  -26.3984    1.0000 </r>
       <r>  -26.3036    1.0000 </r>
       <r>  -25.9521    1.0000 </r>
       <r>  -25.9409    1.0000 </r>
       <r>  -25.9393    1.0000 </r>
       <r>  -25.9336    1.0000 </r>
       <r>  -25.4818    1.0000 </r>
       <r>  -25.3861    1.0000 </r>
       <r>  -25.3719    1.0000 </r>
       <r>  -25.2404    1.0000 </r>
       <r>  -25.1614    1.0000 </r>
       <r>  -25.1439    1.0000 </r>
       <r>  -25.1339    1.0000 </r>
       <r>  -25.1243    1.0000 </r>
       <r>  -24.9610    1.0000 </r>
       <r>  -24.7883    1.0000 </r>
       <r>  -24.7832    1.0000 </r>
       <r>  -24.6881    1.0000 </r>
       <r>   -2.6784    1.0000 </r>
       <r>   -0.0718    1.0000 </r>
       <r>    0.1184    1.0000 </r>
       <r>    0.3771    1.0000 </r>
       <r>    0.5512    1.0000 </r>
       <r>    1.5926    1.0000 </r>
       <r>    2.7421    1.0000 </r>
       <r>    2.9648    1.0000 </r>
       <r>    3.4138    1.0000 </r>
       <r>    4.2817    1.0000 </r>
       <r>    4.3030    1.0000 </r>
       <r>    4.8600    1.0000 </r>
       <r>    5.5357    1.0000 </r>
       <r>    5.7697    1.0000 </r>
       <r>    5.8120    1.0000 </r>
       <r>    5.8610    1.0000 </r>
       <r>    6.0214    1.0000 </r>
       <r>    6.3341    1.0000 </r>
       <r>    6.3439    1.0000 </r>
       <r>    6.4553    1.0000 </r>
       <r>    6.5322    1.0000 </r>
       <r>    8.1090    1.0000 </r>
       <r>    8.3755    1.0000 </r>
       <r>    8.8590    1.0000 </r>
       <r>    8.9389    1.0000 </r>
       <r>    9.0191    1.0000 </r>
       <r>    9.1779    1.0000 </r>
       <r>    9.4017    1.0000 </r>
       <r>    9.5831    1.0000 </r>
       <r>    9.6706    1.0000 </r>
       <r>    9.8513    1.0000 </r>
       <r>   10.0016    1.0000 </r>
       <r>   10.4150    1.0000 </r>
       <r>   10.9839    1.0000 </r>
       <r>   11.0692    1.0000 </r>
       <r>   11.9000    0.0000 </r>
       <r>   11.9584    0.0000 </r>
       <r>   12.2038    0.0000 </r>
       <r>   12.2553    0.0000 </r>
       <r>   12.3501    0.0000 </r>
       <r>   12.5073    0.0000 </r>
       <r>   12.8910    0.0000 </r>
       <r>   13.2291    0.0000 </r>
       <r>   13.4687    0.0000 </r>
       <r>   13.5820    0.0000 </r>
       <r>   13.7441    0.0000 </r>
       <r>   14.0925    0.0000 </r>
       <r>   14.3826    0.0000 </r>
      </set>
      <set comment="kpoint 11">
       <r>  -52.4510    1.0000 </r>
       <r>  -52.4509    1.0000 </r>
       <r>  -51.6158    1.0000 </r>
       <r>  -51.6000    1.0000 </r>
       <r>  -51.5993    1.0000 </r>
       <r>  -51.5845    1.0000 </r>
       <r>  -26.3166    1.0000 </r>
       <r>  -26.3143    1.0000 </r>
       <r>  -25.9238    1.0000 </r>
       <r>  -25.9189    1.0000 </r>
       <r>  -25.9176    1.0000 </r>
       <r>  -25.9068    1.0000 </r>
       <r>  -25.4998    1.0000 </r>
       <r>  -25.4040    1.0000 </r>
       <r>  -25.3928    1.0000 </r>
       <r>  -25.2835    1.0000 </r>
       <r>  -25.1789    1.0000 </r>
       <r>  -25.1582    1.0000 </r>
       <r>  -25.1539    1.0000 </r>
       <r>  -25.1450    1.0000 </r>
       <r>  -24.9156    1.0000 </r>
       <r>  -24.8063    1.0000 </r>
       <r>  -24.7974    1.0000 </r>
       <r>  -24.7255    1.0000 </r>
       <r>   -1.6679    1.0000 </r>
       <r>   -0.6887    1.0000 </r>
       <r>   -0.4339    1.0000 </r>
       <r>    0.3181    1.0000 </r>
       <r>    0.7735    1.0000 </r>
       <r>    1.3392    1.0000 </r>
       <r>    2.4386    1.0000 </r>
       <r>    3.7278    1.0000 </r>
       <r>    4.2780    1.0000 </r>
       <r>    4.3775    1.0000 </r>
       <r>    4.5067    1.0000 </r>
       <r>    4.6911    1.0000 </r>
       <r>    5.4634    1.0000 </r>
       <r>    5.5824    1.0000 </r>
       <r>    6.0613    1.0000 </r>
       <r>    6.0905    1.0000 </r>
       <r>    6.1158    1.0000 </r>
       <r>    6.2368    1.0000 </r>
       <r>    6.2518    1.0000 </r>
       <r>    6.3958    1.0000 </r>
       <r>    6.8756    1.0000 </r>
       <r>    7.0097    1.0000 </r>
       <r>    7.4507    1.0000 </r>
       <r>    7.6457    1.0000 </r>
       <r>    8.0585    1.0000 </r>
       <r>    8.2349    1.0000 </r>
       <r>    8.8626    1.0000 </r>
       <r>    9.2552    1.0000 </r>
       <r>   10.0493    1.0000 </r>
       <r>   10.2343    1.0000 </r>
       <r>   10.3665    1.0000 </r>
       <r>   10.6609    1.0000 </r>
       <r>   10.6690    1.0000 </r>
       <r>   10.9813    1.0000 </r>
       <r>   11.2979    0.0000 </r>
       <r>   11.6469    0.0000 </r>
       <r>   11.9517    0.0000 </r>
       <r>   12.1534    0.0000 </r>
       <r>   12.2624    0.0000 </r>
       <r>   12.3383    0.0000 </r>
       <r>   12.5305    0.0000 </r>
       <r>   12.5401    0.0000 </r>
       <r>   12.8760    0.0000 </r>
       <r>   13.1704    0.0000 </r>
       <r>   13.2628    0.0000 </r>
       <r>   14.3236    0.0000 </r>
       <r>   14.4813    0.0000 </r>
       <r>   14.8396    0.0000 </r>
      </set>
      <set comment="kpoint 12">
       <r>  -52.4516    1.0000 </r>
       <r>  -52.4502    1.0000 </r>
       <r>  -51.6109    1.0000 </r>
       <r>  -51.6046    1.0000 </r>
       <r>  -51.5948    1.0000 </r>
       <r>  -51.5894    1.0000 </r>
       <r>  -26.3302    1.0000 </r>
       <r>  -26.2975    1.0000 </r>
       <r>  -25.9343    1.0000 </r>
       <r>  -25.9254    1.0000 </r>
       <r>  -25.9093    1.0000 </r>
       <r>  -25.8984    1.0000 </r>
       <r>  -25.4744    1.0000 </r>
       <r>  -25.4231    1.0000 </r>
       <r>  -25.3631    1.0000 </r>
       <r>  -25.3120    1.0000 </r>
       <r>  -25.1792    1.0000 </r>
       <r>  -25.1650    1.0000 </r>
       <r>  -25.1564    1.0000 </r>
       <r>  -25.1376    1.0000 </r>
       <r>  -24.8820    1.0000 </r>
       <r>  -24.8416    1.0000 </r>
       <r>  -24.7795    1.0000 </r>
       <r>  -24.7523    1.0000 </r>
       <r>   -1.2884    1.0000 </r>
       <r>   -1.1216    1.0000 </r>
       <r>   -0.4683    1.0000 </r>
       <r>    0.2742    1.0000 </r>
       <r>    0.9218    1.0000 </r>
       <r>    1.2275    1.0000 </r>
       <r>    2.9791    1.0000 </r>
       <r>    3.4229    1.0000 </r>
       <r>    3.9912    1.0000 </r>
       <r>    4.5123    1.0000 </r>
       <r>    4.8064    1.0000 </r>
       <r>    5.0422    1.0000 </r>
       <r>    5.1796    1.0000 </r>
       <r>    5.5218    1.0000 </r>
       <r>    5.8504    1.0000 </r>
       <r>    5.9867    1.0000 </r>
       <r>    6.1549    1.0000 </r>
       <r>    6.2284    1.0000 </r>
       <r>    6.2918    1.0000 </r>
       <r>    6.4679    1.0000 </r>
       <r>    6.4990    1.0000 </r>
       <r>    6.6914    1.0000 </r>
       <r>    7.0319    1.0000 </r>
       <r>    8.0660    1.0000 </r>
       <r>    8.2059    1.0000 </r>
       <r>    8.3992    1.0000 </r>
       <r>    8.8187    1.0000 </r>
       <r>    9.2450    1.0000 </r>
       <r>    9.9432    1.0000 </r>
       <r>   10.1650    1.0000 </r>
       <r>   10.5194    1.0000 </r>
       <r>   10.8321    1.0000 </r>
       <r>   10.8981    1.0000 </r>
       <r>   11.2104    0.9839 </r>
       <r>   11.2465    0.3391 </r>
       <r>   11.4064    0.0000 </r>
       <r>   11.9129    0.0000 </r>
       <r>   12.1454    0.0000 </r>
       <r>   12.3137    0.0000 </r>
       <r>   12.3853    0.0000 </r>
       <r>   12.6877    0.0000 </r>
       <r>   12.8236    0.0000 </r>
       <r>   13.0287    0.0000 </r>
       <r>   13.0987    0.0000 </r>
       <r>   13.3646    0.0000 </r>
       <r>   14.1659    0.0000 </r>
       <r>   14.7072    0.0000 </r>
       <r>   14.8815    0.0000 </r>
      </set>
      <set comment="kpoint 13">
       <r>  -52.4523    1.0000 </r>
       <r>  -52.4498    1.0000 </r>
       <r>  -51.6100    1.0000 </r>
       <r>  -51.6051    1.0000 </r>
       <r>  -51.5948    1.0000 </r>
       <r>  -51.5894    1.0000 </r>
       <r>  -26.3519    1.0000 </r>
       <r>  -26.2914    1.0000 </r>
       <r>  -25.9474    1.0000 </r>
       <r>  -25.9348    1.0000 </r>
       <r>  -25.9081    1.0000 </r>
       <r>  -25.9001    1.0000 </r>
       <r>  -25.4436    1.0000 </r>
       <r>  -25.4358    1.0000 </r>
       <r>  -25.3432    1.0000 </r>
       <r>  -25.3220    1.0000 </r>
       <r>  -25.1725    1.0000 </r>
       <r>  -25.1695    1.0000 </r>
       <r>  -25.1515    1.0000 </r>
       <r>  -25.1286    1.0000 </r>
       <r>  -24.8820    1.0000 </r>
       <r>  -24.8421    1.0000 </r>
       <r>  -24.7790    1.0000 </r>
       <r>  -24.7530    1.0000 </r>
       <r>   -1.8415    1.0000 </r>
       <r>   -0.5380    1.0000 </r>
       <r>   -0.3446    1.0000 </r>
       <r>    0.1788    1.0000 </r>
       <r>    0.5533    1.0000 </r>
       <r>    1.7359    1.0000 </r>
       <r>    2.9667    1.0000 </r>
       <r>    3.4724    1.0000 </r>
       <r>    3.6729    1.0000 </r>
       <r>    4.1065    1.0000 </r>
       <r>    4.7213    1.0000 </r>
       <r>    5.2120    1.0000 </r>
       <r>    5.4399    1.0000 </r>
       <r>    5.6432    1.0000 </r>
       <r>    5.7629    1.0000 </r>
       <r>    5.9663    1.0000 </r>
       <r>    6.0842    1.0000 </r>
       <r>    6.2563    1.0000 </r>
       <r>    6.2807    1.0000 </r>
       <r>    6.3380    1.0000 </r>
       <r>    6.6023    1.0000 </r>
       <r>    6.6568    1.0000 </r>
       <r>    6.9729    1.0000 </r>
       <r>    8.1565    1.0000 </r>
       <r>    8.6063    1.0000 </r>
       <r>    8.7535    1.0000 </r>
       <r>    9.0776    1.0000 </r>
       <r>    9.1946    1.0000 </r>
       <r>    9.6676    1.0000 </r>
       <r>    9.9345    1.0000 </r>
       <r>   10.4063    1.0000 </r>
       <r>   10.7093    1.0000 </r>
       <r>   10.8047    1.0000 </r>
       <r>   10.9823    1.0000 </r>
       <r>   11.5190    0.0000 </r>
       <r>   11.6541    0.0000 </r>
       <r>   11.9961    0.0000 </r>
       <r>   12.1696    0.0000 </r>
       <r>   12.3082    0.0000 </r>
       <r>   12.6659    0.0000 </r>
       <r>   12.7983    0.0000 </r>
       <r>   12.9667    0.0000 </r>
       <r>   13.0676    0.0000 </r>
       <r>   13.1883    0.0000 </r>
       <r>   13.4729    0.0000 </r>
       <r>   14.0576    0.0000 </r>
       <r>   14.6851    0.0000 </r>
       <r>   14.9667    0.0000 </r>
      </set>
      <set comment="kpoint 14">
       <r>  -52.4527    1.0000 </r>
       <r>  -52.4496    1.0000 </r>
       <r>  -51.6149    1.0000 </r>
       <r>  -51.6000    1.0000 </r>
       <r>  -51.5995    1.0000 </r>
       <r>  -51.5845    1.0000 </r>
       <r>  -26.3711    1.0000 </r>
       <r>  -26.2943    1.0000 </r>
       <r>  -25.9525    1.0000 </r>
       <r>  -25.9392    1.0000 </r>
       <r>  -25.9158    1.0000 </r>
       <r>  -25.9122    1.0000 </r>
       <r>  -25.4585    1.0000 </r>
       <r>  -25.4086    1.0000 </r>
       <r>  -25.3614    1.0000 </r>
       <r>  -25.2886    1.0000 </r>
       <r>  -25.1675    1.0000 </r>
       <r>  -25.1597    1.0000 </r>
       <r>  -25.1483    1.0000 </r>
       <r>  -25.1245    1.0000 </r>
       <r>  -24.9156    1.0000 </r>
       <r>  -24.8083    1.0000 </r>
       <r>  -24.7958    1.0000 </r>
       <r>  -24.7263    1.0000 </r>
       <r>   -2.2265    1.0000 </r>
       <r>   -0.1582    1.0000 </r>
       <r>   -0.0031    1.0000 </r>
       <r>    0.0517    1.0000 </r>
       <r>    0.2949    1.0000 </r>
       <r>    2.1333    1.0000 </r>
       <r>    2.5063    1.0000 </r>
       <r>    3.4104    1.0000 </r>
       <r>    3.6544    1.0000 </r>
       <r>    3.8606    1.0000 </r>
       <r>    4.5505    1.0000 </r>
       <r>    5.0528    1.0000 </r>
       <r>    5.5344    1.0000 </r>
       <r>    5.6862    1.0000 </r>
       <r>    5.8886    1.0000 </r>
       <r>    6.0691    1.0000 </r>
       <r>    6.1996    1.0000 </r>
       <r>    6.2420    1.0000 </r>
       <r>    6.3193    1.0000 </r>
       <r>    6.3284    1.0000 </r>
       <r>    6.6415    1.0000 </r>
       <r>    6.8951    1.0000 </r>
       <r>    7.4268    1.0000 </r>
       <r>    8.2732    1.0000 </r>
       <r>    8.7533    1.0000 </r>
       <r>    9.0117    1.0000 </r>
       <r>    9.1045    1.0000 </r>
       <r>    9.2814    1.0000 </r>
       <r>    9.5024    1.0000 </r>
       <r>    9.9709    1.0000 </r>
       <r>   10.1103    1.0000 </r>
       <r>   10.3568    1.0000 </r>
       <r>   10.6906    1.0000 </r>
       <r>   11.1933    0.9996 </r>
       <r>   11.3606    0.0000 </r>
       <r>   11.8440    0.0000 </r>
       <r>   11.9647    0.0000 </r>
       <r>   12.0965    0.0000 </r>
       <r>   12.1107    0.0000 </r>
       <r>   12.6152    0.0000 </r>
       <r>   12.9037    0.0000 </r>
       <r>   13.1424    0.0000 </r>
       <r>   13.2512    0.0000 </r>
       <r>   13.2723    0.0000 </r>
       <r>   13.3787    0.0000 </r>
       <r>   14.1307    0.0000 </r>
       <r>   14.2301    0.0000 </r>
       <r>   14.7706    0.0000 </r>
      </set>
      <set comment="kpoint 15">
[...]
       <r>   11.6886    0.0000 </r>
       <r>   12.8833    0.0000 </r>
       <r>   13.0642    0.0000 </r>
       <r>   13.1185    0.0000 </r>
       <r>   13.2303    0.0000 </r>
       <r>   13.4378    0.0000 </r>
       <r>   13.4588    0.0000 </r>
       <r>   13.9341    0.0000 </r>
       <r>   14.5962    0.0000 </r>
       <r>   14.6599    0.0000 </r>
       <r>   14.8556    0.0000 </r>
      </set>
      <set comment="kpoint 116">
       <r>  -52.4511    1.0000 </r>
       <r>  -52.4498    1.0000 </r>
       <r>  -51.6258    1.0000 </r>
       <r>  -51.5999    1.0000 </r>
       <r>  -51.5990    1.0000 </r>
       <r>  -51.5759    1.0000 </r>
       <r>  -26.2961    1.0000 </r>
       <r>  -26.2647    1.0000 </r>
       <r>  -25.9008    1.0000 </r>
       <r>  -25.8990    1.0000 </r>
       <r>  -25.8898    1.0000 </r>
       <r>  -25.8871    1.0000 </r>
       <r>  -25.6160    1.0000 </r>
       <r>  -25.4319    1.0000 </r>
       <r>  -25.4306    1.0000 </r>
       <r>  -25.2265    1.0000 </r>
       <r>  -25.2208    1.0000 </r>
       <r>  -25.1747    1.0000 </r>
       <r>  -25.1720    1.0000 </r>
       <r>  -25.1504    1.0000 </r>
       <r>  -24.9736    1.0000 </r>
       <r>  -24.7812    1.0000 </r>
       <r>  -24.7789    1.0000 </r>
       <r>  -24.6760    1.0000 </r>
       <r>   -1.6795    1.0000 </r>
       <r>   -0.2172    1.0000 </r>
       <r>   -0.1954    1.0000 </r>
       <r>    0.4040    1.0000 </r>
       <r>    1.0163    1.0000 </r>
       <r>    1.1972    1.0000 </r>
       <r>    1.2675    1.0000 </r>
       <r>    4.1714    1.0000 </r>
       <r>    4.3197    1.0000 </r>
       <r>    4.3846    1.0000 </r>
       <r>    4.6851    1.0000 </r>
       <r>    5.0476    1.0000 </r>
       <r>    5.1420    1.0000 </r>
       <r>    5.3930    1.0000 </r>
       <r>    5.8581    1.0000 </r>
       <r>    6.1929    1.0000 </r>
       <r>    6.3240    1.0000 </r>
       <r>    6.3819    1.0000 </r>
       <r>    6.4057    1.0000 </r>
       <r>    6.5125    1.0000 </r>
       <r>    6.5433    1.0000 </r>
       <r>    6.7223    1.0000 </r>
       <r>    6.9063    1.0000 </r>
       <r>    7.1807    1.0000 </r>
       <r>    8.0747    1.0000 </r>
       <r>    8.4495    1.0000 </r>
       <r>    8.7274    1.0000 </r>
       <r>    9.1685    1.0000 </r>
       <r>    9.7221    1.0000 </r>
       <r>    9.7267    1.0000 </r>
       <r>   10.2977    1.0000 </r>
       <r>   10.7277    1.0000 </r>
       <r>   10.9075    1.0000 </r>
       <r>   10.9855    1.0000 </r>
       <r>   11.4422    0.0000 </r>
       <r>   11.5193    0.0000 </r>
       <r>   11.6616    0.0000 </r>
       <r>   11.6657    0.0000 </r>
       <r>   12.9036    0.0000 </r>
       <r>   13.1491    0.0000 </r>
       <r>   13.2651    0.0000 </r>
       <r>   13.3643    0.0000 </r>
       <r>   13.6713    0.0000 </r>
       <r>   13.7080    0.0000 </r>
       <r>   13.9448    0.0000 </r>
       <r>   14.1837    0.0000 </r>
       <r>   14.3000    0.0000 </r>
       <r>   15.5419    0.0000 </r>
      </set>
     </set>
    </set>
   </array>
  </eigenvalues>
  <separator name="orbital magnetization" >
   <v name="MAGDIPOLOUT">      0.00000000      0.00000000      0.00000000</v>
  </separator>
  <dos>
   <i name="efermi">     11.24067990 </i>
   <total>
    <array>
     <dimension dim="1">gridpoints</dimension>
     <dimension dim="2">spin</dimension>
     <field>energy</field>
     <field>total</field>
     <field>integrated</field>
     <set>
      <set comment="spin 1">
       <r>   -55.8532     0.0000     0.0000 </r>
       <r>   -55.6039     0.0000     0.0000 </r>
       <r>   -55.3546     0.0000     0.0000 </r>
       <r>   -55.1053     0.0000     0.0000 </r>
       <r>   -54.8560     0.0000     0.0000 </r>
       <r>   -54.6067     0.0000     0.0000 </r>
       <r>   -54.3573     0.0000     0.0000 </r>
       <r>   -54.1080     0.0000     0.0000 </r>
       <r>   -53.8587     0.0000     0.0000 </r>
       <r>   -53.6094     0.0000     0.0000 </r>
       <r>   -53.3601     0.0000     0.0000 </r>
       <r>   -53.1108     0.0000     0.0000 </r>
       <r>   -52.8615     0.0000     0.0000 </r>
       <r>   -52.6121     0.0000     0.0000 </r>
       <r>   -52.3628    16.0439     4.0000 </r>
       <r>   -52.1135     0.0000     4.0000 </r>
       <r>   -51.8642     0.0000     4.0000 </r>
       <r>   -51.6149     6.9627     5.7359 </r>
       <r>   -51.3656     0.0000    12.0000 </r>
       <r>   -51.1162     0.0000    12.0000 </r>
       <r>   -50.8669     0.0000    12.0000 </r>
       <r>   -50.6176     0.0000    12.0000 </r>
       <r>   -50.3683     0.0000    12.0000 </r>
       <r>   -50.1190     0.0000    12.0000 </r>
       <r>   -49.8697     0.0000    12.0000 </r>
       <r>   -49.6203     0.0000    12.0000 </r>
       <r>   -49.3710     0.0000    12.0000 </r>
       <r>   -49.1217     0.0000    12.0000 </r>
       <r>   -48.8724     0.0000    12.0000 </r>
       <r>   -48.6231     0.0000    12.0000 </r>
       <r>   -48.3738     0.0000    12.0000 </r>
       <r>   -48.1244     0.0000    12.0000 </r>
       <r>   -47.8751     0.0000    12.0000 </r>
       <r>   -47.6258     0.0000    12.0000 </r>
       <r>   -47.3765     0.0000    12.0000 </r>
       <r>   -47.1272     0.0000    12.0000 </r>
       <r>   -46.8779     0.0000    12.0000 </r>
       <r>   -46.6285     0.0000    12.0000 </r>
       <r>   -46.3792     0.0000    12.0000 </r>
       <r>   -46.1299     0.0000    12.0000 </r>
       <r>   -45.8806     0.0000    12.0000 </r>
       <r>   -45.6313     0.0000    12.0000 </r>
       <r>   -45.3820     0.0000    12.0000 </r>
       <r>   -45.1326     0.0000    12.0000 </r>
       <r>   -44.8833     0.0000    12.0000 </r>
       <r>   -44.6340     0.0000    12.0000 </r>
       <r>   -44.3847     0.0000    12.0000 </r>
       <r>   -44.1354     0.0000    12.0000 </r>
       <r>   -43.8861     0.0000    12.0000 </r>
       <r>   -43.6367     0.0000    12.0000 </r>
       <r>   -43.3874     0.0000    12.0000 </r>
       <r>   -43.1381     0.0000    12.0000 </r>
       <r>   -42.8888     0.0000    12.0000 </r>
       <r>   -42.6395     0.0000    12.0000 </r>
       <r>   -42.3902     0.0000    12.0000 </r>
       <r>   -42.1408     0.0000    12.0000 </r>
       <r>   -41.8915     0.0000    12.0000 </r>
       <r>   -41.6422     0.0000    12.0000 </r>
       <r>   -41.3929     0.0000    12.0000 </r>
       <r>   -41.1436     0.0000    12.0000 </r>
       <r>   -40.8943     0.0000    12.0000 </r>
       <r>   -40.6449     0.0000    12.0000 </r>
       <r>   -40.3956     0.0000    12.0000 </r>
       <r>   -40.1463     0.0000    12.0000 </r>
       <r>   -39.8970     0.0000    12.0000 </r>
       <r>   -39.6477     0.0000    12.0000 </r>
       <r>   -39.3984     0.0000    12.0000 </r>
       <r>   -39.1490     0.0000    12.0000 </r>
       <r>   -38.8997     0.0000    12.0000 </r>
       <r>   -38.6504     0.0000    12.0000 </r>
       <r>   -38.4011     0.0000    12.0000 </r>
       <r>   -38.1518     0.0000    12.0000 </r>
       <r>   -37.9025     0.0000    12.0000 </r>
       <r>   -37.6531     0.0000    12.0000 </r>
       <r>   -37.4038     0.0000    12.0000 </r>
       <r>   -37.1545     0.0000    12.0000 </r>
       <r>   -36.9052     0.0000    12.0000 </r>
       <r>   -36.6559     0.0000    12.0000 </r>
       <r>   -36.4066     0.0000    12.0000 </r>
       <r>   -36.1572     0.0000    12.0000 </r>
       <r>   -35.9079     0.0000    12.0000 </r>
       <r>   -35.6586     0.0000    12.0000 </r>
       <r>   -35.4093     0.0000    12.0000 </r>
       <r>   -35.1600     0.0000    12.0000 </r>
       <r>   -34.9107     0.0000    12.0000 </r>
       <r>   -34.6614     0.0000    12.0000 </r>
       <r>   -34.4120     0.0000    12.0000 </r>
       <r>   -34.1627     0.0000    12.0000 </r>
       <r>   -33.9134     0.0000    12.0000 </r>
       <r>   -33.6641     0.0000    12.0000 </r>
       <r>   -33.4148     0.0000    12.0000 </r>
       <r>   -33.1655     0.0000    12.0000 </r>
       <r>   -32.9161     0.0000    12.0000 </r>
       <r>   -32.6668     0.0000    12.0000 </r>
       <r>   -32.4175     0.0000    12.0000 </r>
       <r>   -32.1682     0.0000    12.0000 </r>
       <r>   -31.9189     0.0000    12.0000 </r>
       <r>   -31.6696     0.0000    12.0000 </r>
       <r>   -31.4202     0.0000    12.0000 </r>
       <r>   -31.1709     0.0000    12.0000 </r>
       <r>   -30.9216     0.0000    12.0000 </r>
       <r>   -30.6723     0.0000    12.0000 </r>
       <r>   -30.4230     0.0000    12.0000 </r>
       <r>   -30.1737     0.0000    12.0000 </r>
       <r>   -29.9243     0.0000    12.0000 </r>
       <r>   -29.6750     0.0000    12.0000 </r>
       <r>   -29.4257     0.0000    12.0000 </r>
       <r>   -29.1764     0.0000    12.0000 </r>
       <r>   -28.9271     0.0000    12.0000 </r>
       <r>   -28.6778     0.0000    12.0000 </r>
       <r>   -28.4284     0.0000    12.0000 </r>
       <r>   -28.1791     0.0000    12.0000 </r>
       <r>   -27.9298     0.0000    12.0000 </r>
       <r>   -27.6805     0.0000    12.0000 </r>
       <r>   -27.4312     0.0000    12.0000 </r>
       <r>   -27.1819     0.0000    12.0000 </r>
       <r>   -26.9325     0.0000    12.0000 </r>
       <r>   -26.6832     0.0000    12.0000 </r>
       <r>   -26.4339     0.0028    12.0007 </r>
       <r>   -26.1846    13.2607    16.0000 </r>
       <r>   -25.9353     7.0365    17.7543 </r>
       <r>   -25.6860     0.0000    24.0000 </r>
       <r>   -25.4366    10.1858    26.5701 </r>
       <r>   -25.1873    13.1739    32.7794 </r>
       <r>   -24.9380     2.5442    40.6343 </r>
       <r>   -24.6887    21.0201    47.6743 </r>
       <r>   -24.4394     0.0000    48.0000 </r>
       <r>   -24.1901     0.0000    48.0000 </r>
       <r>   -23.9407     0.0000    48.0000 </r>
       <r>   -23.6914     0.0000    48.0000 </r>
       <r>   -23.4421     0.0000    48.0000 </r>
       <r>   -23.1928     0.0000    48.0000 </r>
       <r>   -22.9435     0.0000    48.0000 </r>
       <r>   -22.6942     0.0000    48.0000 </r>
       <r>   -22.4448     0.0000    48.0000 </r>
       <r>   -22.1955     0.0000    48.0000 </r>
       <r>   -21.9462     0.0000    48.0000 </r>
       <r>   -21.6969     0.0000    48.0000 </r>
       <r>   -21.4476     0.0000    48.0000 </r>
       <r>   -21.1983     0.0000    48.0000 </r>
       <r>   -20.9489     0.0000    48.0000 </r>
       <r>   -20.6996     0.0000    48.0000 </r>
       <r>   -20.4503     0.0000    48.0000 </r>
       <r>   -20.2010     0.0000    48.0000 </r>
       <r>   -19.9517     0.0000    48.0000 </r>
       <r>   -19.7024     0.0000    48.0000 </r>
       <r>   -19.4530     0.0000    48.0000 </r>
       <r>   -19.2037     0.0000    48.0000 </r>
       <r>   -18.9544     0.0000    48.0000 </r>
       <r>   -18.7051     0.0000    48.0000 </r>
       <r>   -18.4558     0.0000    48.0000 </r>
       <r>   -18.2065     0.0000    48.0000 </r>
       <r>   -17.9571     0.0000    48.0000 </r>
       <r>   -17.7078     0.0000    48.0000 </r>
       <r>   -17.4585     0.0000    48.0000 </r>
       <r>   -17.2092     0.0000    48.0000 </r>
       <r>   -16.9599     0.0000    48.0000 </r>
       <r>   -16.7106     0.0000    48.0000 </r>
       <r>   -16.4613     0.0000    48.0000 </r>
       <r>   -16.2119     0.0000    48.0000 </r>
       <r>   -15.9626     0.0000    48.0000 </r>
       <r>   -15.7133     0.0000    48.0000 </r>
       <r>   -15.4640     0.0000    48.0000 </r>
       <r>   -15.2147     0.0000    48.0000 </r>
       <r>   -14.9654     0.0000    48.0000 </r>
       <r>   -14.7160     0.0000    48.0000 </r>
       <r>   -14.4667     0.0000    48.0000 </r>
       <r>   -14.2174     0.0000    48.0000 </r>
       <r>   -13.9681     0.0000    48.0000 </r>
       <r>   -13.7188     0.0000    48.0000 </r>
       <r>   -13.4695     0.0000    48.0000 </r>
       <r>   -13.2201     0.0000    48.0000 </r>
       <r>   -12.9708     0.0000    48.0000 </r>
       <r>   -12.7215     0.0000    48.0000 </r>
       <r>   -12.4722     0.0000    48.0000 </r>
       <r>   -12.2229     0.0000    48.0000 </r>
       <r>   -11.9736     0.0000    48.0000 </r>
       <r>   -11.7242     0.0000    48.0000 </r>
       <r>   -11.4749     0.0000    48.0000 </r>
       <r>   -11.2256     0.0000    48.0000 </r>
       <r>   -10.9763     0.0000    48.0000 </r>
       <r>   -10.7270     0.0000    48.0000 </r>
       <r>   -10.4777     0.0000    48.0000 </r>
       <r>   -10.2283     0.0000    48.0000 </r>
       <r>    -9.9790     0.0000    48.0000 </r>
       <r>    -9.7297     0.0000    48.0000 </r>
       <r>    -9.4804     0.0000    48.0000 </r>
       <r>    -9.2311     0.0000    48.0000 </r>
       <r>    -8.9818     0.0000    48.0000 </r>
       <r>    -8.7324     0.0000    48.0000 </r>
       <r>    -8.4831     0.0000    48.0000 </r>
       <r>    -8.2338     0.0000    48.0000 </r>
       <r>    -7.9845     0.0000    48.0000 </r>
       <r>    -7.7352     0.0000    48.0000 </r>
       <r>    -7.4859     0.0000    48.0000 </r>
       <r>    -7.2365     0.0000    48.0000 </r>
       <r>    -6.9872     0.0000    48.0000 </r>
       <r>    -6.7379     0.0000    48.0000 </r>
       <r>    -6.4886     0.0000    48.0000 </r>
       <r>    -6.2393     0.0000    48.0000 </r>
       <r>    -5.9900     0.0000    48.0000 </r>
       <r>    -5.7406     0.0000    48.0000 </r>
       <r>    -5.4913     0.0000    48.0000 </r>
       <r>    -5.2420     0.0000    48.0000 </r>
       <r>    -4.9927     0.0000    48.0000 </r>
       <r>    -4.7434     0.0000    48.0000 </r>
       <r>    -4.4941     0.0000    48.0000 </r>
       <r>    -4.2447     0.0000    48.0000 </r>
       <r>    -3.9954     0.0000    48.0000 </r>
       <r>    -3.7461     0.0000    48.0000 </r>
       <r>    -3.4968     0.0000    48.0000 </r>
       <r>    -3.2475     0.0000    48.0000 </r>
       <r>    -2.9982     0.0000    48.0000 </r>
       <r>    -2.7488     0.0327    48.0082 </r>
       <r>    -2.4995     0.2852    48.1476 </r>
       <r>    -2.2502     0.3589    48.3293 </r>
       <r>    -2.0009     0.9533    48.6509 </r>
       <r>    -1.7516     0.9493    48.9969 </r>
       <r>    -1.5023     1.6252    49.5225 </r>
       <r>    -1.2529     1.1281    49.9700 </r>
       <r>    -1.0036     1.7506    50.5691 </r>
       <r>    -0.7543     0.9652    50.9345 </r>
       <r>    -0.5050     1.9616    51.6166 </r>
       <r>    -0.2557     1.5229    52.2215 </r>
       <r>    -0.0064     3.1546    53.2916 </r>
       <r>     0.2430     3.3393    54.4958 </r>
       <r>     0.4923     3.2307    55.7085 </r>
       <r>     0.7416     2.7682    56.8279 </r>
       <r>     0.9909     3.0825    58.0032 </r>
       <r>     1.2402     1.9465    58.7047 </r>
       <r>     1.4895     1.0264    59.3120 </r>
       <r>     1.7388     1.5187    59.9450 </r>
       <r>     1.9882     1.0895    60.3737 </r>
       <r>     2.2375     1.0133    60.7832 </r>
       <r>     2.4868     1.3039    61.2434 </r>
       <r>     2.7361     0.5954    61.6127 </r>
       <r>     2.9854     1.4956    62.0004 </r>
       <r>     3.2347     1.2733    62.4348 </r>
       <r>     3.4841     2.1915    63.0923 </r>
       <r>     3.7334     2.5688    63.9772 </r>
       <r>     3.9827     2.8318    65.0376 </r>
       <r>     4.2320     2.6502    66.0077 </r>
       <r>     4.4813     4.2811    67.5826 </r>
       <r>     4.7306     2.9925    69.1440 </r>
       <r>     4.9800     4.0627    70.7170 </r>
       <r>     5.2293     4.4485    72.4152 </r>
       <r>     5.4786     3.9097    73.8982 </r>
       <r>     5.7279     5.2666    75.9610 </r>
       <r>     5.9772     5.9626    78.6600 </r>
       <r>     6.2265    10.4461    82.3493 </r>
       <r>     6.4759    11.5078    86.9201 </r>
       <r>     6.7252     5.4397    89.4634 </r>
       <r>     6.9745     2.7628    90.6888 </r>
       <r>     7.2238     3.3903    92.0902 </r>
       <r>     7.4731     3.1392    93.1908 </r>
       <r>     7.7224     2.3300    93.9789 </r>
       <r>     7.9718     3.0572    95.1194 </r>
       <r>     8.2211     5.6082    96.9900 </r>
       <r>     8.4704     2.8198    98.3153 </r>
       <r>     8.7197     3.2330    99.4489 </r>
       <r>     8.9690     4.4825   101.2655 </r>
       <r>     9.2183     3.8007   102.7282 </r>
       <r>     9.4677     1.7326   103.5697 </r>
       <r>     9.7170     4.7129   105.1648 </r>
       <r>     9.9663     4.4226   107.1026 </r>
       <r>    10.2156     4.0737   109.1228 </r>
       <r>    10.4649     3.7969   110.6201 </r>
       <r>    10.7142     4.8513   112.3932 </r>
       <r>    10.9636     3.6566   114.0137 </r>
       <r>    11.2129     5.2090   115.8140 </r>
       <r>    11.4622     4.7537   117.5474 </r>
       <r>    11.7115     5.8448   119.7429 </r>
       <r>    11.9608     6.4438   122.1014 </r>
       <r>    12.2101     5.7205   124.1711 </r>
       <r>    12.4595     7.7327   126.9432 </r>
       <r>    12.7088     6.7243   129.6102 </r>
       <r>    12.9581     7.5755   132.4346 </r>
       <r>    13.2074     4.6052   134.3777 </r>
       <r>    13.4567     4.2848   136.2264 </r>
       <r>    13.7060     3.0787   137.6757 </r>
       <r>    13.9554     2.1385   138.5332 </r>
       <r>    14.2047     2.3672   139.3861 </r>
       <r>    14.4540     2.9191   140.4063 </r>
       <r>    14.7033     4.7095   142.1742 </r>
       <r>    14.9526     3.3616   143.4146 </r>
       <r>    15.2019     0.4744   143.8734 </r>
       <r>    15.4513     0.2046   143.9898 </r>
       <r>    15.7006     0.0409   144.0000 </r>
       <r>    15.9499     0.0000   144.0000 </r>
       <r>    16.1992     0.0000   144.0000 </r>
       <r>    16.4485     0.0000   144.0000 </r>
       <r>    16.6978     0.0000   144.0000 </r>
       <r>    16.9472     0.0000   144.0000 </r>
       <r>    17.1965     0.0000   144.0000 </r>
       <r>    17.4458     0.0000   144.0000 </r>
       <r>    17.6951     0.0000   144.0000 </r>
       <r>    17.9444     0.0000   144.0000 </r>
       <r>    18.1937     0.0000   144.0000 </r>
       <r>    18.4431     0.0000   144.0000 </r>
       <r>    18.6924     0.0000   144.0000 </r>
       <r>    18.9417     0.0000   144.0000 </r>
      </set>
     </set>
    </array>
   </total>
  </dos>
 </calculation>
 <structure name="finalpos" >
  <crystal>
   <varray name="basis" >
    <v>       5.39779097       0.00000000      -3.06462772 </v>
    <v>      -1.82951675       5.07828867      -3.06462772 </v>
    <v>       0.00000000       0.00000000       6.20710000 </v>
   </varray>
   <i name="volume">    170.14617434 </i>
   <varray name="rec_basis" >
    <v>       0.18526097       0.06674257       0.00000000 </v>
    <v>       0.00000000       0.19691673       0.00000000 </v>
    <v>       0.09146879       0.13017635       0.16110583 </v>
   </varray>
  </crystal>
  <varray name="positions" >
   <v>       0.11430000       0.61430000       0.17536000 </v>
   <v>       0.88570000       0.38570000       0.82464000 </v>
   <v>       0.61430000       0.43894000       0.50000000 </v>
   <v>       0.38570000       0.56106000       0.50000000 </v>
   <v>       0.43894000       0.93894000       0.82464000 </v>
   <v>       0.56106000       0.06106000       0.17536000 </v>
   <v>       0.93894000       0.11430000       0.50000000 </v>
   <v>       0.06106000       0.88570000       0.50000000 </v>
   <v>       0.28276000       0.21724000       0.50000000 </v>
   <v>       0.25000000       0.25000000       0.00000000 </v>
   <v>       0.71724000       0.78276000       0.50000000 </v>
   <v>       0.75000000       0.75000000       0.00000000 </v>
   <v>       0.21724000       0.71724000       0.93447000 </v>
   <v>       0.78276000       0.28276000       0.06553000 </v>
   <v>       0.00000000       0.00000000       0.00000000 </v>
   <v>       0.50000000       0.50000000       0.00000000 </v>
  </varray>
 </structure>
</modeling>
