<?xml version="1.0" encoding="ISO-8859-1"?>
<modeling>
 <generator>
  <i name="program" type="string">vasp </i>
  <i name="version" type="string">6.2.0  </i>
  <i name="subversion" type="string">18Jan21 (build Jan 05 2022 15:41:44) complex                          parallel </i>
  <i name="platform" type="string">LinuxIFC </i>
  <i name="date" type="string">2025 05 07 </i>
  <i name="time" type="string">18:46:51 </i>
 </generator>
 <incar>
  <i type="string" name="SYSTEM">routine with relax: pwdword</i>
  <i type="string" name="PREC">Acc</i>
  <i type="int" name="IALGO">    38</i>
  <i type="string" name="ALGO">A</i>
  <i type="logical" name="ADDGRID"> T  </i>
  <i type="int" name="ICHARG">     2</i>
  <i type="int" name="NELM">   100</i>
  <i type="int" name="NELMIN">     6</i>
  <i name="EDIFF">      0.00000000</i>
  <i type="int" name="NSW">     0</i>
  <i type="int" name="ISIF">    -1</i>
  <i name="SYMPREC">      0.00010000</i>
  <i name="ENCUT">    600.00000000</i>
  <i type="logical" name="LREAL"> F  </i>
  <i type="int" name="ISMEAR">     0</i>
  <i name="SIGMA">      0.02000000</i>
  <i type="logical" name="LASPH"> T  </i>
  <i type="string" name="METAGGA">R2SCAN</i>
  <i type="logical" name="LMIXTAU"> F  </i>
 </incar>
 <primitive_cell>
  <structure name="primitive_cell" >
   <crystal>
    <varray name="basis" >
     <v>       5.62868910       0.00000000      -3.01681190 </v>
     <v>      -2.01685053       5.25494576      -3.01681190 </v>
     <v>       0.00000000       0.00000000       6.38618000 </v>
    </varray>
    <i name="volume">    188.89334339 </i>
    <varray name="rec_basis" >
     <v>       0.17766126       0.06818647       0.00000000 </v>
     <v>       0.00000000       0.19029692       0.00000000 </v>
     <v>       0.08392664       0.12210676       0.15658813 </v>
    </varray>
   </crystal>
   <varray name="positions" >
    <v>       0.74563000       0.24563000       0.99126000 </v>
    <v>       0.25437000       0.75437000       0.00874000 </v>
    <v>       0.24563000       0.25437000       0.50000000 </v>
    <v>       0.75437000       0.74563000       0.50000000 </v>
    <v>       1.00000000       0.50000000       1.00000000 </v>
    <v>       0.50000000       0.50000000       1.00000000 </v>
    <v>       0.50000000       0.50000000       0.50000000 </v>
    <v>       0.50000000       0.00000000       0.00000000 </v>
    <v>       0.00000000       0.00000000       0.50000000 </v>
    <v>       0.00000000       0.00000000       0.00000000 </v>
    <v>       0.25000000       0.25000000       1.00000000 </v>
    <v>       0.75000000       0.75000000       1.00000000 </v>
   </varray>
  </structure>
  <varray name="primitive_index" >
   <v type="int" >        1 </v>
   <v type="int" >        2 </v>
   <v type="int" >        3 </v>
   <v type="int" >        4 </v>
   <v type="int" >        5 </v>
   <v type="int" >        6 </v>
   <v type="int" >        7 </v>
   <v type="int" >        8 </v>
   <v type="int" >        9 </v>
   <v type="int" >       10 </v>
   <v type="int" >       11 </v>
   <v type="int" >       12 </v>
  </varray>
 </primitive_cell>
 <kpoints>
  <generation param="Gamma">
   <v type="int" name="divisions">       7        7        8 </v>
   <v name="usershift">      0.00000000       0.00000000       0.00000000 </v>
   <v name="genvec1">      0.14285714      -0.00000000       0.00000000 </v>
   <v name="genvec2">      0.00000000       0.14285714       0.00000000 </v>
   <v name="genvec3">      0.00000000      -0.00000000       0.12500000 </v>
   <v name="shift">      0.00000000       0.00000000       0.00000000 </v>
  </generation>
  <varray name="kpointlist" >
   <v>       0.00000000       0.00000000       0.00000000 </v>
   <v>       0.14285714       0.00000000       0.00000000 </v>
   <v>       0.28571429       0.00000000       0.00000000 </v>
   <v>       0.42857143       0.00000000       0.00000000 </v>
   <v>       0.14285714       0.14285714       0.00000000 </v>
   <v>       0.28571429       0.14285714       0.00000000 </v>
   <v>       0.42857143       0.14285714       0.00000000 </v>
   <v>      -0.42857143       0.14285714       0.00000000 </v>
   <v>      -0.28571429       0.14285714       0.00000000 </v>
   <v>      -0.14285714       0.14285714       0.00000000 </v>
   <v>       0.28571429       0.28571429       0.00000000 </v>
   <v>       0.42857143       0.28571429       0.00000000 </v>
   <v>      -0.42857143       0.28571429       0.00000000 </v>
   <v>      -0.28571429       0.28571429       0.00000000 </v>
   <v>       0.42857143       0.42857143       0.00000000 </v>
   <v>      -0.42857143       0.42857143       0.00000000 </v>
   <v>       0.00000000      -0.00000000       0.12500000 </v>
   <v>       0.14285714      -0.00000000       0.12500000 </v>
   <v>       0.28571429       0.00000000       0.12500000 </v>
   <v>       0.42857143       0.00000000       0.12500000 </v>
   <v>      -0.42857143       0.00000000       0.12500000 </v>
   <v>      -0.28571429      -0.00000000       0.12500000 </v>
   <v>      -0.14285714      -0.00000000       0.12500000 </v>
   <v>       0.14285714       0.14285714       0.12500000 </v>
   <v>       0.28571429       0.14285714       0.12500000 </v>
   <v>       0.42857143       0.14285714       0.12500000 </v>
   <v>      -0.42857143       0.14285714       0.12500000 </v>
   <v>      -0.28571429       0.14285714       0.12500000 </v>
   <v>      -0.14285714       0.14285714       0.12500000 </v>
   <v>       0.28571429       0.28571429       0.12500000 </v>
   <v>       0.42857143       0.28571429       0.12500000 </v>
   <v>      -0.42857143       0.28571429       0.12500000 </v>
   <v>      -0.28571429       0.28571429       0.12500000 </v>
   <v>      -0.14285714       0.28571429       0.12500000 </v>
   <v>       0.42857143       0.42857143       0.12500000 </v>
   <v>      -0.42857143       0.42857143       0.12500000 </v>
   <v>      -0.28571429       0.42857143       0.12500000 </v>
   <v>      -0.14285714       0.42857143       0.12500000 </v>
   <v>      -0.42857143      -0.42857143       0.12500000 </v>
   <v>      -0.28571429      -0.42857143       0.12500000 </v>
   <v>      -0.14285714      -0.42857143       0.12500000 </v>
   <v>      -0.28571429      -0.28571429       0.12500000 </v>
   <v>      -0.14285714      -0.28571429       0.12500000 </v>
   <v>      -0.14285714      -0.14285714       0.12500000 </v>
   <v>       0.00000000      -0.00000000       0.25000000 </v>
   <v>       0.14285714      -0.00000000       0.25000000 </v>
   <v>       0.28571429      -0.00000000       0.25000000 </v>
   <v>       0.42857143       0.00000000       0.25000000 </v>
   <v>      -0.42857143      -0.00000000       0.25000000 </v>
   <v>      -0.28571429      -0.00000000       0.25000000 </v>
   <v>      -0.14285714      -0.00000000       0.25000000 </v>
   <v>       0.14285714       0.14285714       0.25000000 </v>
   <v>       0.28571429       0.14285714       0.25000000 </v>
   <v>       0.42857143       0.14285714       0.25000000 </v>
   <v>      -0.42857143       0.14285714       0.25000000 </v>
   <v>      -0.28571429       0.14285714       0.25000000 </v>
   <v>      -0.14285714       0.14285714       0.25000000 </v>
   <v>       0.28571429       0.28571429       0.25000000 </v>
   <v>       0.42857143       0.28571429       0.25000000 </v>
   <v>      -0.42857143       0.28571429       0.25000000 </v>
   <v>      -0.28571429       0.28571429       0.25000000 </v>
   <v>      -0.14285714       0.28571429       0.25000000 </v>
   <v>       0.42857143       0.42857143       0.25000000 </v>
   <v>      -0.42857143       0.42857143       0.25000000 </v>
   <v>      -0.28571429       0.42857143       0.25000000 </v>
   <v>      -0.14285714       0.42857143       0.25000000 </v>
   <v>      -0.42857143      -0.42857143       0.25000000 </v>
   <v>      -0.28571429      -0.42857143       0.25000000 </v>
   <v>      -0.14285714      -0.42857143       0.25000000 </v>
   <v>      -0.28571429      -0.28571429       0.25000000 </v>
   <v>      -0.14285714      -0.28571429       0.25000000 </v>
   <v>      -0.14285714      -0.14285714       0.25000000 </v>
   <v>       0.00000000      -0.00000000       0.37500000 </v>
   <v>       0.14285714      -0.00000000       0.37500000 </v>
   <v>       0.28571429      -0.00000000       0.37500000 </v>
   <v>       0.42857143      -0.00000000       0.37500000 </v>
   <v>      -0.42857143       0.00000000       0.37500000 </v>
   <v>      -0.28571429      -0.00000000       0.37500000 </v>
   <v>      -0.14285714      -0.00000000       0.37500000 </v>
   <v>       0.14285714       0.14285714       0.37500000 </v>
   <v>       0.28571429       0.14285714       0.37500000 </v>
   <v>       0.42857143       0.14285714       0.37500000 </v>
   <v>      -0.42857143       0.14285714       0.37500000 </v>
   <v>      -0.28571429       0.14285714       0.37500000 </v>
   <v>      -0.14285714       0.14285714       0.37500000 </v>
   <v>       0.28571429       0.28571429       0.37500000 </v>
   <v>       0.42857143       0.28571429       0.37500000 </v>
   <v>      -0.42857143       0.28571429       0.37500000 </v>
   <v>      -0.28571429       0.28571429       0.37500000 </v>
   <v>      -0.14285714       0.28571429       0.37500000 </v>
   <v>       0.42857143       0.42857143       0.37500000 </v>
   <v>      -0.42857143       0.42857143       0.37500000 </v>
   <v>      -0.28571429       0.42857143       0.37500000 </v>
   <v>      -0.14285714       0.42857143       0.37500000 </v>
   <v>      -0.42857143      -0.42857143       0.37500000 </v>
   <v>      -0.28571429      -0.42857143       0.37500000 </v>
   <v>      -0.14285714      -0.42857143       0.37500000 </v>
   <v>      -0.28571429      -0.28571429       0.37500000 </v>
   <v>      -0.14285714      -0.28571429       0.37500000 </v>
   <v>      -0.14285714      -0.14285714       0.37500000 </v>
   <v>       0.00000000      -0.00000000       0.50000000 </v>
   <v>       0.14285714       0.00000000       0.50000000 </v>
   <v>       0.28571429      -0.00000000       0.50000000 </v>
   <v>       0.42857143       0.00000000       0.50000000 </v>
   <v>       0.14285714       0.14285714       0.50000000 </v>
   <v>       0.28571429       0.14285714       0.50000000 </v>
   <v>       0.42857143       0.14285714       0.50000000 </v>
   <v>      -0.42857143       0.14285714       0.50000000 </v>
   <v>      -0.28571429       0.14285714       0.50000000 </v>
   <v>      -0.14285714       0.14285714       0.50000000 </v>
   <v>       0.28571429       0.28571429       0.50000000 </v>
   <v>       0.42857143       0.28571429       0.50000000 </v>
   <v>      -0.42857143       0.28571429       0.50000000 </v>
   <v>      -0.28571429       0.28571429       0.50000000 </v>
   <v>       0.42857143       0.42857143       0.50000000 </v>
   <v>      -0.42857143       0.42857143       0.50000000 </v>
  </varray>
  <varray name="weights" >
   <v>       0.00255102 </v>
   <v>       0.01020408 </v>
   <v>       0.01020408 </v>
   <v>       0.01020408 </v>
   <v>       0.00510204 </v>
   <v>       0.01020408 </v>
   <v>       0.01020408 </v>
   <v>       0.01020408 </v>
   <v>       0.01020408 </v>
   <v>       0.00510204 </v>
   <v>       0.00510204 </v>
   <v>       0.01020408 </v>
   <v>       0.01020408 </v>
   <v>       0.00510204 </v>
   <v>       0.00510204 </v>
   <v>       0.00510204 </v>
   <v>       0.00510204 </v>
   <v>       0.01020408 </v>
   <v>       0.01020408 </v>
   <v>       0.01020408 </v>
   <v>       0.01020408 </v>
   <v>       0.01020408 </v>
   <v>       0.01020408 </v>
   <v>       0.00510204 </v>
   <v>       0.01020408 </v>
   <v>       0.01020408 </v>
   <v>       0.01020408 </v>
   <v>       0.01020408 </v>
   <v>       0.01020408 </v>
   <v>       0.00510204 </v>
   <v>       0.01020408 </v>
   <v>       0.01020408 </v>
   <v>       0.01020408 </v>
   <v>       0.01020408 </v>
   <v>       0.00510204 </v>
   <v>       0.01020408 </v>
   <v>       0.01020408 </v>
   <v>       0.01020408 </v>
   <v>       0.00510204 </v>
   <v>       0.01020408 </v>
   <v>       0.01020408 </v>
   <v>       0.00510204 </v>
   <v>       0.01020408 </v>
   <v>       0.00510204 </v>
   <v>       0.00510204 </v>
   <v>       0.01020408 </v>
   <v>       0.01020408 </v>
   <v>       0.01020408 </v>
   <v>       0.01020408 </v>
   <v>       0.01020408 </v>
   <v>       0.01020408 </v>
   <v>       0.00510204 </v>
   <v>       0.01020408 </v>
   <v>       0.01020408 </v>
   <v>       0.01020408 </v>
   <v>       0.01020408 </v>
   <v>       0.01020408 </v>
   <v>       0.00510204 </v>
   <v>       0.01020408 </v>
   <v>       0.01020408 </v>
   <v>       0.01020408 </v>
   <v>       0.01020408 </v>
   <v>       0.00510204 </v>
   <v>       0.01020408 </v>
   <v>       0.01020408 </v>
   <v>       0.01020408 </v>
   <v>       0.00510204 </v>
   <v>       0.01020408 </v>
   <v>       0.01020408 </v>
   <v>       0.00510204 </v>
   <v>       0.01020408 </v>
   <v>       0.00510204 </v>
   <v>       0.00510204 </v>
   <v>       0.01020408 </v>
   <v>       0.01020408 </v>
   <v>       0.01020408 </v>
   <v>       0.01020408 </v>
   <v>       0.01020408 </v>
   <v>       0.01020408 </v>
   <v>       0.00510204 </v>
   <v>       0.01020408 </v>
   <v>       0.01020408 </v>
   <v>       0.01020408 </v>
   <v>       0.01020408 </v>
   <v>       0.01020408 </v>
   <v>       0.00510204 </v>
   <v>       0.01020408 </v>
   <v>       0.01020408 </v>
   <v>       0.01020408 </v>
   <v>       0.01020408 </v>
   <v>       0.00510204 </v>
   <v>       0.01020408 </v>
   <v>       0.01020408 </v>
   <v>       0.01020408 </v>
   <v>       0.00510204 </v>
   <v>       0.01020408 </v>
   <v>       0.01020408 </v>
   <v>       0.00510204 </v>
   <v>       0.01020408 </v>
   <v>       0.00510204 </v>
   <v>       0.00255102 </v>
   <v>       0.01020408 </v>
   <v>       0.01020408 </v>
   <v>       0.01020408 </v>
   <v>       0.00510204 </v>
   <v>       0.01020408 </v>
   <v>       0.01020408 </v>
   <v>       0.01020408 </v>
   <v>       0.01020408 </v>
   <v>       0.00510204 </v>
   <v>       0.00510204 </v>
   <v>       0.01020408 </v>
   <v>       0.01020408 </v>
   <v>       0.00510204 </v>
   <v>       0.00510204 </v>
   <v>       0.00510204 </v>
  </varray>
 </kpoints>
 <parameters>
  <separator name="general" >
   <i type="string" name="SYSTEM">routine with relax: pwdword</i>
   <i type="logical" name="LCOMPAT"> F  </i>
  </separator>
  <separator name="electronic" >
   <i type="string" name="PREC">acc</i>
   <i name="ENMAX">    600.00000000</i>
   <i name="ENAUG">    535.51400000</i>
   <i name="EDIFF">      0.00000000</i>
   <i type="int" name="IALGO">    58</i>
   <i type="int" name="IWAVPR">    10</i>
   <i type="int" name="NBANDS">    66</i>
   <i type="int" name="NBANDSLOW">    -1</i>
   <i type="int" name="NBANDSHIGH">    -1</i>
   <i name="NELECT">    104.00000000</i>
   <i type="int" name="TURBO">     0</i>
   <i type="int" name="IRESTART">     0</i>
   <i type="int" name="NREBOOT">     0</i>
   <i type="int" name="NMIN">     0</i>
   <i name="EREF">      0.00000000</i>
   <separator name="electronic smearing" >
    <i type="int" name="ISMEAR">     0</i>
    <i name="SIGMA">      0.02000000</i>
    <i name="KSPACING">      0.50000000</i>
    <i type="logical" name="KGAMMA"> T  </i>
    <i type="logical" name="KBLOWUP"> F  </i>
   </separator>
   <separator name="electronic projectors" >
    <i type="logical" name="LREAL"> F  </i>
    <v name="ROPT">      0.00000000      0.00000000      0.00000000</v>
    <i type="int" name="LMAXPAW">  -100</i>
    <i type="int" name="LMAXMIX">     2</i>
    <i type="logical" name="NLSPLINE"> F  </i>
   </separator>
   <separator name="electronic startup" >
    <i type="int" name="ISTART">     0</i>
    <i type="int" name="ICHARG">     2</i>
    <i type="int" name="INIWAV">     1</i>
   </separator>
   <separator name="electronic spin" >
    <i type="int" name="ISPIN">     1</i>
    <i type="logical" name="LNONCOLLINEAR"> F  </i>
    <v name="MAGMOM">      1.00000000      1.00000000      1.00000000      1.00000000      1.00000000      1.00000000      1.00000000      1.00000000      1.00000000      1.00000000      1.00000000      1.00000000</v>
    <i name="NUPDOWN">     -1.00000000</i>
    <i type="logical" name="LSORBIT"> F  </i>
    <v name="SAXIS">      0.00000000      0.00000000      1.00000000</v>
    <i type="logical" name="LSPIRAL"> F  </i>
    <v name="QSPIRAL">      0.00000000      0.00000000      0.00000000</v>
    <i type="logical" name="LZEROZ"> F  </i>
   </separator>
   <separator name="electronic exchange-correlation" >
    <i type="logical" name="LASPH"> T  </i>
    <i type="logical" name="LMETAGGA"> F  </i>
   </separator>
   <separator name="electronic convergence" >
    <i type="int" name="NELM">   100</i>
    <i type="int" name="NELMDL">    -5</i>
    <i type="int" name="NELMIN">     6</i>
    <i name="ENINI">    600.00000000</i>
    <separator name="electronic convergence detail" >
     <i type="logical" name="LDIAG"> T  </i>
     <i type="logical" name="LSUBROT"> F  </i>
     <i name="WEIMIN">      0.00000000</i>
     <i name="EBREAK">      0.00000000</i>
     <i name="DEPER">      0.30000000</i>
     <i type="int" name="NRMM">     4</i>
     <i name="TIME">      0.40000000</i>
    </separator>
   </separator>
   <separator name="electronic mixer" >
    <i name="AMIX">      0.40000000</i>
    <i name="BMIX">      1.00000000</i>
    <i name="AMIN">      0.10000000</i>
    <i name="AMIX_MAG">      1.60000000</i>
    <i name="BMIX_MAG">      1.00000000</i>
    <separator name="electronic mixer details" >
     <i type="int" name="IMIX">     4</i>
     <i type="logical" name="MIXFIRST"> F  </i>
     <i type="int" name="MAXMIX">   -45</i>
     <i name="WC">    100.00000000</i>
     <i type="int" name="INIMIX">     1</i>
     <i type="int" name="MIXPRE">     1</i>
     <i type="int" name="MREMOVE">     5</i>
    </separator>
   </separator>
   <separator name="electronic dipolcorrection" >
    <i type="logical" name="LDIPOL"> F  </i>
    <i type="logical" name="LMONO"> F  </i>
    <i type="int" name="IDIPOL">     0</i>
    <i name="EPSILON">      1.00000000</i>
    <v name="DIPOL">   -100.00000000   -100.00000000   -100.00000000</v>
    <i name="EFIELD">      0.00000000</i>
   </separator>
  </separator>
  <separator name="grids" >
   <i type="int" name="NGX">    54</i>
   <i type="int" name="NGY">    54</i>
   <i type="int" name="NGZ">    54</i>
   <i type="int" name="NGXF">   108</i>
   <i type="int" name="NGYF">   108</i>
   <i type="int" name="NGZF">   108</i>
   <i type="logical" name="ADDGRID"> T  </i>
  </separator>
  <separator name="ionic" >
   <i type="int" name="NSW">     0</i>
   <i type="int" name="IBRION">    -1</i>
   <i type="int" name="MDALGO">     0</i>
   <i type="int" name="ISIF">    -1</i>
   <i name="PSTRESS">      0.00000000</i>
   <i name="EDIFFG">      0.00000001</i>
   <i type="int" name="NFREE">     0</i>
   <i name="POTIM">      0.50000000</i>
   <i name="SMASS">     -3.00000000</i>
   <i name="SCALEE">      1.00000000</i>
  </separator>
  <separator name="ionic md" >
   <i name="TEBEG">      0.00010000</i>
   <i name="TEEND">      0.00010000</i>
   <i type="int" name="NBLOCK">     1</i>
   <i type="int" name="KBLOCK">     1</i>
   <i type="int" name="NPACO">   256</i>
   <i name="APACO">     16.00000000</i>
  </separator>
  <separator name="symmetry" >
   <i type="int" name="ISYM">     2</i>
   <i name="SYMPREC">      0.00010000</i>
  </separator>
  <separator name="dos" >
   <i type="int" name="LORBIT">     0</i>
   <v name="RWIGS">     -1.00000000     -1.00000000     -1.00000000</v>
   <i type="int" name="NEDOS">   301</i>
   <i name="EMIN">     10.00000000</i>
   <i name="EMAX">    -10.00000000</i>
   <i name="EFERMI">      0.00000000</i>
  </separator>
  <separator name="writing" >
   <i type="int" name="NWRITE">     2</i>
   <i type="logical" name="LWAVE"> T  </i>
   <i type="logical" name="LDOWNSAMPLE"> F  </i>
   <i type="logical" name="LCHARG"> T  </i>
   <i type="logical" name="LPARD"> F  </i>
   <i type="logical" name="LVTOT"> F  </i>
   <i type="logical" name="LVHAR"> F  </i>
   <i type="logical" name="LELF"> F  </i>
   <i type="logical" name="LOPTICS"> F  </i>
   <v name="STM">      0.00000000      0.00000000      0.00000000      0.00000000      0.00000000      0.00000000      0.00000000</v>
  </separator>
  <separator name="performance" >
   <i type="int" name="NPAR">     6</i>
   <i type="int" name="NSIM">     4</i>
   <i type="int" name="NBLK">    -1</i>
   <i type="logical" name="LPLANE"> T  </i>
   <i type="logical" name="LSCALAPACK"> T  </i>
   <i type="logical" name="LSCAAWARE"> F  </i>
   <i type="logical" name="LSCALU"> F  </i>
   <i type="logical" name="LASYNC"> F  </i>
   <i type="logical" name="LORBITALREAL"> F  </i>
  </separator>
  <separator name="miscellaneous" >
   <i type="int" name="IDIOT">     3</i>
   <i type="int" name="PHON_NSTRUCT">    -1</i>
   <i type="logical" name="LMUSIC"> F  </i>
   <v name="POMASS">     10.81100000     95.94000000     28.08500000</v>
   <v name="DARWINR">      0.00000000      0.00000000      0.00000000</v>
   <v name="DARWINV">      1.00000000      1.00000000      1.00000000</v>
   <i type="logical" name="LCORR"> T  </i>
  </separator>
  <i type="logical" name="GGA_COMPAT"> T  </i>
  <i type="logical" name="LBERRY"> F  </i>
  <i type="int" name="ICORELEVEL">     0</i>
  <i type="logical" name="LDAU"> F  </i>
  <i type="int" name="I_CONSTRAINED_M">     0</i>
  <separator name="electronic exchange-correlation" >
   <i type="string" name="GGA">--</i>
   <i type="int" name="VOSKOWN">     0</i>
   <i type="logical" name="LHFCALC"> F  </i>
   <i type="string" name="PRECFOCK"></i>
   <i type="logical" name="LSYMGRAD"> F  </i>
   <i type="logical" name="LHFONE"> F  </i>
   <i type="logical" name="LRHFCALC"> F  </i>
   <i type="logical" name="LTHOMAS"> F  </i>
   <i type="logical" name="LMODELHF"> F  </i>
   <i type="logical" name="LFOCKACE"> F  </i>
   <i name="ENCUT4O">     -1.00000000</i>
   <i type="int" name="EXXOEP">     0</i>
   <i type="int" name="FOURORBIT">     0</i>
   <i name="AEXX">      0.00000000</i>
   <i name="HFALPHA">      0.00000000</i>
   <i name="MCALPHA">      0.00000000</i>
   <i name="ALDAX">      1.00000000</i>
   <i name="AGGAX">      1.00000000</i>
   <i name="ALDAC">      1.00000000</i>
   <i name="AGGAC">      1.00000000</i>
   <i type="int" name="NKREDX">     1</i>
   <i type="int" name="NKREDY">     1</i>
   <i type="int" name="NKREDZ">     1</i>
   <i type="logical" name="SHIFTRED"> F  </i>
   <i type="logical" name="ODDONLY"> F  </i>
   <i type="logical" name="EVENONLY"> F  </i>
   <i type="int" name="LMAXFOCK">     0</i>
   <i type="int" name="NMAXFOCKAE">     0</i>
   <i type="logical" name="LFOCKAEDFT"> F  </i>
   <i name="HFSCREEN">      0.00000000</i>
   <i name="HFSCREENC">      0.00000000</i>
   <i type="int" name="NBANDSGWLOW">     0</i>
  </separator>
  <separator name="vdW DFT" >
   <i type="logical" name="LUSE_VDW"> F  </i>
   <i name="Zab_VDW">     -0.84910000</i>
   <i name="PARAM1">      0.12340000</i>
   <i name="PARAM2">      1.00000000</i>
   <i name="PARAM3">      0.00000000</i>
  </separator>
  <separator name="model GW" >
   <i type="int" name="MODEL_GW">     0</i>
   <i name="MODEL_EPS0">      9.44466717</i>
   <i name="MODEL_ALPHA">      1.00000000</i>
  </separator>
  <separator name="linear response parameters" >
   <i type="logical" name="LEPSILON"> F  </i>
   <i type="logical" name="LRPA"> F  </i>
   <i type="logical" name="LNABLA"> F  </i>
   <i type="logical" name="LVEL"> F  </i>
   <i type="int" name="KINTER">     0</i>
   <i name="CSHIFT">      0.10000000</i>
   <i name="OMEGAMAX">     -1.00000000</i>
   <i name="DEG_THRESHOLD">      0.00200000</i>
   <i name="RTIME">     -0.10000000</i>
   <i name="WPLASMAI">      0.00000000</i>
   <v name="DFIELD">      0.00000000      0.00000000      0.00000000</v>
   <v name="WPLASMA">      0.00000000      0.00000000      0.00000000      0.00000000      0.00000000      0.00000000      0.00000000      0.00000000      0.00000000</v>
  </separator>
  <separator name="orbital magnetization" >
   <i type="logical" name="NUCIND"> F  </i>
   <v name="MAGPOS">      0.00000000      0.00000000      0.00000000</v>
   <i type="logical" name="LNICSALL"> T  </i>
   <i type="logical" name="ORBITALMAG"> F  </i>
   <i type="logical" name="LMAGBLOCH"> F  </i>
   <i type="logical" name="LCHIMAG"> F  </i>
   <i type="logical" name="LGAUGE"> T  </i>
   <i type="int" name="MAGATOM">     0</i>
   <v name="MAGDIPOL">      0.00000000      0.00000000      0.00000000</v>
   <v name="AVECCONST">      0.00000000      0.00000000      0.00000000</v>
  </separator>
  <separator name="response functions" >
   <i type="logical" name="LFINITE_TEMPERATURE"> F  </i>
   <i type="logical" name="LADDER"> F  </i>
   <i type="logical" name="LRPAFORCE"> F  </i>
   <i type="logical" name="LFXC"> F  </i>
   <i type="logical" name="LHARTREE"> T  </i>
   <i type="int" name="IBSE">     0</i>
   <v type="int" name="KPOINT">    -1     0     0     0</v>
   <i type="logical" name="LTCTC"> F  </i>
   <i type="logical" name="LTCTE"> F  </i>
   <i type="logical" name="LTETE"> F  </i>
   <i type="logical" name="LTRIPLET"> F  </i>
   <i type="logical" name="LFXCEPS"> F  </i>
   <i type="logical" name="LFXHEG"> F  </i>
   <i type="int" name="NATURALO">     2</i>
   <i type="logical" name="LHOLEGF"> F  </i>
   <i type="logical" name="L2ORDER"> F  </i>
   <i type="logical" name="LDMP1"> F  </i>
   <i type="logical" name="LMP2LT"> F  </i>
   <i type="logical" name="LSMP2LT"> F  </i>
   <i type="logical" name="LGWLF"> F  </i>
   <i name="ENCUTGW">     -2.00000000</i>
   <i name="ENCUTGWSOFT">     -2.00000000</i>
   <i name="ENCUTLF">     -1.00000000</i>
   <i type="logical" name="LESF_SPLINES"> F  </i>
   <i type="int" name="LMAXMP2">    -1</i>
   <i name="SCISSOR">      0.00000000</i>
   <i type="int" name="NOMEGA">     0</i>
   <i type="int" name="NOMEGAR">     0</i>
   <i type="int" name="NBANDSGW">    -1</i>
   <i type="int" name="NBANDSO">    -1</i>
   <i type="int" name="NBANDSV">    -1</i>
   <i type="int" name="NELM">   100</i>
   <i type="int" name="NELMHF">     1</i>
   <i type="int" name="DIM">     3</i>
   <i type="int" name="IESPILON">     4</i>
   <i type="int" name="ANTIRES">     0</i>
   <i name="OMEGAMAX">    -30.00000000</i>
   <i name="OMEGAMIN">    -30.00000000</i>
   <i name="OMEGATL">   -200.00000000</i>
   <i type="int" name="OMEGAGRID">     0</i>
   <i name="CSHIFT">     -0.10000000</i>
   <i type="logical" name="LSELFENERGY"> F  </i>
   <i type="logical" name="LSPECTRAL"> F  </i>
   <i type="logical" name="LSPECTRALGW"> F  </i>
   <i type="logical" name="LSINGLES"> F  </i>
   <i type="logical" name="LFERMIGW"> F  </i>
   <i type="logical" name="ODDONLYGW"> F  </i>
   <i type="logical" name="EVENONLYGW"> F  </i>
   <i type="int" name="NKREDLFX">     1</i>
   <i type="int" name="NKREDLFY">     1</i>
   <i type="int" name="NKREDLFZ">     1</i>
   <i type="int" name="MAXMEM">  2800</i>
   <i type="int" name="TELESCOPE">     0</i>
   <i type="int" name="NTAUPAR">    -1</i>
   <i type="int" name="NOMEGAPAR">    -1</i>
   <i name="DAMP_NEWTON">      0.80000001</i>
   <i name="LAMBDA">      1.00000000</i>
  </separator>
  <separator name="External order field" >
   <i name="OFIELD_KAPPA">      0.00000000</i>
   <v name="OFIELD_K">      0.00000000      0.00000000      0.00000000</v>
   <i name="OFIELD_Q6_NEAR">      0.00000000</i>
   <i name="OFIELD_Q6_FAR">      0.00000000</i>
   <i name="OFIELD_A">      0.00000000</i>
  </separator>
 </parameters>
 <atominfo>
  <atoms>      12 </atoms>
  <types>       3 </types>
  <array name="atoms" >
   <dimension dim="1">ion</dimension>
   <field type="string">element</field>
   <field type="int">atomtype</field>
   <set>
    <rc><c>B </c><c>   1</c></rc>
    <rc><c>B </c><c>   1</c></rc>
    <rc><c>B </c><c>   1</c></rc>
    <rc><c>B </c><c>   1</c></rc>
    <rc><c>Mo</c><c>   2</c></rc>
    <rc><c>Mo</c><c>   2</c></rc>
    <rc><c>Mo</c><c>   2</c></rc>
    <rc><c>Mo</c><c>   2</c></rc>
    <rc><c>Mo</c><c>   2</c></rc>
    <rc><c>Mo</c><c>   2</c></rc>
    <rc><c>Si</c><c>   3</c></rc>
    <rc><c>Si</c><c>   3</c></rc>
   </set>
  </array>
  <array name="atomtypes" >
   <dimension dim="1">type</dimension>
   <field type="int">atomspertype</field>
   <field type="string">element</field>
   <field>mass</field>
   <field>valence</field>
   <field type="string">pseudopotential</field>
   <set>
    <rc><c>   4</c><c>B </c><c>     10.81100000</c><c>      3.00000000</c><c>  PAW_PBE B 06Sep2000                   </c></rc>
    <rc><c>   6</c><c>Mo</c><c>     95.94000000</c><c>     14.00000000</c><c>  PAW_PBE Mo_sv 02Feb2006               </c></rc>
    <rc><c>   2</c><c>Si</c><c>     28.08500000</c><c>      4.00000000</c><c>  PAW_PBE Si 05Jan2001                  </c></rc>
   </set>
  </array>
 </atominfo>
 <structure name="initialpos" >
  <crystal>
   <varray name="basis" >
    <v>       5.62868910       0.00000000      -3.01681190 </v>
    <v>      -2.01685053       5.25494576      -3.01681190 </v>
    <v>       0.00000000       0.00000000       6.38618000 </v>
   </varray>
   <i name="volume">    188.89334339 </i>
   <varray name="rec_basis" >
    <v>       0.17766126       0.06818647       0.00000000 </v>
    <v>       0.00000000       0.19029692       0.00000000 </v>
    <v>       0.08392664       0.12210676       0.15658813 </v>
   </varray>
  </crystal>
  <varray name="positions" >
   <v>       0.74563000       0.24563000       0.99126000 </v>
   <v>       0.25437000       0.75437000       0.00874000 </v>
   <v>       0.24563000       0.25437000       0.50000000 </v>
   <v>       0.75437000       0.74563000       0.50000000 </v>
   <v>       0.00000000       0.50000000       0.00000000 </v>
   <v>       0.50000000       0.50000000       0.00000000 </v>
   <v>       0.50000000       0.50000000       0.50000000 </v>
   <v>       0.50000000       0.00000000       0.00000000 </v>
   <v>       0.00000000       0.00000000       0.50000000 </v>
   <v>       0.00000000       0.00000000       0.00000000 </v>
   <v>       0.25000000       0.25000000       0.00000000 </v>
   <v>       0.75000000       0.75000000       0.00000000 </v>
  </varray>
 </structure>
 <calculation>
  <scstep>
   <time name="total">   32.93   33.28</time>
   <energy>
    <i name="alphaZ">    494.61353919 </i>
    <i name="ewald">  -8460.51214073 </i>
    <i name="hartreedc">  -3037.55737301 </i>
    <i name="XCdc">    480.73166834 </i>
    <i name="pawpsdc">   9250.47132855 </i>
    <i name="pawaedc">  -9210.50234729 </i>
    <i name="eentropy">     -0.00105309 </i>
    <i name="bandstr">   -139.74549094 </i>
    <i name="atom">  11664.50664672 </i>
    <i name="e_fr_energy">   1042.00477773 </i>
    <i name="e_wo_entrp">   1042.00583082 </i>
    <i name="e_0_energy">   1042.00530428 </i>
   </energy>
  </scstep>
  <scstep>
   <time name="total">   37.65   38.03</time>
   <energy>
    <i name="e_fr_energy">   -187.70377742 </i>
    <i name="e_wo_entrp">   -187.70274725 </i>
    <i name="e_0_energy">   -187.70326234 </i>
   </energy>
  </scstep>
  <scstep>
   <time name="total">   43.38   43.86</time>
   <energy>
    <i name="e_fr_energy">   -236.48316810 </i>
    <i name="e_wo_entrp">   -236.48069121 </i>
    <i name="e_0_energy">   -236.48192965 </i>
   </energy>
  </scstep>
  <scstep>
   <time name="total">   41.08   41.46</time>
   <energy>
    <i name="e_fr_energy">   -237.52476619 </i>
    <i name="e_wo_entrp">   -237.52240277 </i>
    <i name="e_0_energy">   -237.52358448 </i>
   </energy>
  </scstep>
  <scstep>
   <time name="total">   43.56   43.97</time>
   <energy>
    <i name="e_fr_energy">   -237.54875990 </i>
    <i name="e_wo_entrp">   -237.54640604 </i>
    <i name="e_0_energy">   -237.54758297 </i>
   </energy>
  </scstep>
  <scstep>
   <time name="total">   44.56   45.04</time>
   <energy>
    <i name="e_fr_energy">   -170.07802246 </i>
    <i name="e_wo_entrp">   -170.07567197 </i>
    <i name="e_0_energy">   -170.07684721 </i>
   </energy>
  </scstep>
  <scstep>
   <time name="total">   50.61   51.02</time>
   <energy>
    <i name="e_fr_energy">   -187.61094804 </i>
    <i name="e_wo_entrp">   -187.60896352 </i>
    <i name="e_0_energy">   -187.60995578 </i>
   </energy>
  </scstep>
  <scstep>
   <time name="total">   47.93   48.31</time>
   <energy>
    <i name="e_fr_energy">   -190.81707703 </i>
    <i name="e_wo_entrp">   -190.81557955 </i>
    <i name="e_0_energy">   -190.81632829 </i>
   </energy>
  </scstep>
  <scstep>
   <time name="total">   45.29   45.68</time>
   <energy>
    <i name="e_fr_energy">   -191.76585746 </i>
    <i name="e_wo_entrp">   -191.76448953 </i>
    <i name="e_0_energy">   -191.76517349 </i>
   </energy>
  </scstep>
  <scstep>
   <time name="total">   46.50   46.91</time>
   <energy>
    <i name="e_fr_energy">   -192.06732430 </i>
    <i name="e_wo_entrp">   -192.06595889 </i>
    <i name="e_0_energy">   -192.06664160 </i>
   </energy>
  </scstep>
  <scstep>
   <time name="total">   46.85   47.25</time>
   <energy>
    <i name="e_fr_energy">   -192.21609287 </i>
    <i name="e_wo_entrp">   -192.21471226 </i>
    <i name="e_0_energy">   -192.21540257 </i>
   </energy>
  </scstep>
  <scstep>
   <time name="total">   48.75   49.15</time>
   <energy>
    <i name="e_fr_energy">   -192.27934635 </i>
    <i name="e_wo_entrp">   -192.27776665 </i>
    <i name="e_0_energy">   -192.27855650 </i>
   </energy>
  </scstep>
  <scstep>
   <time name="total">   50.17   50.59</time>
   <energy>
    <i name="e_fr_energy">   -192.30800564 </i>
    <i name="e_wo_entrp">   -192.30610029 </i>
    <i name="e_0_energy">   -192.30705296 </i>
   </energy>
  </scstep>
  <scstep>
   <time name="total">   51.82   52.25</time>
   <energy>
    <i name="e_fr_energy">   -192.32231666 </i>
    <i name="e_wo_entrp">   -192.32042589 </i>
    <i name="e_0_energy">   -192.32137127 </i>
   </energy>
  </scstep>
  <scstep>
   <time name="total">   48.49   48.90</time>
   <energy>
    <i name="e_fr_energy">   -192.32894482 </i>
    <i name="e_wo_entrp">   -192.32714619 </i>
    <i name="e_0_energy">   -192.32804551 </i>
   </energy>
  </scstep>
  <scstep>
   <time name="total">   47.11   47.51</time>
   <energy>
    <i name="e_fr_energy">   -192.33166789 </i>
    <i name="e_wo_entrp">   -192.32992248 </i>
    <i name="e_0_energy">   -192.33079518 </i>
   </energy>
  </scstep>
  <scstep>
   <time name="total">   47.90   48.31</time>
   <energy>
    <i name="e_fr_energy">   -192.33277566 </i>
    <i name="e_wo_entrp">   -192.33105626 </i>
    <i name="e_0_energy">   -192.33191596 </i>
   </energy>
  </scstep>
  <scstep>
   <time name="total">   51.59   52.01</time>
   <energy>
    <i name="e_fr_energy">   -192.33318853 </i>
    <i name="e_wo_entrp">   -192.33148014 </i>
    <i name="e_0_energy">   -192.33233434 </i>
   </energy>
  </scstep>
  <scstep>
   <time name="total">   48.23   48.65</time>
   <energy>
    <i name="e_fr_energy">   -192.33336411 </i>
    <i name="e_wo_entrp">   -192.33166135 </i>
    <i name="e_0_energy">   -192.33251273 </i>
   </energy>
  </scstep>
  <scstep>
   <time name="total">   45.73   46.12</time>
   <energy>
    <i name="e_fr_energy">   -192.33344326 </i>
    <i name="e_wo_entrp">   -192.33174161 </i>
    <i name="e_0_energy">   -192.33259243 </i>
   </energy>
  </scstep>
  <scstep>
   <time name="total">   49.98   50.38</time>
   <energy>
    <i name="e_fr_energy">   -192.33347675 </i>
    <i name="e_wo_entrp">   -192.33177411 </i>
    <i name="e_0_energy">   -192.33262543 </i>
   </energy>
  </scstep>
  <scstep>
   <time name="total">   47.44   47.86</time>
   <energy>
    <i name="e_fr_energy">   -192.33349179 </i>
    <i name="e_wo_entrp">   -192.33178708 </i>
    <i name="e_0_energy">   -192.33263943 </i>
   </energy>
  </scstep>
  <scstep>
   <time name="total">   50.47   50.87</time>
   <energy>
    <i name="e_fr_energy">   -192.33349798 </i>
    <i name="e_wo_entrp">   -192.33179196 </i>
    <i name="e_0_energy">   -192.33264497 </i>
   </energy>
  </scstep>
  <scstep>
   <time name="total">   48.11   48.51</time>
   <energy>
    <i name="e_fr_energy">   -192.33350011 </i>
    <i name="e_wo_entrp">   -192.33179297 </i>
    <i name="e_0_energy">   -192.33264654 </i>
   </energy>
  </scstep>
  <scstep>
   <time name="total">   48.77   49.19</time>
   <energy>
    <i name="e_fr_energy">   -192.33350112 </i>
    <i name="e_wo_entrp">   -192.33179283 </i>
    <i name="e_0_energy">   -192.33264698 </i>
   </energy>
  </scstep>
  <scstep>
   <time name="total">   47.67   48.07</time>
   <energy>
    <i name="e_fr_energy">   -192.33350171 </i>
    <i name="e_wo_entrp">   -192.33179300 </i>
    <i name="e_0_energy">   -192.33264736 </i>
   </energy>
  </scstep>
  <scstep>
   <time name="total">   46.71   47.11</time>
   <energy>
    <i name="e_fr_energy">   -192.33350186 </i>
    <i name="e_wo_entrp">   -192.33179301 </i>
    <i name="e_0_energy">   -192.33264743 </i>
   </energy>
  </scstep>
  <scstep>
   <time name="total">   76.68   77.33</time>
   <energy>
    <i name="e_fr_energy">   -192.33350193 </i>
    <i name="e_wo_entrp">   -192.33179288 </i>
    <i name="e_0_energy">   -192.33264741 </i>
   </energy>
  </scstep>
  <scstep>
   <time name="total">   52.46   52.90</time>
   <energy>
    <i name="e_fr_energy">   -192.33350153 </i>
    <i name="e_wo_entrp">   -192.33179251 </i>
    <i name="e_0_energy">   -192.33264702 </i>
   </energy>
  </scstep>
  <scstep>
   <time name="total">   48.20   48.63</time>
   <energy>
    <i name="e_fr_energy">   -192.33350180 </i>
    <i name="e_wo_entrp">   -192.33179288 </i>
    <i name="e_0_energy">   -192.33264734 </i>
   </energy>
  </scstep>
  <scstep>
   <time name="total">   81.09   81.76</time>
   <energy>
    <i name="e_fr_energy">   -192.33350195 </i>
    <i name="e_wo_entrp">   -192.33179336 </i>
    <i name="e_0_energy">   -192.33264766 </i>
   </energy>
  </scstep>
  <scstep>
   <time name="total">   49.82   50.24</time>
   <energy>
    <i name="e_fr_energy">   -192.33350083 </i>
    <i name="e_wo_entrp">   -192.33179245 </i>
    <i name="e_0_energy">   -192.33264664 </i>
   </energy>
  </scstep>
  <scstep>
   <time name="total">   47.96   48.38</time>
   <energy>
    <i name="e_fr_energy">   -192.33350161 </i>
    <i name="e_wo_entrp">   -192.33179315 </i>
    <i name="e_0_energy">   -192.33264738 </i>
   </energy>
  </scstep>
  <scstep>
   <time name="total">   46.88   47.30</time>
   <energy>
    <i name="e_fr_energy">   -192.33350180 </i>
    <i name="e_wo_entrp">   -192.33179315 </i>
    <i name="e_0_energy">   -192.33264747 </i>
   </energy>
  </scstep>
  <scstep>
   <time name="total">   45.11   45.50</time>
   <energy>
    <i name="e_fr_energy">   -192.33350202 </i>
    <i name="e_wo_entrp">   -192.33179338 </i>
    <i name="e_0_energy">   -192.33264770 </i>
   </energy>
  </scstep>
  <scstep>
   <time name="total">   43.70   44.07</time>
   <energy>
    <i name="e_fr_energy">   -192.33350202 </i>
    <i name="e_wo_entrp">   -192.33179338 </i>
    <i name="e_0_energy">   -192.33264770 </i>
   </energy>
  </scstep>
  <scstep>
   <time name="total">   45.86   46.26</time>
   <energy>
    <i name="e_fr_energy">   -192.33350200 </i>
    <i name="e_wo_entrp">   -192.33179335 </i>
    <i name="e_0_energy">   -192.33264768 </i>
   </energy>
  </scstep>
  <scstep>
   <time name="total">   48.23   48.66</time>
   <energy>
    <i name="e_fr_energy">   -192.33350202 </i>
    <i name="e_wo_entrp">   -192.33179334 </i>
    <i name="e_0_energy">   -192.33264768 </i>
   </energy>
  </scstep>
  <scstep>
   <time name="total">   48.00   48.41</time>
   <energy>
    <i name="e_fr_energy">   -192.33350202 </i>
    <i name="e_wo_entrp">   -192.33179333 </i>
    <i name="e_0_energy">   -192.33264768 </i>
   </energy>
  </scstep>
  <scstep>
   <time name="total">   49.47   49.89</time>
   <energy>
    <i name="e_fr_energy">   -192.33350202 </i>
    <i name="e_wo_entrp">   -192.33179333 </i>
    <i name="e_0_energy">   -192.33264767 </i>
   </energy>
  </scstep>
  <scstep>
   <time name="total">   52.80   53.27</time>
   <energy>
    <i name="alphaZ">    494.61353919 </i>
    <i name="ewald">  -8460.51214073 </i>
    <i name="hartreedc">  -2904.22945587 </i>
    <i name="XCdc">    489.75336062 </i>
    <i name="pawpsdc">  13405.83048344 </i>
    <i name="pawaedc"> -13384.73818169 </i>
    <i name="eentropy">     -0.00170869 </i>
    <i name="bandstr">  -1497.55604500 </i>
    <i name="atom">  11664.50664672 </i>
    <i name="e_fr_energy">   -192.33350202 </i>
    <i name="e_wo_entrp">   -192.33179333 </i>
    <i name="e_0_energy">   -192.33264767 </i>
   </energy>
  </scstep>
  <structure>
   <crystal>
    <varray name="basis" >
     <v>       5.62868910       0.00000000      -3.01681190 </v>
     <v>      -2.01685053       5.25494576      -3.01681190 </v>
     <v>       0.00000000       0.00000000       6.38618000 </v>
    </varray>
    <i name="volume">    188.89334339 </i>
    <varray name="rec_basis" >
     <v>       0.17766126       0.06818647       0.00000000 </v>
     <v>       0.00000000       0.19029692       0.00000000 </v>
     <v>       0.08392664       0.12210676       0.15658813 </v>
    </varray>
   </crystal>
   <varray name="positions" >
    <v>       0.74563000       0.24563000       0.99126000 </v>
    <v>       0.25437000       0.75437000       0.00874000 </v>
    <v>       0.24563000       0.25437000       0.50000000 </v>
    <v>       0.75437000       0.74563000       0.50000000 </v>
    <v>       0.00000000       0.50000000       0.00000000 </v>
    <v>       0.50000000       0.50000000       0.00000000 </v>
    <v>       0.50000000       0.50000000       0.50000000 </v>
    <v>       0.50000000       0.00000000       0.00000000 </v>
    <v>       0.00000000       0.00000000       0.50000000 </v>
    <v>       0.00000000       0.00000000       0.00000000 </v>
    <v>       0.25000000       0.25000000       0.00000000 </v>
    <v>       0.75000000       0.75000000       0.00000000 </v>
   </varray>
  </structure>
  <varray name="forces" >
   <v>       0.00000000       0.00000000       0.00000000 </v>
   <v>       0.00000000       0.00000000       0.00000000 </v>
   <v>       0.00000000       0.00000000       0.00000000 </v>
   <v>       0.00000000       0.00000000       0.00000000 </v>
   <v>       0.00000000       0.00000000       0.00000000 </v>
   <v>       0.00000000       0.00000000       0.00000000 </v>
   <v>       0.00000000       0.00000000       0.00000000 </v>
   <v>       0.00000000       0.00000000       0.00000000 </v>
   <v>       0.00000000       0.00000000       0.00000000 </v>
   <v>       0.00000000       0.00000000       0.00000000 </v>
   <v>       0.00000000       0.00000000       0.00000000 </v>
   <v>       0.00000000       0.00000000       0.00000000 </v>
  </varray>
  <varray name="stress" >
   <v>       0.00000000       0.00000000       0.00000000 </v>
   <v>       0.00000000       0.00000000       0.00000000 </v>
   <v>       0.00000000       0.00000000       0.00000000 </v>
  </varray>
  <energy>
   <i name="e_fr_energy">   -192.33350202 </i>
   <i name="e_wo_entrp">   -192.33179333 </i>
   <i name="e_0_energy">   -192.33264767 </i>
  </energy>
  <time name="totalsc"> 2000.96 2018.38</time>
  <eigenvalues>
   <array>
    <dimension dim="1">band</dimension>
    <dimension dim="2">kpoint</dimension>
    <dimension dim="3">spin</dimension>
    <field>eigene</field>
    <field>occ</field>
    <set>
     <set comment="spin 1">
      <set comment="kpoint 1">
       <r>  -55.6554    1.0000 </r>
       <r>  -55.6523    1.0000 </r>
       <r>  -55.1532    1.0000 </r>
       <r>  -55.1406    1.0000 </r>
       <r>  -55.1404    1.0000 </r>
       <r>  -55.1267    1.0000 </r>
       <r>  -29.4303    1.0000 </r>
       <r>  -29.3421    1.0000 </r>
       <r>  -29.0767    1.0000 </r>
       <r>  -29.0765    1.0000 </r>
       <r>  -29.0732    1.0000 </r>
       <r>  -29.0730    1.0000 </r>
       <r>  -28.7707    1.0000 </r>
       <r>  -28.7012    1.0000 </r>
       <r>  -28.7008    1.0000 </r>
       <r>  -28.6203    1.0000 </r>
       <r>  -28.6125    1.0000 </r>
       <r>  -28.6090    1.0000 </r>
       <r>  -28.5770    1.0000 </r>
       <r>  -28.5767    1.0000 </r>
       <r>  -28.4729    1.0000 </r>
       <r>  -28.3553    1.0000 </r>
       <r>  -28.3552    1.0000 </r>
       <r>  -28.2810    1.0000 </r>
       <r>   -3.7358    1.0000 </r>
       <r>   -1.0506    1.0000 </r>
       <r>   -0.1366    1.0000 </r>
       <r>    0.5132    1.0000 </r>
       <r>    0.8857    1.0000 </r>
       <r>    1.1356    1.0000 </r>
       <r>    1.1357    1.0000 </r>
       <r>    1.8628    1.0000 </r>
       <r>    1.8631    1.0000 </r>
       <r>    3.1372    1.0000 </r>
       <r>    3.3603    1.0000 </r>
       <r>    3.7278    1.0000 </r>
       <r>    3.7541    1.0000 </r>
       <r>    3.7543    1.0000 </r>
       <r>    3.8442    1.0000 </r>
       <r>    3.8443    1.0000 </r>
       <r>    4.4103    1.0000 </r>
       <r>    5.1347    1.0000 </r>
       <r>    5.1347    1.0000 </r>
       <r>    5.4478    1.0000 </r>
       <r>    5.7075    1.0000 </r>
       <r>    6.7220    1.0000 </r>
       <r>    6.8823    1.0000 </r>
       <r>    6.9996    1.0000 </r>
       <r>    6.9997    1.0000 </r>
       <r>    7.4862    1.0000 </r>
       <r>    7.6714    0.0000 </r>
       <r>    7.9600    0.0000 </r>
       <r>    7.9600    0.0000 </r>
       <r>    8.5248    0.0000 </r>
       <r>    8.7655    0.0000 </r>
       <r>    9.0873    0.0000 </r>
       <r>    9.1159    0.0000 </r>
       <r>    9.1190    0.0000 </r>
       <r>    9.1335    0.0000 </r>
       <r>    9.2567    0.0000 </r>
       <r>    9.3057    0.0000 </r>
       <r>    9.3058    0.0000 </r>
       <r>    9.8546    0.0000 </r>
       <r>   10.1695    0.0000 </r>
       <r>   10.1695    0.0000 </r>
       <r>   10.6996    0.0000 </r>
      </set>
      <set comment="kpoint 2">
       <r>  -55.6551    1.0000 </r>
       <r>  -55.6524    1.0000 </r>
       <r>  -55.1527    1.0000 </r>
       <r>  -55.1413    1.0000 </r>
       <r>  -55.1398    1.0000 </r>
       <r>  -55.1274    1.0000 </r>
       <r>  -29.4203    1.0000 </r>
       <r>  -29.3402    1.0000 </r>
       <r>  -29.0726    1.0000 </r>
       <r>  -29.0710    1.0000 </r>
       <r>  -29.0687    1.0000 </r>
       <r>  -29.0685    1.0000 </r>
       <r>  -28.7738    1.0000 </r>
       <r>  -28.7103    1.0000 </r>
       <r>  -28.6994    1.0000 </r>
       <r>  -28.6264    1.0000 </r>
       <r>  -28.6133    1.0000 </r>
       <r>  -28.6117    1.0000 </r>
       <r>  -28.5823    1.0000 </r>
       <r>  -28.5807    1.0000 </r>
       <r>  -28.4681    1.0000 </r>
       <r>  -28.3622    1.0000 </r>
       <r>  -28.3524    1.0000 </r>
       <r>  -28.2856    1.0000 </r>
       <r>   -3.6103    1.0000 </r>
       <r>   -0.9641    1.0000 </r>
       <r>   -0.1508    1.0000 </r>
       <r>   -0.0842    1.0000 </r>
       <r>    1.0643    1.0000 </r>
       <r>    1.1253    1.0000 </r>
       <r>    1.2958    1.0000 </r>
       <r>    1.8392    1.0000 </r>
       <r>    2.0043    1.0000 </r>
       <r>    3.2763    1.0000 </r>
       <r>    3.4705    1.0000 </r>
       <r>    3.8189    1.0000 </r>
       <r>    3.8265    1.0000 </r>
       <r>    3.8649    1.0000 </r>
       <r>    3.9378    1.0000 </r>
       <r>    3.9604    1.0000 </r>
       <r>    4.4122    1.0000 </r>
       <r>    4.8899    1.0000 </r>
       <r>    4.8915    1.0000 </r>
       <r>    5.4380    1.0000 </r>
       <r>    5.5625    1.0000 </r>
       <r>    6.4827    1.0000 </r>
       <r>    6.6157    1.0000 </r>
       <r>    6.9201    1.0000 </r>
       <r>    7.0756    1.0000 </r>
       <r>    7.4525    1.0000 </r>
       <r>    7.5227    0.9106 </r>
       <r>    7.8526    0.0000 </r>
       <r>    7.8815    0.0000 </r>
       <r>    8.0976    0.0000 </r>
       <r>    8.3741    0.0000 </r>
       <r>    8.6147    0.0000 </r>
       <r>    8.9563    0.0000 </r>
       <r>    9.2246    0.0000 </r>
       <r>    9.2398    0.0000 </r>
       <r>    9.3764    0.0000 </r>
       <r>    9.4964    0.0000 </r>
       <r>    9.5727    0.0000 </r>
       <r>    9.7621    0.0000 </r>
       <r>    9.9145    0.0000 </r>
       <r>   10.3613    0.0000 </r>
       <r>   10.9023    0.0000 </r>
      </set>
      <set comment="kpoint 3">
       <r>  -55.6545    1.0000 </r>
       <r>  -55.6526    1.0000 </r>
       <r>  -55.1512    1.0000 </r>
       <r>  -55.1432    1.0000 </r>
       <r>  -55.1379    1.0000 </r>
       <r>  -55.1293    1.0000 </r>
       <r>  -29.3949    1.0000 </r>
       <r>  -29.3385    1.0000 </r>
       <r>  -29.0617    1.0000 </r>
       <r>  -29.0583    1.0000 </r>
       <r>  -29.0578    1.0000 </r>
       <r>  -29.0575    1.0000 </r>
       <r>  -28.7809    1.0000 </r>
       <r>  -28.7365    1.0000 </r>
       <r>  -28.6944    1.0000 </r>
       <r>  -28.6435    1.0000 </r>
       <r>  -28.6154    1.0000 </r>
       <r>  -28.6134    1.0000 </r>
       <r>  -28.5950    1.0000 </r>
       <r>  -28.5899    1.0000 </r>
       <r>  -28.4541    1.0000 </r>
       <r>  -28.3809    1.0000 </r>
       <r>  -28.3441    1.0000 </r>
       <r>  -28.2981    1.0000 </r>
       <r>   -3.2433    1.0000 </r>
       <r>   -1.0502    1.0000 </r>
       <r>   -0.7111    1.0000 </r>
       <r>    0.0695    1.0000 </r>
       <r>    0.7581    1.0000 </r>
       <r>    0.9422    1.0000 </r>
       <r>    1.5893    1.0000 </r>
       <r>    2.0433    1.0000 </r>
       <r>    2.6038    1.0000 </r>
       <r>    3.5901    1.0000 </r>
       <r>    3.7335    1.0000 </r>
       <r>    3.7544    1.0000 </r>
       <r>    3.8077    1.0000 </r>
       <r>    3.9937    1.0000 </r>
       <r>    4.1170    1.0000 </r>
       <r>    4.3147    1.0000 </r>
       <r>    4.3879    1.0000 </r>
       <r>    4.4013    1.0000 </r>
       <r>    4.7049    1.0000 </r>
       <r>    4.9948    1.0000 </r>
       <r>    5.6210    1.0000 </r>
       <r>    6.0367    1.0000 </r>
       <r>    6.0842    1.0000 </r>
       <r>    6.6989    1.0000 </r>
       <r>    7.0561    1.0000 </r>
       <r>    7.2719    1.0000 </r>
       <r>    7.4005    1.0000 </r>
       <r>    7.4150    1.0000 </r>
       <r>    7.4966    0.9993 </r>
       <r>    7.9225    0.0000 </r>
       <r>    7.9951    0.0000 </r>
       <r>    8.4375    0.0000 </r>
       <r>    8.5057    0.0000 </r>
       <r>    8.8707    0.0000 </r>
       <r>    9.2721    0.0000 </r>
       <r>    9.4249    0.0000 </r>
       <r>    9.5891    0.0000 </r>
       <r>    9.6888    0.0000 </r>
       <r>    9.8829    0.0000 </r>
       <r>   10.1793    0.0000 </r>
       <r>   10.6030    0.0000 </r>
       <r>   10.6312    0.0000 </r>
      </set>
      <set comment="kpoint 4">
       <r>  -55.6538    1.0000 </r>
       <r>  -55.6531    1.0000 </r>
       <r>  -55.1488    1.0000 </r>
       <r>  -55.1459    1.0000 </r>
       <r>  -55.1352    1.0000 </r>
       <r>  -55.1321    1.0000 </r>
       <r>  -29.3660    1.0000 </r>
       <r>  -29.3456    1.0000 </r>
       <r>  -29.0497    1.0000 </r>
       <r>  -29.0482    1.0000 </r>
       <r>  -29.0480    1.0000 </r>
       <r>  -29.0477    1.0000 </r>
       <r>  -28.7830    1.0000 </r>
       <r>  -28.7670    1.0000 </r>
       <r>  -28.6839    1.0000 </r>
       <r>  -28.6657    1.0000 </r>
       <r>  -28.6144    1.0000 </r>
       <r>  -28.6092    1.0000 </r>
       <r>  -28.6073    1.0000 </r>
       <r>  -28.6005    1.0000 </r>
       <r>  -28.4323    1.0000 </r>
       <r>  -28.4062    1.0000 </r>
       <r>  -28.3309    1.0000 </r>
       <r>  -28.3146    1.0000 </r>
       <r>   -2.6629    1.0000 </r>
       <r>   -1.9128    1.0000 </r>
       <r>   -0.3107    1.0000 </r>
       <r>    0.2014    1.0000 </r>
       <r>    0.3130    1.0000 </r>
       <r>    0.6227    1.0000 </r>
       <r>    2.2515    1.0000 </r>
       <r>    2.5664    1.0000 </r>
       <r>    3.1011    1.0000 </r>
       <r>    3.1476    1.0000 </r>
       <r>    3.2561    1.0000 </r>
       <r>    3.5336    1.0000 </r>
       <r>    4.0195    1.0000 </r>
       <r>    4.0358    1.0000 </r>
       <r>    4.2029    1.0000 </r>
       <r>    4.5017    1.0000 </r>
       <r>    4.5532    1.0000 </r>
       <r>    4.7782    1.0000 </r>
       <r>    4.8055    1.0000 </r>
       <r>    4.8510    1.0000 </r>
       <r>    5.1670    1.0000 </r>
       <r>    5.3719    1.0000 </r>
       <r>    6.1998    1.0000 </r>
       <r>    6.4283    1.0000 </r>
       <r>    6.7014    1.0000 </r>
       <r>    6.8494    1.0000 </r>
       <r>    7.3386    1.0000 </r>
       <r>    7.3539    1.0000 </r>
       <r>    7.5634    0.0628 </r>
       <r>    7.7405    0.0000 </r>
       <r>    8.0470    0.0000 </r>
       <r>    8.2043    0.0000 </r>
       <r>    8.2310    0.0000 </r>
       <r>    8.4341    0.0000 </r>
       <r>    9.3623    0.0000 </r>
       <r>    9.4125    0.0000 </r>
       <r>    9.4735    0.0000 </r>
       <r>    9.5014    0.0000 </r>
       <r>   10.2036    0.0000 </r>
       <r>   10.4495    0.0000 </r>
       <r>   10.8838    0.0000 </r>
       <r>   10.9640    0.0000 </r>
      </set>
      <set comment="kpoint 5">
       <r>  -55.6547    1.0000 </r>
       <r>  -55.6526    1.0000 </r>
       <r>  -55.1523    1.0000 </r>
       <r>  -55.1406    1.0000 </r>
       <r>  -55.1405    1.0000 </r>
       <r>  -55.1281    1.0000 </r>
       <r>  -29.4023    1.0000 </r>
       <r>  -29.3392    1.0000 </r>
       <r>  -29.0667    1.0000 </r>
       <r>  -29.0644    1.0000 </r>
       <r>  -29.0605    1.0000 </r>
       <r>  -29.0574    1.0000 </r>
       <r>  -28.7838    1.0000 </r>
       <r>  -28.7180    1.0000 </r>
       <r>  -28.7079    1.0000 </r>
       <r>  -28.6321    1.0000 </r>
       <r>  -28.6159    1.0000 </r>
       <r>  -28.6132    1.0000 </r>
       <r>  -28.5923    1.0000 </r>
       <r>  -28.5863    1.0000 </r>
       <r>  -28.4635    1.0000 </r>
       <r>  -28.3594    1.0000 </r>
       <r>  -28.3589    1.0000 </r>
       <r>  -28.2905    1.0000 </r>
       <r>   -3.3877    1.0000 </r>
       <r>   -0.8138    1.0000 </r>
       <r>   -0.7311    1.0000 </r>
       <r>    0.0563    1.0000 </r>
       <r>    0.8337    1.0000 </r>
       <r>    0.9576    1.0000 </r>
       <r>    1.5079    1.0000 </r>
       <r>    1.9086    1.0000 </r>
       <r>    2.4220    1.0000 </r>
       <r>    3.4449    1.0000 </r>
       <r>    3.5768    1.0000 </r>
       <r>    3.8035    1.0000 </r>
       <r>    3.8175    1.0000 </r>
       <r>    4.0641    1.0000 </r>
       <r>    4.2205    1.0000 </r>
       <r>    4.2529    1.0000 </r>
       <r>    4.3115    1.0000 </r>
       <r>    4.4761    1.0000 </r>
       <r>    4.9287    1.0000 </r>
       <r>    4.9917    1.0000 </r>
       <r>    5.5588    1.0000 </r>
       <r>    5.9897    1.0000 </r>
       <r>    6.4584    1.0000 </r>
       <r>    6.8806    1.0000 </r>
       <r>    7.1162    1.0000 </r>
       <r>    7.2005    1.0000 </r>
       <r>    7.4440    1.0000 </r>
       <r>    7.4871    0.9999 </r>
       <r>    7.7134    0.0000 </r>
       <r>    7.9150    0.0000 </r>
       <r>    7.9457    0.0000 </r>
       <r>    8.6056    0.0000 </r>
       <r>    8.6195    0.0000 </r>
       <r>    9.1675    0.0000 </r>
       <r>    9.2324    0.0000 </r>
       <r>    9.3733    0.0000 </r>
       <r>    9.5168    0.0000 </r>
       <r>    9.8094    0.0000 </r>
       <r>    9.8176    0.0000 </r>
       <r>   10.0696    0.0000 </r>
       <r>   10.6980    0.0000 </r>
       <r>   10.8326    0.0000 </r>
      </set>
      <set comment="kpoint 6">
       <r>  -55.6539    1.0000 </r>
       <r>  -55.6530    1.0000 </r>
       <r>  -55.1508    1.0000 </r>
       <r>  -55.1425    1.0000 </r>
       <r>  -55.1386    1.0000 </r>
       <r>  -55.1300    1.0000 </r>
       <r>  -29.3746    1.0000 </r>
       <r>  -29.3417    1.0000 </r>
       <r>  -29.0548    1.0000 </r>
       <r>  -29.0537    1.0000 </r>
       <r>  -29.0494    1.0000 </r>
       <r>  -29.0475    1.0000 </r>
       <r>  -28.7916    1.0000 </r>
       <r>  -28.7400    1.0000 </r>
       <r>  -28.7070    1.0000 </r>
       <r>  -28.6470    1.0000 </r>
       <r>  -28.6191    1.0000 </r>
       <r>  -28.6103    1.0000 </r>
       <r>  -28.6039    1.0000 </r>
       <r>  -28.5971    1.0000 </r>
       <r>  -28.4498    1.0000 </r>
       <r>  -28.3774    1.0000 </r>
       <r>  -28.3505    1.0000 </r>
       <r>  -28.3033    1.0000 </r>
       <r>   -2.9408    1.0000 </r>
       <r>   -1.4815    1.0000 </r>
       <r>   -0.5164    1.0000 </r>
       <r>    0.2865    1.0000 </r>
       <r>    0.4732    1.0000 </r>
       <r>    0.5668    1.0000 </r>
       <r>    2.0002    1.0000 </r>
       <r>    2.2269    1.0000 </r>
       <r>    2.9552    1.0000 </r>
       <r>    3.3846    1.0000 </r>
       <r>    3.5918    1.0000 </r>
       <r>    3.7350    1.0000 </r>
       <r>    3.7779    1.0000 </r>
       <r>    3.8322    1.0000 </r>
       <r>    4.3626    1.0000 </r>
       <r>    4.4341    1.0000 </r>
       <r>    4.5911    1.0000 </r>
       <r>    4.6231    1.0000 </r>
       <r>    4.7151    1.0000 </r>
       <r>    4.8479    1.0000 </r>
       <r>    5.1908    1.0000 </r>
       <r>    5.7997    1.0000 </r>
       <r>    5.9675    1.0000 </r>
       <r>    6.6885    1.0000 </r>
       <r>    6.7106    1.0000 </r>
       <r>    7.1725    1.0000 </r>
       <r>    7.2379    1.0000 </r>
       <r>    7.2993    1.0000 </r>
       <r>    7.5171    0.9592 </r>
       <r>    7.7011    0.0000 </r>
       <r>    8.0267    0.0000 </r>
       <r>    8.2236    0.0000 </r>
       <r>    8.4354    0.0000 </r>
       <r>    8.8496    0.0000 </r>
       <r>    9.1703    0.0000 </r>
       <r>    9.3820    0.0000 </r>
       <r>    9.4720    0.0000 </r>
       <r>    9.7887    0.0000 </r>
       <r>   10.1476    0.0000 </r>
       <r>   10.5352    0.0000 </r>
       <r>   10.5687    0.0000 </r>
       <r>   11.2324    0.0000 </r>
      </set>
      <set comment="kpoint 7">
       <r>  -55.6535    1.0000 </r>
       <r>  -55.6532    1.0000 </r>
       <r>  -55.1484    1.0000 </r>
       <r>  -55.1451    1.0000 </r>
       <r>  -55.1358    1.0000 </r>
       <r>  -55.1328    1.0000 </r>
       <r>  -29.3542    1.0000 </r>
       <r>  -29.3496    1.0000 </r>
       <r>  -29.0484    1.0000 </r>
       <r>  -29.0480    1.0000 </r>
       <r>  -29.0443    1.0000 </r>
       <r>  -29.0439    1.0000 </r>
       <r>  -28.7850    1.0000 </r>
       <r>  -28.7612    1.0000 </r>
       <r>  -28.6940    1.0000 </r>
       <r>  -28.6652    1.0000 </r>
       <r>  -28.6178    1.0000 </r>
       <r>  -28.6122    1.0000 </r>
       <r>  -28.6080    1.0000 </r>
       <r>  -28.6025    1.0000 </r>
       <r>  -28.4285    1.0000 </r>
       <r>  -28.4024    1.0000 </r>
       <r>  -28.3369    1.0000 </r>
       <r>  -28.3203    1.0000 </r>
       <r>   -2.3049    1.0000 </r>
       <r>   -2.2272    1.0000 </r>
       <r>   -0.1058    1.0000 </r>
       <r>   -0.0290    1.0000 </r>
       <r>    0.3047    1.0000 </r>
       <r>    0.5881    1.0000 </r>
       <r>    2.5302    1.0000 </r>
       <r>    2.5703    1.0000 </r>
       <r>    2.9257    1.0000 </r>
       <r>    3.0056    1.0000 </r>
       <r>    3.4047    1.0000 </r>
       <r>    3.4490    1.0000 </r>
       <r>    4.0926    1.0000 </r>
       <r>    4.1109    1.0000 </r>
       <r>    4.2565    1.0000 </r>
       <r>    4.3285    1.0000 </r>
       <r>    4.6237    1.0000 </r>
       <r>    4.6873    1.0000 </r>
       <r>    4.8563    1.0000 </r>
       <r>    4.9238    1.0000 </r>
       <r>    5.1174    1.0000 </r>
       <r>    5.2524    1.0000 </r>
       <r>    6.1672    1.0000 </r>
       <r>    6.4510    1.0000 </r>
       <r>    6.4718    1.0000 </r>
       <r>    6.9151    1.0000 </r>
       <r>    7.0948    1.0000 </r>
       <r>    7.4133    1.0000 </r>
       <r>    7.6534    0.0000 </r>
       <r>    7.6608    0.0000 </r>
       <r>    8.1133    0.0000 </r>
       <r>    8.1656    0.0000 </r>
       <r>    8.2348    0.0000 </r>
       <r>    8.4293    0.0000 </r>
       <r>    9.2310    0.0000 </r>
       <r>    9.3992    0.0000 </r>
       <r>    9.4864    0.0000 </r>
       <r>    9.6364    0.0000 </r>
       <r>   10.3984    0.0000 </r>
       <r>   10.4200    0.0000 </r>
       <r>   10.7239    0.0000 </r>
       <r>   11.1422    0.0000 </r>
      </set>
      <set comment="kpoint 8">
       <r>  -55.6542    1.0000 </r>
       <r>  -55.6527    1.0000 </r>
       <r>  -55.1479    1.0000 </r>
       <r>  -55.1454    1.0000 </r>
       <r>  -55.1359    1.0000 </r>
       <r>  -55.1327    1.0000 </r>
       <r>  -29.3774    1.0000 </r>
       <r>  -29.3364    1.0000 </r>
       <r>  -29.0590    1.0000 </r>
       <r>  -29.0578    1.0000 </r>
       <r>  -29.0453    1.0000 </r>
       <r>  -29.0434    1.0000 </r>
       <r>  -28.7692    1.0000 </r>
       <r>  -28.7597    1.0000 </r>
       <r>  -28.6803    1.0000 </r>
       <r>  -28.6715    1.0000 </r>
       <r>  -28.6160    1.0000 </r>
       <r>  -28.6140    1.0000 </r>
       <r>  -28.6103    1.0000 </r>
       <r>  -28.5914    1.0000 </r>
       <r>  -28.4281    1.0000 </r>
       <r>  -28.4029    1.0000 </r>
       <r>  -28.3372    1.0000 </r>
       <r>  -28.3201    1.0000 </r>
       <r>   -2.8673    1.0000 </r>
       <r>   -1.5345    1.0000 </r>
       <r>   -0.4639    1.0000 </r>
       <r>    0.0821    1.0000 </r>
       <r>    0.3461    1.0000 </r>
       <r>    0.9233    1.0000 </r>
       <r>    1.9448    1.0000 </r>
       <r>    2.3113    1.0000 </r>
       <r>    3.0098    1.0000 </r>
       <r>    3.2069    1.0000 </r>
       <r>    3.6806    1.0000 </r>
       <r>    3.7167    1.0000 </r>
       <r>    3.8243    1.0000 </r>
       <r>    3.9952    1.0000 </r>
       <r>    4.2354    1.0000 </r>
       <r>    4.2736    1.0000 </r>
       <r>    4.4778    1.0000 </r>
       <r>    4.6667    1.0000 </r>
       <r>    4.7066    1.0000 </r>
       <r>    4.8839    1.0000 </r>
       <r>    5.0244    1.0000 </r>
       <r>    5.8761    1.0000 </r>
       <r>    6.2382    1.0000 </r>
       <r>    6.3793    1.0000 </r>
       <r>    6.8378    1.0000 </r>
       <r>    6.9621    1.0000 </r>
       <r>    7.0669    1.0000 </r>
       <r>    7.5000    0.9984 </r>
       <r>    7.5896    0.0004 </r>
       <r>    7.8893    0.0000 </r>
       <r>    8.0064    0.0000 </r>
       <r>    8.3030    0.0000 </r>
       <r>    8.3773    0.0000 </r>
       <r>    8.4535    0.0000 </r>
       <r>    9.2925    0.0000 </r>
       <r>    9.3203    0.0000 </r>
       <r>    9.5657    0.0000 </r>
       <r>    9.7405    0.0000 </r>
       <r>   10.1811    0.0000 </r>
       <r>   10.2220    0.0000 </r>
       <r>   10.5872    0.0000 </r>
       <r>   10.9275    0.0000 </r>
      </set>
      <set comment="kpoint 9">
       <r>  -55.6548    1.0000 </r>
       <r>  -55.6524    1.0000 </r>
       <r>  -55.1503    1.0000 </r>
       <r>  -55.1426    1.0000 </r>
       <r>  -55.1387    1.0000 </r>
       <r>  -55.1300    1.0000 </r>
       <r>  -29.4034    1.0000 </r>
       <r>  -29.3352    1.0000 </r>
       <r>  -29.0706    1.0000 </r>
       <r>  -29.0687    1.0000 </r>
       <r>  -29.0563    1.0000 </r>
       <r>  -29.0532    1.0000 </r>
       <r>  -28.7680    1.0000 </r>
       <r>  -28.7285    1.0000 </r>
       <r>  -28.6912    1.0000 </r>
       <r>  -28.6483    1.0000 </r>
       <r>  -28.6177    1.0000 </r>
       <r>  -28.6121    1.0000 </r>
       <r>  -28.5982    1.0000 </r>
       <r>  -28.5812    1.0000 </r>
       <r>  -28.4496    1.0000 </r>
       <r>  -28.3778    1.0000 </r>
       <r>  -28.3507    1.0000 </r>
       <r>  -28.3032    1.0000 </r>
       <r>   -3.3366    1.0000 </r>
       <r>   -0.7817    1.0000 </r>
       <r>   -0.7151    1.0000 </r>
       <r>   -0.0678    1.0000 </r>
       <r>    0.6584    1.0000 </r>
       <r>    1.1836    1.0000 </r>
       <r>    1.6810    1.0000 </r>
       <r>    1.8192    1.0000 </r>
       <r>    2.4406    1.0000 </r>
       <r>    3.5627    1.0000 </r>
       <r>    3.6765    1.0000 </r>
       <r>    3.8442    1.0000 </r>
       <r>    3.8853    1.0000 </r>
       <r>    3.9509    1.0000 </r>
       <r>    4.0247    1.0000 </r>
       <r>    4.0462    1.0000 </r>
       <r>    4.2843    1.0000 </r>
       <r>    4.4014    1.0000 </r>
       <r>    4.8573    1.0000 </r>
       <r>    5.2477    1.0000 </r>
       <r>    5.4980    1.0000 </r>
       <r>    5.8526    1.0000 </r>
       <r>    6.5760    1.0000 </r>
       <r>    6.6834    1.0000 </r>
       <r>    7.1552    1.0000 </r>
       <r>    7.3002    1.0000 </r>
       <r>    7.3329    1.0000 </r>
       <r>    7.4460    1.0000 </r>
       <r>    7.7651    0.0000 </r>
       <r>    7.8916    0.0000 </r>
       <r>    8.2335    0.0000 </r>
       <r>    8.4516    0.0000 </r>
       <r>    8.6863    0.0000 </r>
       <r>    8.7782    0.0000 </r>
       <r>    9.1878    0.0000 </r>
       <r>    9.2357    0.0000 </r>
       <r>    9.5781    0.0000 </r>
       <r>    9.8324    0.0000 </r>
       <r>    9.9171    0.0000 </r>
       <r>   10.0630    0.0000 </r>
       <r>   10.5155    0.0000 </r>
       <r>   10.8082    0.0000 </r>
      </set>
      <set comment="kpoint 10">
       <r>  -55.6552    1.0000 </r>
       <r>  -55.6523    1.0000 </r>
       <r>  -55.1520    1.0000 </r>
       <r>  -55.1407    1.0000 </r>
       <r>  -55.1404    1.0000 </r>
       <r>  -55.1281    1.0000 </r>
       <r>  -29.4205    1.0000 </r>
       <r>  -29.3387    1.0000 </r>
       <r>  -29.0756    1.0000 </r>
       <r>  -29.0731    1.0000 </r>
       <r>  -29.0678    1.0000 </r>
       <r>  -29.0641    1.0000 </r>
       <r>  -28.7680    1.0000 </r>
       <r>  -28.7093    1.0000 </r>
       <r>  -28.6981    1.0000 </r>
       <r>  -28.6320    1.0000 </r>
       <r>  -28.6152    1.0000 </r>
       <r>  -28.6101    1.0000 </r>
       <r>  -28.5866    1.0000 </r>
       <r>  -28.5768    1.0000 </r>
       <r>  -28.4634    1.0000 </r>
       <r>  -28.3596    1.0000 </r>
       <r>  -28.3591    1.0000 </r>
       <r>  -28.2904    1.0000 </r>
       <r>   -3.5921    1.0000 </r>
       <r>   -0.9533    1.0000 </r>
       <r>   -0.1259    1.0000 </r>
       <r>   -0.0720    1.0000 </r>
       <r>    0.7292    1.0000 </r>
       <r>    1.1887    1.0000 </r>
       <r>    1.7599    1.0000 </r>
       <r>    1.7996    1.0000 </r>
       <r>    1.8289    1.0000 </r>
       <r>    3.3825    1.0000 </r>
       <r>    3.4639    1.0000 </r>
       <r>    3.7708    1.0000 </r>
       <r>    3.8243    1.0000 </r>
       <r>    3.8829    1.0000 </r>
       <r>    3.8985    1.0000 </r>
       <r>    3.9585    1.0000 </r>
       <r>    4.4052    1.0000 </r>
       <r>    4.5604    1.0000 </r>
       <r>    5.0786    1.0000 </r>
       <r>    5.5681    1.0000 </r>
       <r>    5.6014    1.0000 </r>
       <r>    6.1411    1.0000 </r>
       <r>    6.8043    1.0000 </r>
       <r>    6.8821    1.0000 </r>
       <r>    7.1091    1.0000 </r>
       <r>    7.3268    1.0000 </r>
       <r>    7.5900    0.0003 </r>
       <r>    7.8905    0.0000 </r>
       <r>    7.9495    0.0000 </r>
       <r>    8.0456    0.0000 </r>
       <r>    8.4872    0.0000 </r>
       <r>    8.7172    0.0000 </r>
       <r>    8.8898    0.0000 </r>
       <r>    8.9539    0.0000 </r>
       <r>    9.0991    0.0000 </r>
       <r>    9.2133    0.0000 </r>
       <r>    9.5140    0.0000 </r>
       <r>    9.6457    0.0000 </r>
       <r>    9.8799    0.0000 </r>
       <r>    9.9807    0.0000 </r>
       <r>   10.1797    0.0000 </r>
       <r>   10.9187    0.0000 </r>
      </set>
      <set comment="kpoint 11">
       <r>  -55.6534    1.0000 </r>
       <r>  -55.6533    1.0000 </r>
       <r>  -55.1492    1.0000 </r>
       <r>  -55.1406    1.0000 </r>
       <r>  -55.1403    1.0000 </r>
       <r>  -55.1320    1.0000 </r>
       <r>  -29.3510    1.0000 </r>
       <r>  -29.3486    1.0000 </r>
       <r>  -29.0486    1.0000 </r>
       <r>  -29.0475    1.0000 </r>
       <r>  -29.0434    1.0000 </r>
       <r>  -29.0432    1.0000 </r>
       <r>  -28.7905    1.0000 </r>
       <r>  -28.7323    1.0000 </r>
       <r>  -28.7238    1.0000 </r>
       <r>  -28.6569    1.0000 </r>
       <r>  -28.6242    1.0000 </r>
       <r>  -28.6115    1.0000 </r>
       <r>  -28.6088    1.0000 </r>
       <r>  -28.6028    1.0000 </r>
       <r>  -28.4369    1.0000 </r>
       <r>  -28.3685    1.0000 </r>
       <r>  -28.3673    1.0000 </r>
       <r>  -28.3171    1.0000 </r>
       <r>   -2.4513    1.0000 </r>
       <r>   -1.9757    1.0000 </r>
       <r>   -0.2278    1.0000 </r>
       <r>    0.1050    1.0000 </r>
       <r>    0.2435    1.0000 </r>
       <r>    0.5665    1.0000 </r>
       <r>    2.3683    1.0000 </r>
       <r>    2.6848    1.0000 </r>
       <r>    2.7337    1.0000 </r>
       <r>    3.1624    1.0000 </r>
       <r>    3.3214    1.0000 </r>
       <r>    3.6717    1.0000 </r>
       <r>    3.9603    1.0000 </r>
       <r>    4.0984    1.0000 </r>
       <r>    4.2057    1.0000 </r>
       <r>    4.3943    1.0000 </r>
       <r>    4.6254    1.0000 </r>
       <r>    4.6971    1.0000 </r>
       <r>    4.7258    1.0000 </r>
       <r>    4.9795    1.0000 </r>
       <r>    5.2193    1.0000 </r>
       <r>    5.2445    1.0000 </r>
       <r>    6.0749    1.0000 </r>
       <r>    6.3460    1.0000 </r>
       <r>    6.5610    1.0000 </r>
       <r>    6.8693    1.0000 </r>
       <r>    7.0829    1.0000 </r>
       <r>    7.4083    1.0000 </r>
       <r>    7.5741    0.0111 </r>
       <r>    7.6848    0.0000 </r>
       <r>    8.0873    0.0000 </r>
       <r>    8.1702    0.0000 </r>
       <r>    8.3651    0.0000 </r>
       <r>    8.6513    0.0000 </r>
       <r>    9.0125    0.0000 </r>
       <r>    9.3562    0.0000 </r>
       <r>    9.5054    0.0000 </r>
       <r>    9.8093    0.0000 </r>
       <r>   10.4267    0.0000 </r>
       <r>   10.6520    0.0000 </r>
       <r>   10.8756    0.0000 </r>
       <r>   10.9831    0.0000 </r>
      </set>
      <set comment="kpoint 12">
       <r>  -55.6540    1.0000 </r>
       <r>  -55.6527    1.0000 </r>
       <r>  -55.1467    1.0000 </r>
       <r>  -55.1431    1.0000 </r>
       <r>  -55.1376    1.0000 </r>
       <r>  -55.1348    1.0000 </r>
       <r>  -29.3625    1.0000 </r>
       <r>  -29.3343    1.0000 </r>
       <r>  -29.0580    1.0000 </r>
       <r>  -29.0577    1.0000 </r>
       <r>  -29.0344    1.0000 </r>
       <r>  -29.0329    1.0000 </r>
       <r>  -28.7744    1.0000 </r>
       <r>  -28.7443    1.0000 </r>
       <r>  -28.7070    1.0000 </r>
       <r>  -28.6706    1.0000 </r>
       <r>  -28.6258    1.0000 </r>
       <r>  -28.6195    1.0000 </r>
       <r>  -28.6139    1.0000 </r>
       <r>  -28.5917    1.0000 </r>
       <r>  -28.4168    1.0000 </r>
       <r>  -28.3918    1.0000 </r>
       <r>  -28.3532    1.0000 </r>
       <r>  -28.3354    1.0000 </r>
       <r>   -2.4825    1.0000 </r>
       <r>   -1.8239    1.0000 </r>
       <r>   -0.2505    1.0000 </r>
       <r>    0.0355    1.0000 </r>
       <r>    0.0860    1.0000 </r>
       <r>    0.8806    1.0000 </r>
       <r>    2.1186    1.0000 </r>
       <r>    2.5447    1.0000 </r>
       <r>    2.7191    1.0000 </r>
       <r>    3.4398    1.0000 </r>
       <r>    3.4672    1.0000 </r>
       <r>    3.6722    1.0000 </r>
       <r>    3.9126    1.0000 </r>
       <r>    4.1418    1.0000 </r>
       <r>    4.1817    1.0000 </r>
       <r>    4.3586    1.0000 </r>
       <r>    4.4500    1.0000 </r>
       <r>    4.5672    1.0000 </r>
       <r>    4.6623    1.0000 </r>
       <r>    4.8044    1.0000 </r>
       <r>    4.9552    1.0000 </r>
       <r>    5.9358    1.0000 </r>
       <r>    6.1536    1.0000 </r>
       <r>    6.3504    1.0000 </r>
       <r>    6.3911    1.0000 </r>
       <r>    6.6646    1.0000 </r>
       <r>    7.0362    1.0000 </r>
       <r>    7.5299    0.7986 </r>
       <r>    7.7108    0.0000 </r>
       <r>    7.8593    0.0000 </r>
       <r>    8.1213    0.0000 </r>
       <r>    8.2491    0.0000 </r>
       <r>    8.2708    0.0000 </r>
       <r>    8.4018    0.0000 </r>
       <r>    8.9282    0.0000 </r>
       <r>    9.3489    0.0000 </r>
       <r>    9.7217    0.0000 </r>
       <r>    9.8416    0.0000 </r>
       <r>   10.2264    0.0000 </r>
       <r>   10.3232    0.0000 </r>
       <r>   10.9117    0.0000 </r>
       <r>   11.2934    0.0000 </r>
      </set>
      <set comment="kpoint 13">
       <r>  -55.6545    1.0000 </r>
       <r>  -55.6524    1.0000 </r>
       <r>  -55.1459    1.0000 </r>
       <r>  -55.1436    1.0000 </r>
       <r>  -55.1379    1.0000 </r>
       <r>  -55.1346    1.0000 </r>
       <r>  -29.3812    1.0000 </r>
       <r>  -29.3287    1.0000 </r>
       <r>  -29.0689    1.0000 </r>
       <r>  -29.0687    1.0000 </r>
       <r>  -29.0354    1.0000 </r>
       <r>  -29.0326    1.0000 </r>
       <r>  -28.7538    1.0000 </r>
       <r>  -28.7498    1.0000 </r>
       <r>  -28.6836    1.0000 </r>
       <r>  -28.6823    1.0000 </r>
       <r>  -28.6249    1.0000 </r>
       <r>  -28.6207    1.0000 </r>
       <r>  -28.6120    1.0000 </r>
       <r>  -28.5813    1.0000 </r>
       <r>  -28.4164    1.0000 </r>
       <r>  -28.3924    1.0000 </r>
       <r>  -28.3536    1.0000 </r>
       <r>  -28.3351    1.0000 </r>
       <r>   -2.9213    1.0000 </r>
       <r>   -1.1557    1.0000 </r>
       <r>   -0.5370    1.0000 </r>
       <r>   -0.0822    1.0000 </r>
       <r>    0.3020    1.0000 </r>
       <r>    1.1811    1.0000 </r>
       <r>    1.7653    1.0000 </r>
       <r>    2.0159    1.0000 </r>
       <r>    3.0771    1.0000 </r>
       <r>    3.1663    1.0000 </r>
       <r>    3.6790    1.0000 </r>
       <r>    3.8943    1.0000 </r>
       <r>    3.9128    1.0000 </r>
       <r>    4.0174    1.0000 </r>
       <r>    4.1197    1.0000 </r>
       <r>    4.2646    1.0000 </r>
       <r>    4.3478    1.0000 </r>
       <r>    4.5393    1.0000 </r>
       <r>    4.6264    1.0000 </r>
       <r>    4.8001    1.0000 </r>
       <r>    4.9252    1.0000 </r>
       <r>    6.0687    1.0000 </r>
       <r>    6.3610    1.0000 </r>
       <r>    6.5806    1.0000 </r>
       <r>    6.6084    1.0000 </r>
       <r>    6.8498    1.0000 </r>
       <r>    7.2458    1.0000 </r>
       <r>    7.6543    0.0000 </r>
       <r>    7.6928    0.0000 </r>
       <r>    7.8696    0.0000 </r>
       <r>    8.0199    0.0000 </r>
       <r>    8.3850    0.0000 </r>
       <r>    8.4503    0.0000 </r>
       <r>    8.4844    0.0000 </r>
       <r>    8.8022    0.0000 </r>
       <r>    9.3996    0.0000 </r>
       <r>    9.6605    0.0000 </r>
       <r>    9.8476    0.0000 </r>
       <r>   10.0037    0.0000 </r>
       <r>   10.2639    0.0000 </r>
       <r>   10.8620    0.0000 </r>
       <r>   10.9434    0.0000 </r>
      </set>
      <set comment="kpoint 14">
       <r>  -55.6548    1.0000 </r>
       <r>  -55.6523    1.0000 </r>
       <r>  -55.1484    1.0000 </r>
       <r>  -55.1410    1.0000 </r>
       <r>  -55.1404    1.0000 </r>
       <r>  -55.1319    1.0000 </r>
       <r>  -29.3975    1.0000 </r>
       <r>  -29.3310    1.0000 </r>
       <r>  -29.0736    1.0000 </r>
       <r>  -29.0733    1.0000 </r>
       <r>  -29.0459    1.0000 </r>
       <r>  -29.0423    1.0000 </r>
       <r>  -28.7592    1.0000 </r>
       <r>  -28.7298    1.0000 </r>
       <r>  -28.6917    1.0000 </r>
       <r>  -28.6619    1.0000 </r>
       <r>  -28.6235    1.0000 </r>
       <r>  -28.6104    1.0000 </r>
       <r>  -28.6095    1.0000 </r>
       <r>  -28.5768    1.0000 </r>
       <r>  -28.4366    1.0000 </r>
       <r>  -28.3690    1.0000 </r>
       <r>  -28.3679    1.0000 </r>
       <r>  -28.3169    1.0000 </r>
       <r>   -3.2216    1.0000 </r>
       <r>   -0.7210    1.0000 </r>
       <r>   -0.6797    1.0000 </r>
       <r>   -0.1180    1.0000 </r>
       <r>    0.4069    1.0000 </r>
       <r>    1.3144    1.0000 </r>
       <r>    1.5931    1.0000 </r>
       <r>    1.8872    1.0000 </r>
       <r>    2.6283    1.0000 </r>
       <r>    3.5600    1.0000 </r>
       <r>    3.6204    1.0000 </r>
       <r>    3.8125    1.0000 </r>
       <r>    3.9180    1.0000 </r>
       <r>    3.9510    1.0000 </r>
       <r>    3.9788    1.0000 </r>
       <r>    4.0714    1.0000 </r>
       <r>    4.3766    1.0000 </r>
       <r>    4.4104    1.0000 </r>
       <r>    4.9289    1.0000 </r>
       <r>    4.9442    1.0000 </r>
       <r>    5.2167    1.0000 </r>
       <r>    5.8791    1.0000 </r>
       <r>    6.6101    1.0000 </r>
       <r>    6.8107    1.0000 </r>
       <r>    6.8307    1.0000 </r>
       <r>    7.2326    1.0000 </r>
       <r>    7.3992    1.0000 </r>
       <r>    7.5052    0.9951 </r>
       <r>    7.7343    0.0000 </r>
       <r>    7.9153    0.0000 </r>
       <r>    8.3013    0.0000 </r>
       <r>    8.4715    0.0000 </r>
       <r>    8.5940    0.0000 </r>
       <r>    8.6615    0.0000 </r>
       <r>    8.6683    0.0000 </r>
       <r>    9.2998    0.0000 </r>
       <r>    9.6648    0.0000 </r>
       <r>    9.7435    0.0000 </r>
       <r>    9.8564    0.0000 </r>
       <r>   10.4196    0.0000 </r>
       <r>   10.5611    0.0000 </r>
       <r>   10.8918    0.0000 </r>
      </set>
      <set comment="kpoint 15">
       <r>  -55.6543    1.0000 </r>
       <r>  -55.6524    1.0000 </r>
       <r>  -55.1440    1.0000 </r>
       <r>  -55.1406    1.0000 </r>
       <r>  -55.1399    1.0000 </r>
       <r>  -55.1376    1.0000 </r>
       <r>  -29.3709    1.0000 </r>
       <r>  -29.3257    1.0000 </r>
       <r>  -29.0689    1.0000 </r>
       <r>  -29.0678    1.0000 </r>
       <r>  -29.0251    1.0000 </r>
       <r>  -29.0231    1.0000 </r>
       <r>  -28.7599    1.0000 </r>
       <r>  -28.7376    1.0000 </r>
       <r>  -28.7074    1.0000 </r>
       <r>  -28.6802    1.0000 </r>
       <r>  -28.6316    1.0000 </r>
       <r>  -28.6285    1.0000 </r>
       <r>  -28.6120    1.0000 </r>
       <r>  -28.5813    1.0000 </r>
       <r>  -28.3983    1.0000 </r>
       <r>  -28.3765    1.0000 </r>
       <r>  -28.3744    1.0000 </r>
       <r>  -28.3555    1.0000 </r>
       <r>   -2.6932    1.0000 </r>
       <r>   -1.3134    1.0000 </r>
       <r>   -0.4213    1.0000 </r>
       <r>   -0.1257    1.0000 </r>
       <r>    0.1708    1.0000 </r>
       <r>    1.1681    1.0000 </r>
       <r>    1.7991    1.0000 </r>
       <r>    2.1062    1.0000 </r>
       <r>    2.9348    1.0000 </r>
       <r>    3.4629    1.0000 </r>
       <r>    3.7287    1.0000 </r>
       <r>    3.7433    1.0000 </r>
       <r>    3.9148    1.0000 </r>
       <r>    3.9228    1.0000 </r>
       <r>    4.0742    1.0000 </r>
       <r>    4.3031    1.0000 </r>
       <r>    4.4503    1.0000 </r>
       <r>    4.4873    1.0000 </r>
       <r>    4.6790    1.0000 </r>
       <r>    4.7544    1.0000 </r>
       <r>    4.8531    1.0000 </r>
       <r>    6.1262    1.0000 </r>
       <r>    6.2242    1.0000 </r>
       <r>    6.2279    1.0000 </r>
       <r>    6.5698    1.0000 </r>
       <r>    6.6640    1.0000 </r>
       <r>    7.2380    1.0000 </r>
       <r>    7.7219    0.0000 </r>
       <r>    7.7969    0.0000 </r>
       <r>    7.9671    0.0000 </r>
       <r>    8.0065    0.0000 </r>
       <r>    8.0808    0.0000 </r>
       <r>    8.3701    0.0000 </r>
       <r>    8.4560    0.0000 </r>
       <r>    8.6431    0.0000 </r>
       <r>    9.5346    0.0000 </r>
       <r>    9.7146    0.0000 </r>
[...]
       <r>    4.4169    1.0000 </r>
       <r>    4.7341    1.0000 </r>
       <r>    4.7540    1.0000 </r>
       <r>    4.9058    1.0000 </r>
       <r>    5.6528    1.0000 </r>
       <r>    6.4720    1.0000 </r>
       <r>    6.6593    1.0000 </r>
       <r>    6.7329    1.0000 </r>
       <r>    6.9593    1.0000 </r>
       <r>    7.0250    1.0000 </r>
       <r>    7.2564    1.0000 </r>
       <r>    7.3449    1.0000 </r>
       <r>    7.8577    0.0000 </r>
       <r>    8.4507    0.0000 </r>
       <r>    9.3302    0.0000 </r>
       <r>    9.7400    0.0000 </r>
       <r>    9.8728    0.0000 </r>
       <r>   10.0261    0.0000 </r>
       <r>   10.3934    0.0000 </r>
       <r>   10.8170    0.0000 </r>
       <r>   10.9060    0.0000 </r>
       <r>   10.9563    0.0000 </r>
       <r>   11.0657    0.0000 </r>
       <r>   11.3865    0.0000 </r>
      </set>
      <set comment="kpoint 116">
       <r>  -55.6537    1.0000 </r>
       <r>  -55.6523    1.0000 </r>
       <r>  -55.1549    1.0000 </r>
       <r>  -55.1405    1.0000 </r>
       <r>  -55.1403    1.0000 </r>
       <r>  -55.1272    1.0000 </r>
       <r>  -29.3329    1.0000 </r>
       <r>  -29.3060    1.0000 </r>
       <r>  -29.0249    1.0000 </r>
       <r>  -29.0234    1.0000 </r>
       <r>  -29.0208    1.0000 </r>
       <r>  -29.0202    1.0000 </r>
       <r>  -28.8740    1.0000 </r>
       <r>  -28.7582    1.0000 </r>
       <r>  -28.7566    1.0000 </r>
       <r>  -28.6498    1.0000 </r>
       <r>  -28.6311    1.0000 </r>
       <r>  -28.6303    1.0000 </r>
       <r>  -28.6231    1.0000 </r>
       <r>  -28.6129    1.0000 </r>
       <r>  -28.4715    1.0000 </r>
       <r>  -28.3555    1.0000 </r>
       <r>  -28.3555    1.0000 </r>
       <r>  -28.2840    1.0000 </r>
       <r>   -2.1574    1.0000 </r>
       <r>   -1.6794    1.0000 </r>
       <r>   -0.4459    1.0000 </r>
       <r>   -0.0448    1.0000 </r>
       <r>   -0.0280    1.0000 </r>
       <r>    1.2820    1.0000 </r>
       <r>    2.5614    1.0000 </r>
       <r>    2.5829    1.0000 </r>
       <r>    2.7542    1.0000 </r>
       <r>    3.3959    1.0000 </r>
       <r>    3.8144    1.0000 </r>
       <r>    3.8539    1.0000 </r>
       <r>    3.9274    1.0000 </r>
       <r>    3.9695    1.0000 </r>
       <r>    3.9870    1.0000 </r>
       <r>    3.9927    1.0000 </r>
       <r>    3.9959    1.0000 </r>
       <r>    4.1101    1.0000 </r>
       <r>    4.2733    1.0000 </r>
       <r>    4.7042    1.0000 </r>
       <r>    4.7209    1.0000 </r>
       <r>    4.9372    1.0000 </r>
       <r>    5.6567    1.0000 </r>
       <r>    6.4179    1.0000 </r>
       <r>    6.5783    1.0000 </r>
       <r>    6.6919    1.0000 </r>
       <r>    6.9520    1.0000 </r>
       <r>    7.0198    1.0000 </r>
       <r>    7.2231    1.0000 </r>
       <r>    7.3476    1.0000 </r>
       <r>    7.7832    0.0000 </r>
       <r>    8.5357    0.0000 </r>
       <r>    9.3670    0.0000 </r>
       <r>    9.7372    0.0000 </r>
       <r>   10.1860    0.0000 </r>
       <r>   10.3888    0.0000 </r>
       <r>   10.4668    0.0000 </r>
       <r>   10.6686    0.0000 </r>
       <r>   10.7140    0.0000 </r>
       <r>   11.0284    0.0000 </r>
       <r>   11.2194    0.0000 </r>
       <r>   11.2961    0.0000 </r>
      </set>
     </set>
    </set>
   </array>
  </eigenvalues>
  <separator name="orbital magnetization" >
   <v name="MAGDIPOLOUT">      0.00000000      0.00000000      0.00000000</v>
  </separator>
  <dos>
   <i name="efermi">      7.54173637 </i>
   <total>
    <array>
     <dimension dim="1">gridpoints</dimension>
     <dimension dim="2">spin</dimension>
     <field>energy</field>
     <field>total</field>
     <field>integrated</field>
     <set>
      <set comment="spin 1">
       <r>   -59.0232     0.0000     0.0000 </r>
       <r>   -58.7763     0.0000     0.0000 </r>
       <r>   -58.5293     0.0000     0.0000 </r>
       <r>   -58.2823     0.0000     0.0000 </r>
       <r>   -58.0353     0.0000     0.0000 </r>
       <r>   -57.7883     0.0000     0.0000 </r>
       <r>   -57.5414     0.0000     0.0000 </r>
       <r>   -57.2944     0.0000     0.0000 </r>
       <r>   -57.0474     0.0000     0.0000 </r>
       <r>   -56.8004     0.0000     0.0000 </r>
       <r>   -56.5535     0.0000     0.0000 </r>
       <r>   -56.3065     0.0000     0.0000 </r>
       <r>   -56.0595     0.0000     0.0000 </r>
       <r>   -55.8125     0.0000     0.0000 </r>
       <r>   -55.5656    16.1958     4.0000 </r>
       <r>   -55.3186     0.0000     4.0000 </r>
       <r>   -55.0716    32.3915    12.0000 </r>
       <r>   -54.8246     0.0000    12.0000 </r>
       <r>   -54.5776     0.0000    12.0000 </r>
       <r>   -54.3307     0.0000    12.0000 </r>
       <r>   -54.0837     0.0000    12.0000 </r>
       <r>   -53.8367     0.0000    12.0000 </r>
       <r>   -53.5897     0.0000    12.0000 </r>
       <r>   -53.3428     0.0000    12.0000 </r>
       <r>   -53.0958     0.0000    12.0000 </r>
       <r>   -52.8488     0.0000    12.0000 </r>
       <r>   -52.6018     0.0000    12.0000 </r>
       <r>   -52.3549     0.0000    12.0000 </r>
       <r>   -52.1079     0.0000    12.0000 </r>
       <r>   -51.8609     0.0000    12.0000 </r>
       <r>   -51.6139     0.0000    12.0000 </r>
       <r>   -51.3669     0.0000    12.0000 </r>
       <r>   -51.1200     0.0000    12.0000 </r>
       <r>   -50.8730     0.0000    12.0000 </r>
       <r>   -50.6260     0.0000    12.0000 </r>
       <r>   -50.3790     0.0000    12.0000 </r>
       <r>   -50.1321     0.0000    12.0000 </r>
       <r>   -49.8851     0.0000    12.0000 </r>
       <r>   -49.6381     0.0000    12.0000 </r>
       <r>   -49.3911     0.0000    12.0000 </r>
       <r>   -49.1441     0.0000    12.0000 </r>
       <r>   -48.8972     0.0000    12.0000 </r>
       <r>   -48.6502     0.0000    12.0000 </r>
       <r>   -48.4032     0.0000    12.0000 </r>
       <r>   -48.1562     0.0000    12.0000 </r>
       <r>   -47.9093     0.0000    12.0000 </r>
       <r>   -47.6623     0.0000    12.0000 </r>
       <r>   -47.4153     0.0000    12.0000 </r>
       <r>   -47.1683     0.0000    12.0000 </r>
       <r>   -46.9214     0.0000    12.0000 </r>
       <r>   -46.6744     0.0000    12.0000 </r>
       <r>   -46.4274     0.0000    12.0000 </r>
       <r>   -46.1804     0.0000    12.0000 </r>
       <r>   -45.9334     0.0000    12.0000 </r>
       <r>   -45.6865     0.0000    12.0000 </r>
       <r>   -45.4395     0.0000    12.0000 </r>
       <r>   -45.1925     0.0000    12.0000 </r>
       <r>   -44.9455     0.0000    12.0000 </r>
       <r>   -44.6986     0.0000    12.0000 </r>
       <r>   -44.4516     0.0000    12.0000 </r>
       <r>   -44.2046     0.0000    12.0000 </r>
       <r>   -43.9576     0.0000    12.0000 </r>
       <r>   -43.7106     0.0000    12.0000 </r>
       <r>   -43.4637     0.0000    12.0000 </r>
       <r>   -43.2167     0.0000    12.0000 </r>
       <r>   -42.9697     0.0000    12.0000 </r>
       <r>   -42.7227     0.0000    12.0000 </r>
       <r>   -42.4758     0.0000    12.0000 </r>
       <r>   -42.2288     0.0000    12.0000 </r>
       <r>   -41.9818     0.0000    12.0000 </r>
       <r>   -41.7348     0.0000    12.0000 </r>
       <r>   -41.4879     0.0000    12.0000 </r>
       <r>   -41.2409     0.0000    12.0000 </r>
       <r>   -40.9939     0.0000    12.0000 </r>
       <r>   -40.7469     0.0000    12.0000 </r>
       <r>   -40.4999     0.0000    12.0000 </r>
       <r>   -40.2530     0.0000    12.0000 </r>
       <r>   -40.0060     0.0000    12.0000 </r>
       <r>   -39.7590     0.0000    12.0000 </r>
       <r>   -39.5120     0.0000    12.0000 </r>
       <r>   -39.2651     0.0000    12.0000 </r>
       <r>   -39.0181     0.0000    12.0000 </r>
       <r>   -38.7711     0.0000    12.0000 </r>
       <r>   -38.5241     0.0000    12.0000 </r>
       <r>   -38.2771     0.0000    12.0000 </r>
       <r>   -38.0302     0.0000    12.0000 </r>
       <r>   -37.7832     0.0000    12.0000 </r>
       <r>   -37.5362     0.0000    12.0000 </r>
       <r>   -37.2892     0.0000    12.0000 </r>
       <r>   -37.0423     0.0000    12.0000 </r>
       <r>   -36.7953     0.0000    12.0000 </r>
       <r>   -36.5483     0.0000    12.0000 </r>
       <r>   -36.3013     0.0000    12.0000 </r>
       <r>   -36.0544     0.0000    12.0000 </r>
       <r>   -35.8074     0.0000    12.0000 </r>
       <r>   -35.5604     0.0000    12.0000 </r>
       <r>   -35.3134     0.0000    12.0000 </r>
       <r>   -35.0664     0.0000    12.0000 </r>
       <r>   -34.8195     0.0000    12.0000 </r>
       <r>   -34.5725     0.0000    12.0000 </r>
       <r>   -34.3255     0.0000    12.0000 </r>
       <r>   -34.0785     0.0000    12.0000 </r>
       <r>   -33.8316     0.0000    12.0000 </r>
       <r>   -33.5846     0.0000    12.0000 </r>
       <r>   -33.3376     0.0000    12.0000 </r>
       <r>   -33.0906     0.0000    12.0000 </r>
       <r>   -32.8436     0.0000    12.0000 </r>
       <r>   -32.5967     0.0000    12.0000 </r>
       <r>   -32.3497     0.0000    12.0000 </r>
       <r>   -32.1027     0.0000    12.0000 </r>
       <r>   -31.8557     0.0000    12.0000 </r>
       <r>   -31.6088     0.0000    12.0000 </r>
       <r>   -31.3618     0.0000    12.0000 </r>
       <r>   -31.1148     0.0000    12.0000 </r>
       <r>   -30.8678     0.0000    12.0000 </r>
       <r>   -30.6209     0.0000    12.0000 </r>
       <r>   -30.3739     0.0000    12.0000 </r>
       <r>   -30.1269     0.0000    12.0000 </r>
       <r>   -29.8799     0.0000    12.0000 </r>
       <r>   -29.6329     0.0000    12.0000 </r>
       <r>   -29.3860     2.0921    12.5167 </r>
       <r>   -29.1390     0.0000    16.0000 </r>
       <r>   -28.8920    19.3040    24.0023 </r>
       <r>   -28.6450    28.9874    31.6286 </r>
       <r>   -28.3981     9.6244    42.3770 </r>
       <r>   -28.1511     3.7804    48.0000 </r>
       <r>   -27.9041     0.0000    48.0000 </r>
       <r>   -27.6571     0.0000    48.0000 </r>
       <r>   -27.4101     0.0000    48.0000 </r>
       <r>   -27.1632     0.0000    48.0000 </r>
       <r>   -26.9162     0.0000    48.0000 </r>
       <r>   -26.6692     0.0000    48.0000 </r>
       <r>   -26.4222     0.0000    48.0000 </r>
       <r>   -26.1753     0.0000    48.0000 </r>
       <r>   -25.9283     0.0000    48.0000 </r>
       <r>   -25.6813     0.0000    48.0000 </r>
       <r>   -25.4343     0.0000    48.0000 </r>
       <r>   -25.1874     0.0000    48.0000 </r>
       <r>   -24.9404     0.0000    48.0000 </r>
       <r>   -24.6934     0.0000    48.0000 </r>
       <r>   -24.4464     0.0000    48.0000 </r>
       <r>   -24.1994     0.0000    48.0000 </r>
       <r>   -23.9525     0.0000    48.0000 </r>
       <r>   -23.7055     0.0000    48.0000 </r>
       <r>   -23.4585     0.0000    48.0000 </r>
       <r>   -23.2115     0.0000    48.0000 </r>
       <r>   -22.9646     0.0000    48.0000 </r>
       <r>   -22.7176     0.0000    48.0000 </r>
       <r>   -22.4706     0.0000    48.0000 </r>
       <r>   -22.2236     0.0000    48.0000 </r>
       <r>   -21.9767     0.0000    48.0000 </r>
       <r>   -21.7297     0.0000    48.0000 </r>
       <r>   -21.4827     0.0000    48.0000 </r>
       <r>   -21.2357     0.0000    48.0000 </r>
       <r>   -20.9887     0.0000    48.0000 </r>
       <r>   -20.7418     0.0000    48.0000 </r>
       <r>   -20.4948     0.0000    48.0000 </r>
       <r>   -20.2478     0.0000    48.0000 </r>
       <r>   -20.0008     0.0000    48.0000 </r>
       <r>   -19.7539     0.0000    48.0000 </r>
       <r>   -19.5069     0.0000    48.0000 </r>
       <r>   -19.2599     0.0000    48.0000 </r>
       <r>   -19.0129     0.0000    48.0000 </r>
       <r>   -18.7659     0.0000    48.0000 </r>
       <r>   -18.5190     0.0000    48.0000 </r>
       <r>   -18.2720     0.0000    48.0000 </r>
       <r>   -18.0250     0.0000    48.0000 </r>
       <r>   -17.7780     0.0000    48.0000 </r>
       <r>   -17.5311     0.0000    48.0000 </r>
       <r>   -17.2841     0.0000    48.0000 </r>
       <r>   -17.0371     0.0000    48.0000 </r>
       <r>   -16.7901     0.0000    48.0000 </r>
       <r>   -16.5432     0.0000    48.0000 </r>
       <r>   -16.2962     0.0000    48.0000 </r>
       <r>   -16.0492     0.0000    48.0000 </r>
       <r>   -15.8022     0.0000    48.0000 </r>
       <r>   -15.5552     0.0000    48.0000 </r>
       <r>   -15.3083     0.0000    48.0000 </r>
       <r>   -15.0613     0.0000    48.0000 </r>
       <r>   -14.8143     0.0000    48.0000 </r>
       <r>   -14.5673     0.0000    48.0000 </r>
       <r>   -14.3204     0.0000    48.0000 </r>
       <r>   -14.0734     0.0000    48.0000 </r>
       <r>   -13.8264     0.0000    48.0000 </r>
       <r>   -13.5794     0.0000    48.0000 </r>
       <r>   -13.3324     0.0000    48.0000 </r>
       <r>   -13.0855     0.0000    48.0000 </r>
       <r>   -12.8385     0.0000    48.0000 </r>
       <r>   -12.5915     0.0000    48.0000 </r>
       <r>   -12.3445     0.0000    48.0000 </r>
       <r>   -12.0976     0.0000    48.0000 </r>
       <r>   -11.8506     0.0000    48.0000 </r>
       <r>   -11.6036     0.0000    48.0000 </r>
       <r>   -11.3566     0.0000    48.0000 </r>
       <r>   -11.1097     0.0000    48.0000 </r>
       <r>   -10.8627     0.0000    48.0000 </r>
       <r>   -10.6157     0.0000    48.0000 </r>
       <r>   -10.3687     0.0000    48.0000 </r>
       <r>   -10.1217     0.0000    48.0000 </r>
       <r>    -9.8748     0.0000    48.0000 </r>
       <r>    -9.6278     0.0000    48.0000 </r>
       <r>    -9.3808     0.0000    48.0000 </r>
       <r>    -9.1338     0.0000    48.0000 </r>
       <r>    -8.8869     0.0000    48.0000 </r>
       <r>    -8.6399     0.0000    48.0000 </r>
       <r>    -8.3929     0.0000    48.0000 </r>
       <r>    -8.1459     0.0000    48.0000 </r>
       <r>    -7.8989     0.0000    48.0000 </r>
       <r>    -7.6520     0.0000    48.0000 </r>
       <r>    -7.4050     0.0000    48.0000 </r>
       <r>    -7.1580     0.0000    48.0000 </r>
       <r>    -6.9110     0.0000    48.0000 </r>
       <r>    -6.6641     0.0000    48.0000 </r>
       <r>    -6.4171     0.0000    48.0000 </r>
       <r>    -6.1701     0.0000    48.0000 </r>
       <r>    -5.9231     0.0000    48.0000 </r>
       <r>    -5.6762     0.0000    48.0000 </r>
       <r>    -5.4292     0.0000    48.0000 </r>
       <r>    -5.1822     0.0000    48.0000 </r>
       <r>    -4.9352     0.0000    48.0000 </r>
       <r>    -4.6882     0.0000    48.0000 </r>
       <r>    -4.4413     0.0000    48.0000 </r>
       <r>    -4.1943     0.0000    48.0000 </r>
       <r>    -3.9473     0.0000    48.0000 </r>
       <r>    -3.7003     0.0205    48.0051 </r>
       <r>    -3.4534     0.2637    48.1008 </r>
       <r>    -3.2064     0.5063    48.3036 </r>
       <r>    -2.9594     0.7510    48.5579 </r>
       <r>    -2.7124     1.2066    48.9970 </r>
       <r>    -2.4654     0.9697    49.4027 </r>
       <r>    -2.2185     1.1796    49.9138 </r>
       <r>    -1.9715     1.0315    50.3364 </r>
       <r>    -1.7245     1.0622    50.7725 </r>
       <r>    -1.4775     1.0103    51.1577 </r>
       <r>    -1.2306     0.7166    51.4525 </r>
       <r>    -0.9836     0.7840    51.6834 </r>
       <r>    -0.7366     0.8764    52.0328 </r>
       <r>    -0.4896     1.6224    52.6150 </r>
       <r>    -0.2427     2.2817    53.4870 </r>
       <r>     0.0043     5.5768    55.2345 </r>
       <r>     0.2513     2.9093    56.6930 </r>
       <r>     0.4983     1.3474    57.6593 </r>
       <r>     0.7453     1.2567    58.4073 </r>
       <r>     0.9922     2.2409    59.0994 </r>
       <r>     1.2392     2.0030    59.6171 </r>
       <r>     1.4862     0.7276    60.0164 </r>
       <r>     1.7332     0.8161    60.3342 </r>
       <r>     1.9801     2.2528    61.1992 </r>
       <r>     2.2271     2.5980    62.2080 </r>
       <r>     2.4741     2.7282    63.2095 </r>
       <r>     2.7211     3.0742    64.4582 </r>
       <r>     2.9681     2.7292    65.5465 </r>
       <r>     3.2150     3.1955    66.7484 </r>
       <r>     3.4620     4.2330    68.1832 </r>
       <r>     3.7090     6.4919    70.3942 </r>
       <r>     3.9560    11.4515    74.3334 </r>
       <r>     4.2029     8.8240    78.0518 </r>
       <r>     4.4499     8.5529    81.4644 </r>
       <r>     4.6969     8.5502    84.6219 </r>
       <r>     4.9439     8.9100    88.0118 </r>
       <r>     5.1908     2.7953    89.4659 </r>
       <r>     5.4378     1.5939    90.2712 </r>
       <r>     5.6848     1.9367    90.9222 </r>
       <r>     5.9318     2.6569    91.9011 </r>
       <r>     6.1788     3.8766    93.2534 </r>
       <r>     6.4257     4.8479    95.0035 </r>
       <r>     6.6727     4.3638    96.7359 </r>
       <r>     6.9197     4.7657    98.6821 </r>
       <r>     7.1667     5.6829   100.8882 </r>
       <r>     7.4136     4.6094   102.7762 </r>
       <r>     7.6606     5.9873   104.9685 </r>
       <r>     7.9076     6.0087   107.4585 </r>
       <r>     8.1546     7.4002   110.0216 </r>
       <r>     8.4015     7.1980   112.7420 </r>
       <r>     8.6485     3.3777   114.5077 </r>
       <r>     8.8955     2.5086   115.5430 </r>
       <r>     9.1425     2.3252   116.4212 </r>
       <r>     9.3895     5.8695   118.4904 </r>
       <r>     9.6364     6.0992   120.7972 </r>
       <r>     9.8834     6.3034   122.9241 </r>
       <r>    10.1304     4.1811   124.3286 </r>
       <r>    10.3774     4.0447   125.9785 </r>
       <r>    10.6243     5.4915   128.1216 </r>
       <r>    10.8713     4.3354   129.9381 </r>
       <r>    11.1183     2.6074   131.1031 </r>
       <r>    11.3653     1.9652   131.8731 </r>
       <r>    11.6123     0.0413   131.9949 </r>
       <r>    11.8592     0.0207   132.0000 </r>
       <r>    12.1062     0.0000   132.0000 </r>
       <r>    12.3532     0.0000   132.0000 </r>
       <r>    12.6002     0.0000   132.0000 </r>
       <r>    12.8471     0.0000   132.0000 </r>
       <r>    13.0941     0.0000   132.0000 </r>
       <r>    13.3411     0.0000   132.0000 </r>
       <r>    13.5881     0.0000   132.0000 </r>
       <r>    13.8350     0.0000   132.0000 </r>
       <r>    14.0820     0.0000   132.0000 </r>
       <r>    14.3290     0.0000   132.0000 </r>
       <r>    14.5760     0.0000   132.0000 </r>
       <r>    14.8230     0.0000   132.0000 </r>
       <r>    15.0699     0.0000   132.0000 </r>
      </set>
     </set>
    </array>
   </total>
  </dos>
 </calculation>
 <structure name="finalpos" >
  <crystal>
   <varray name="basis" >
    <v>       5.62868910       0.00000000      -3.01681190 </v>
    <v>      -2.01685053       5.25494576      -3.01681190 </v>
    <v>       0.00000000       0.00000000       6.38618000 </v>
   </varray>
   <i name="volume">    188.89334339 </i>
   <varray name="rec_basis" >
    <v>       0.17766126       0.06818647       0.00000000 </v>
    <v>       0.00000000       0.19029692       0.00000000 </v>
    <v>       0.08392664       0.12210676       0.15658813 </v>
   </varray>
  </crystal>
  <varray name="positions" >
   <v>       0.74563000       0.24563000       0.99126000 </v>
   <v>       0.25437000       0.75437000       0.00874000 </v>
   <v>       0.24563000       0.25437000       0.50000000 </v>
   <v>       0.75437000       0.74563000       0.50000000 </v>
   <v>       0.00000000       0.50000000       0.00000000 </v>
   <v>       0.50000000       0.50000000       0.00000000 </v>
   <v>       0.50000000       0.50000000       0.50000000 </v>
   <v>       0.50000000       0.00000000       0.00000000 </v>
   <v>       0.00000000       0.00000000       0.50000000 </v>
   <v>       0.00000000       0.00000000       0.00000000 </v>
   <v>       0.25000000       0.25000000       0.00000000 </v>
   <v>       0.75000000       0.75000000       0.00000000 </v>
  </varray>
 </structure>
</modeling>
