<?xml version="1.0" encoding="ISO-8859-1"?>
<modeling>
 <generator>
  <i name="program" type="string">vasp </i>
  <i name="version" type="string">6.2.0  </i>
  <i name="subversion" type="string">18Jan21 (build Jan 05 2022 15:41:44) complex                          parallel </i>
  <i name="platform" type="string">LinuxIFC </i>
  <i name="date" type="string">2025 05 07 </i>
  <i name="time" type="string">19:51:42 </i>
 </generator>
 <incar>
  <i type="string" name="SYSTEM">routine with relax: pwdword</i>
  <i type="string" name="PREC">Acc</i>
  <i type="int" name="IALGO">    38</i>
  <i type="string" name="ALGO">A</i>
  <i type="logical" name="ADDGRID"> T  </i>
  <i type="int" name="ICHARG">     2</i>
  <i type="int" name="NELM">   100</i>
  <i type="int" name="NELMIN">     6</i>
  <i name="EDIFF">      0.00000000</i>
  <i type="int" name="NSW">     0</i>
  <i type="int" name="ISIF">    -1</i>
  <i name="SYMPREC">      0.00010000</i>
  <i name="ENCUT">    600.00000000</i>
  <i type="logical" name="LREAL"> F  </i>
  <i type="int" name="ISMEAR">     0</i>
  <i name="SIGMA">      0.02000000</i>
  <i type="logical" name="LASPH"> T  </i>
  <i type="string" name="METAGGA">R2SCAN</i>
  <i type="logical" name="LMIXTAU"> F  </i>
 </incar>
 <primitive_cell>
  <structure name="primitive_cell" >
   <crystal>
    <varray name="basis" >
     <v>       5.42460982       0.00000000      -3.14681359 </v>
     <v>      -1.79970206       5.11736887      -3.14681359 </v>
     <v>       0.00000000       0.00000000       6.27127000 </v>
    </varray>
    <i name="volume">    174.08875829 </i>
    <varray name="rec_basis" >
     <v>       0.18434506       0.06483140       0.00000000 </v>
     <v>       0.00000000       0.19541292       0.00000000 </v>
     <v>       0.09250112       0.13058605       0.15945733 </v>
    </varray>
   </crystal>
   <varray name="positions" >
    <v>       0.50000000       0.00000000       0.50000000 </v>
    <v>       0.00000000       0.50000000       0.50000000 </v>
    <v>       0.50000000       0.50000000       0.50000000 </v>
    <v>       0.24842000       0.74842000       0.99685000 </v>
    <v>       0.75158000       0.25158000       0.00315000 </v>
    <v>       0.50000000       0.00000000       1.00000000 </v>
    <v>       0.74842000       0.75158000       0.50000000 </v>
    <v>       0.25158000       0.24842000       0.50000000 </v>
    <v>       0.00000000       0.00000000       0.50000000 </v>
    <v>       0.00000000       0.50000000       1.00000000 </v>
    <v>       0.25000000       0.25000000       1.00000000 </v>
    <v>       0.75000000       0.75000000       1.00000000 </v>
   </varray>
  </structure>
  <varray name="primitive_index" >
   <v type="int" >        1 </v>
   <v type="int" >        2 </v>
   <v type="int" >        3 </v>
   <v type="int" >        4 </v>
   <v type="int" >        5 </v>
   <v type="int" >        6 </v>
   <v type="int" >        7 </v>
   <v type="int" >        8 </v>
   <v type="int" >        9 </v>
   <v type="int" >       10 </v>
   <v type="int" >       11 </v>
   <v type="int" >       12 </v>
  </varray>
 </primitive_cell>
 <kpoints>
  <generation param="Gamma">
   <v type="int" name="divisions">       7        7        8 </v>
   <v name="usershift">      0.00000000       0.00000000       0.00000000 </v>
   <v name="genvec1">      0.14285714       0.00000000       0.00000000 </v>
   <v name="genvec2">      0.00000000       0.14285714       0.00000000 </v>
   <v name="genvec3">     -0.00000000      -0.00000000       0.12500000 </v>
   <v name="shift">      0.00000000       0.00000000       0.00000000 </v>
  </generation>
  <varray name="kpointlist" >
   <v>       0.00000000       0.00000000       0.00000000 </v>
   <v>       0.14285714       0.00000000       0.00000000 </v>
   <v>       0.28571429       0.00000000       0.00000000 </v>
   <v>       0.42857143       0.00000000       0.00000000 </v>
   <v>       0.14285714       0.14285714       0.00000000 </v>
   <v>       0.28571429       0.14285714       0.00000000 </v>
   <v>       0.42857143       0.14285714       0.00000000 </v>
   <v>      -0.42857143       0.14285714       0.00000000 </v>
   <v>      -0.28571429       0.14285714       0.00000000 </v>
   <v>      -0.14285714       0.14285714       0.00000000 </v>
   <v>       0.28571429       0.28571429       0.00000000 </v>
   <v>       0.42857143       0.28571429       0.00000000 </v>
   <v>      -0.42857143       0.28571429       0.00000000 </v>
   <v>      -0.28571429       0.28571429       0.00000000 </v>
   <v>       0.42857143       0.42857143       0.00000000 </v>
   <v>      -0.42857143       0.42857143       0.00000000 </v>
   <v>       0.00000000       0.00000000       0.12500000 </v>
   <v>       0.14285714      -0.00000000       0.12500000 </v>
   <v>       0.28571429       0.00000000       0.12500000 </v>
   <v>       0.42857143       0.00000000       0.12500000 </v>
   <v>      -0.42857143       0.00000000       0.12500000 </v>
   <v>      -0.28571429       0.00000000       0.12500000 </v>
   <v>      -0.14285714       0.00000000       0.12500000 </v>
   <v>       0.14285714       0.14285714       0.12500000 </v>
   <v>       0.28571429       0.14285714       0.12500000 </v>
   <v>       0.42857143       0.14285714       0.12500000 </v>
   <v>      -0.42857143       0.14285714       0.12500000 </v>
   <v>      -0.28571429       0.14285714       0.12500000 </v>
   <v>      -0.14285714       0.14285714       0.12500000 </v>
   <v>       0.28571429       0.28571429       0.12500000 </v>
   <v>       0.42857143       0.28571429       0.12500000 </v>
   <v>      -0.42857143       0.28571429       0.12500000 </v>
   <v>      -0.28571429       0.28571429       0.12500000 </v>
   <v>      -0.14285714       0.28571429       0.12500000 </v>
   <v>       0.42857143       0.42857143       0.12500000 </v>
   <v>      -0.42857143       0.42857143       0.12500000 </v>
   <v>      -0.28571429       0.42857143       0.12500000 </v>
   <v>      -0.14285714       0.42857143       0.12500000 </v>
   <v>      -0.42857143      -0.42857143       0.12500000 </v>
   <v>      -0.28571429      -0.42857143       0.12500000 </v>
   <v>      -0.14285714      -0.42857143       0.12500000 </v>
   <v>      -0.28571429      -0.28571429       0.12500000 </v>
   <v>      -0.14285714      -0.28571429       0.12500000 </v>
   <v>      -0.14285714      -0.14285714       0.12500000 </v>
   <v>       0.00000000       0.00000000       0.25000000 </v>
   <v>       0.14285714       0.00000000       0.25000000 </v>
   <v>       0.28571429       0.00000000       0.25000000 </v>
   <v>       0.42857143       0.00000000       0.25000000 </v>
   <v>      -0.42857143       0.00000000       0.25000000 </v>
   <v>      -0.28571429       0.00000000       0.25000000 </v>
   <v>      -0.14285714       0.00000000       0.25000000 </v>
   <v>       0.14285714       0.14285714       0.25000000 </v>
   <v>       0.28571429       0.14285714       0.25000000 </v>
   <v>       0.42857143       0.14285714       0.25000000 </v>
   <v>      -0.42857143       0.14285714       0.25000000 </v>
   <v>      -0.28571429       0.14285714       0.25000000 </v>
   <v>      -0.14285714       0.14285714       0.25000000 </v>
   <v>       0.28571429       0.28571429       0.25000000 </v>
   <v>       0.42857143       0.28571429       0.25000000 </v>
   <v>      -0.42857143       0.28571429       0.25000000 </v>
   <v>      -0.28571429       0.28571429       0.25000000 </v>
   <v>      -0.14285714       0.28571429       0.25000000 </v>
   <v>       0.42857143       0.42857143       0.25000000 </v>
   <v>      -0.42857143       0.42857143       0.25000000 </v>
   <v>      -0.28571429       0.42857143       0.25000000 </v>
   <v>      -0.14285714       0.42857143       0.25000000 </v>
   <v>      -0.42857143      -0.42857143       0.25000000 </v>
   <v>      -0.28571429      -0.42857143       0.25000000 </v>
   <v>      -0.14285714      -0.42857143       0.25000000 </v>
   <v>      -0.28571429      -0.28571429       0.25000000 </v>
   <v>      -0.14285714      -0.28571429       0.25000000 </v>
   <v>      -0.14285714      -0.14285714       0.25000000 </v>
   <v>       0.00000000       0.00000000       0.37500000 </v>
   <v>       0.14285714       0.00000000       0.37500000 </v>
   <v>       0.28571429       0.00000000       0.37500000 </v>
   <v>       0.42857143       0.00000000       0.37500000 </v>
   <v>      -0.42857143       0.00000000       0.37500000 </v>
   <v>      -0.28571429       0.00000000       0.37500000 </v>
   <v>      -0.14285714       0.00000000       0.37500000 </v>
   <v>       0.14285714       0.14285714       0.37500000 </v>
   <v>       0.28571429       0.14285714       0.37500000 </v>
   <v>       0.42857143       0.14285714       0.37500000 </v>
   <v>      -0.42857143       0.14285714       0.37500000 </v>
   <v>      -0.28571429       0.14285714       0.37500000 </v>
   <v>      -0.14285714       0.14285714       0.37500000 </v>
   <v>       0.28571429       0.28571429       0.37500000 </v>
   <v>       0.42857143       0.28571429       0.37500000 </v>
   <v>      -0.42857143       0.28571429       0.37500000 </v>
   <v>      -0.28571429       0.28571429       0.37500000 </v>
   <v>      -0.14285714       0.28571429       0.37500000 </v>
   <v>       0.42857143       0.42857143       0.37500000 </v>
   <v>      -0.42857143       0.42857143       0.37500000 </v>
   <v>      -0.28571429       0.42857143       0.37500000 </v>
   <v>      -0.14285714       0.42857143       0.37500000 </v>
   <v>      -0.42857143      -0.42857143       0.37500000 </v>
   <v>      -0.28571429      -0.42857143       0.37500000 </v>
   <v>      -0.14285714      -0.42857143       0.37500000 </v>
   <v>      -0.28571429      -0.28571429       0.37500000 </v>
   <v>      -0.14285714      -0.28571429       0.37500000 </v>
   <v>      -0.14285714      -0.14285714       0.37500000 </v>
   <v>       0.00000000       0.00000000       0.50000000 </v>
   <v>       0.14285714       0.00000000       0.50000000 </v>
   <v>       0.28571429       0.00000000       0.50000000 </v>
   <v>       0.42857143       0.00000000       0.50000000 </v>
   <v>       0.14285714       0.14285714       0.50000000 </v>
   <v>       0.28571429       0.14285714       0.50000000 </v>
   <v>       0.42857143       0.14285714       0.50000000 </v>
   <v>      -0.42857143       0.14285714       0.50000000 </v>
   <v>      -0.28571429       0.14285714       0.50000000 </v>
   <v>      -0.14285714       0.14285714       0.50000000 </v>
   <v>       0.28571429       0.28571429       0.50000000 </v>
   <v>       0.42857143       0.28571429       0.50000000 </v>
   <v>      -0.42857143       0.28571429       0.50000000 </v>
   <v>      -0.28571429       0.28571429       0.50000000 </v>
   <v>       0.42857143       0.42857143       0.50000000 </v>
   <v>      -0.42857143       0.42857143       0.50000000 </v>
  </varray>
  <varray name="weights" >
   <v>       0.00255102 </v>
   <v>       0.01020408 </v>
   <v>       0.01020408 </v>
   <v>       0.01020408 </v>
   <v>       0.00510204 </v>
   <v>       0.01020408 </v>
   <v>       0.01020408 </v>
   <v>       0.01020408 </v>
   <v>       0.01020408 </v>
   <v>       0.00510204 </v>
   <v>       0.00510204 </v>
   <v>       0.01020408 </v>
   <v>       0.01020408 </v>
   <v>       0.00510204 </v>
   <v>       0.00510204 </v>
   <v>       0.00510204 </v>
   <v>       0.00510204 </v>
   <v>       0.01020408 </v>
   <v>       0.01020408 </v>
   <v>       0.01020408 </v>
   <v>       0.01020408 </v>
   <v>       0.01020408 </v>
   <v>       0.01020408 </v>
   <v>       0.00510204 </v>
   <v>       0.01020408 </v>
   <v>       0.01020408 </v>
   <v>       0.01020408 </v>
   <v>       0.01020408 </v>
   <v>       0.01020408 </v>
   <v>       0.00510204 </v>
   <v>       0.01020408 </v>
   <v>       0.01020408 </v>
   <v>       0.01020408 </v>
   <v>       0.01020408 </v>
   <v>       0.00510204 </v>
   <v>       0.01020408 </v>
   <v>       0.01020408 </v>
   <v>       0.01020408 </v>
   <v>       0.00510204 </v>
   <v>       0.01020408 </v>
   <v>       0.01020408 </v>
   <v>       0.00510204 </v>
   <v>       0.01020408 </v>
   <v>       0.00510204 </v>
   <v>       0.00510204 </v>
   <v>       0.01020408 </v>
   <v>       0.01020408 </v>
   <v>       0.01020408 </v>
   <v>       0.01020408 </v>
   <v>       0.01020408 </v>
   <v>       0.01020408 </v>
   <v>       0.00510204 </v>
   <v>       0.01020408 </v>
   <v>       0.01020408 </v>
   <v>       0.01020408 </v>
   <v>       0.01020408 </v>
   <v>       0.01020408 </v>
   <v>       0.00510204 </v>
   <v>       0.01020408 </v>
   <v>       0.01020408 </v>
   <v>       0.01020408 </v>
   <v>       0.01020408 </v>
   <v>       0.00510204 </v>
   <v>       0.01020408 </v>
   <v>       0.01020408 </v>
   <v>       0.01020408 </v>
   <v>       0.00510204 </v>
   <v>       0.01020408 </v>
   <v>       0.01020408 </v>
   <v>       0.00510204 </v>
   <v>       0.01020408 </v>
   <v>       0.00510204 </v>
   <v>       0.00510204 </v>
   <v>       0.01020408 </v>
   <v>       0.01020408 </v>
   <v>       0.01020408 </v>
   <v>       0.01020408 </v>
   <v>       0.01020408 </v>
   <v>       0.01020408 </v>
   <v>       0.00510204 </v>
   <v>       0.01020408 </v>
   <v>       0.01020408 </v>
   <v>       0.01020408 </v>
   <v>       0.01020408 </v>
   <v>       0.01020408 </v>
   <v>       0.00510204 </v>
   <v>       0.01020408 </v>
   <v>       0.01020408 </v>
   <v>       0.01020408 </v>
   <v>       0.01020408 </v>
   <v>       0.00510204 </v>
   <v>       0.01020408 </v>
   <v>       0.01020408 </v>
   <v>       0.01020408 </v>
   <v>       0.00510204 </v>
   <v>       0.01020408 </v>
   <v>       0.01020408 </v>
   <v>       0.00510204 </v>
   <v>       0.01020408 </v>
   <v>       0.00510204 </v>
   <v>       0.00255102 </v>
   <v>       0.01020408 </v>
   <v>       0.01020408 </v>
   <v>       0.01020408 </v>
   <v>       0.00510204 </v>
   <v>       0.01020408 </v>
   <v>       0.01020408 </v>
   <v>       0.01020408 </v>
   <v>       0.01020408 </v>
   <v>       0.00510204 </v>
   <v>       0.00510204 </v>
   <v>       0.01020408 </v>
   <v>       0.01020408 </v>
   <v>       0.00510204 </v>
   <v>       0.00510204 </v>
   <v>       0.00510204 </v>
  </varray>
 </kpoints>
 <parameters>
  <separator name="general" >
   <i type="string" name="SYSTEM">routine with relax: pwdword</i>
   <i type="logical" name="LCOMPAT"> F  </i>
  </separator>
  <separator name="electronic" >
   <i type="string" name="PREC">acc</i>
   <i name="ENMAX">    600.00000000</i>
   <i name="ENAUG">    535.51400000</i>
   <i name="EDIFF">      0.00000000</i>
   <i type="int" name="IALGO">    58</i>
   <i type="int" name="IWAVPR">    10</i>
   <i type="int" name="NBANDS">    78</i>
   <i type="int" name="NBANDSLOW">    -1</i>
   <i type="int" name="NBANDSHIGH">    -1</i>
   <i name="NELECT">    126.00000000</i>
   <i type="int" name="TURBO">     0</i>
   <i type="int" name="IRESTART">     0</i>
   <i type="int" name="NREBOOT">     0</i>
   <i type="int" name="NMIN">     0</i>
   <i name="EREF">      0.00000000</i>
   <separator name="electronic smearing" >
    <i type="int" name="ISMEAR">     0</i>
    <i name="SIGMA">      0.02000000</i>
    <i name="KSPACING">      0.50000000</i>
    <i type="logical" name="KGAMMA"> T  </i>
    <i type="logical" name="KBLOWUP"> F  </i>
   </separator>
   <separator name="electronic projectors" >
    <i type="logical" name="LREAL"> F  </i>
    <v name="ROPT">      0.00000000      0.00000000      0.00000000</v>
    <i type="int" name="LMAXPAW">  -100</i>
    <i type="int" name="LMAXMIX">     2</i>
    <i type="logical" name="NLSPLINE"> F  </i>
   </separator>
   <separator name="electronic startup" >
    <i type="int" name="ISTART">     0</i>
    <i type="int" name="ICHARG">     2</i>
    <i type="int" name="INIWAV">     1</i>
   </separator>
   <separator name="electronic spin" >
    <i type="int" name="ISPIN">     1</i>
    <i type="logical" name="LNONCOLLINEAR"> F  </i>
    <v name="MAGMOM">      1.00000000      1.00000000      1.00000000      1.00000000      1.00000000      1.00000000      1.00000000      1.00000000      1.00000000      1.00000000      1.00000000      1.00000000</v>
    <i name="NUPDOWN">     -1.00000000</i>
    <i type="logical" name="LSORBIT"> F  </i>
    <v name="SAXIS">      0.00000000      0.00000000      1.00000000</v>
    <i type="logical" name="LSPIRAL"> F  </i>
    <v name="QSPIRAL">      0.00000000      0.00000000      0.00000000</v>
    <i type="logical" name="LZEROZ"> F  </i>
   </separator>
   <separator name="electronic exchange-correlation" >
    <i type="logical" name="LASPH"> T  </i>
    <i type="logical" name="LMETAGGA"> F  </i>
   </separator>
   <separator name="electronic convergence" >
    <i type="int" name="NELM">   100</i>
    <i type="int" name="NELMDL">    -5</i>
    <i type="int" name="NELMIN">     6</i>
    <i name="ENINI">    600.00000000</i>
    <separator name="electronic convergence detail" >
     <i type="logical" name="LDIAG"> T  </i>
     <i type="logical" name="LSUBROT"> F  </i>
     <i name="WEIMIN">      0.00000000</i>
     <i name="EBREAK">      0.00000000</i>
     <i name="DEPER">      0.30000000</i>
     <i type="int" name="NRMM">     4</i>
     <i name="TIME">      0.40000000</i>
    </separator>
   </separator>
   <separator name="electronic mixer" >
    <i name="AMIX">      0.40000000</i>
    <i name="BMIX">      1.00000000</i>
    <i name="AMIN">      0.10000000</i>
    <i name="AMIX_MAG">      1.60000000</i>
    <i name="BMIX_MAG">      1.00000000</i>
    <separator name="electronic mixer details" >
     <i type="int" name="IMIX">     4</i>
     <i type="logical" name="MIXFIRST"> F  </i>
     <i type="int" name="MAXMIX">   -45</i>
     <i name="WC">    100.00000000</i>
     <i type="int" name="INIMIX">     1</i>
     <i type="int" name="MIXPRE">     1</i>
     <i type="int" name="MREMOVE">     5</i>
    </separator>
   </separator>
   <separator name="electronic dipolcorrection" >
    <i type="logical" name="LDIPOL"> F  </i>
    <i type="logical" name="LMONO"> F  </i>
    <i type="int" name="IDIPOL">     0</i>
    <i name="EPSILON">      1.00000000</i>
    <v name="DIPOL">   -100.00000000   -100.00000000   -100.00000000</v>
    <i name="EFIELD">      0.00000000</i>
   </separator>
  </separator>
  <separator name="grids" >
   <i type="int" name="NGX">    50</i>
   <i type="int" name="NGY">    50</i>
   <i type="int" name="NGZ">    50</i>
   <i type="int" name="NGXF">   100</i>
   <i type="int" name="NGYF">   100</i>
   <i type="int" name="NGZF">   100</i>
   <i type="logical" name="ADDGRID"> T  </i>
  </separator>
  <separator name="ionic" >
   <i type="int" name="NSW">     0</i>
   <i type="int" name="IBRION">    -1</i>
   <i type="int" name="MDALGO">     0</i>
   <i type="int" name="ISIF">    -1</i>
   <i name="PSTRESS">      0.00000000</i>
   <i name="EDIFFG">      0.00000001</i>
   <i type="int" name="NFREE">     0</i>
   <i name="POTIM">      0.50000000</i>
   <i name="SMASS">     -3.00000000</i>
   <i name="SCALEE">      1.00000000</i>
  </separator>
  <separator name="ionic md" >
   <i name="TEBEG">      0.00010000</i>
   <i name="TEEND">      0.00010000</i>
   <i type="int" name="NBLOCK">     1</i>
   <i type="int" name="KBLOCK">     1</i>
   <i type="int" name="NPACO">   256</i>
   <i name="APACO">     16.00000000</i>
  </separator>
  <separator name="symmetry" >
   <i type="int" name="ISYM">     2</i>
   <i name="SYMPREC">      0.00010000</i>
  </separator>
  <separator name="dos" >
   <i type="int" name="LORBIT">     0</i>
   <v name="RWIGS">     -1.00000000     -1.00000000     -1.00000000</v>
   <i type="int" name="NEDOS">   301</i>
   <i name="EMIN">     10.00000000</i>
   <i name="EMAX">    -10.00000000</i>
   <i name="EFERMI">      0.00000000</i>
  </separator>
  <separator name="writing" >
   <i type="int" name="NWRITE">     2</i>
   <i type="logical" name="LWAVE"> T  </i>
   <i type="logical" name="LDOWNSAMPLE"> F  </i>
   <i type="logical" name="LCHARG"> T  </i>
   <i type="logical" name="LPARD"> F  </i>
   <i type="logical" name="LVTOT"> F  </i>
   <i type="logical" name="LVHAR"> F  </i>
   <i type="logical" name="LELF"> F  </i>
   <i type="logical" name="LOPTICS"> F  </i>
   <v name="STM">      0.00000000      0.00000000      0.00000000      0.00000000      0.00000000      0.00000000      0.00000000</v>
  </separator>
  <separator name="performance" >
   <i type="int" name="NPAR">     6</i>
   <i type="int" name="NSIM">     4</i>
   <i type="int" name="NBLK">    -1</i>
   <i type="logical" name="LPLANE"> T  </i>
   <i type="logical" name="LSCALAPACK"> T  </i>
   <i type="logical" name="LSCAAWARE"> F  </i>
   <i type="logical" name="LSCALU"> F  </i>
   <i type="logical" name="LASYNC"> F  </i>
   <i type="logical" name="LORBITALREAL"> F  </i>
  </separator>
  <separator name="miscellaneous" >
   <i type="int" name="IDIOT">     3</i>
   <i type="int" name="PHON_NSTRUCT">    -1</i>
   <i type="logical" name="LMUSIC"> F  </i>
   <v name="POMASS">     10.81100000     95.94000000     28.08500000</v>
   <v name="DARWINR">      0.00000000      0.00000000      0.00000000</v>
   <v name="DARWINV">      1.00000000      1.00000000      1.00000000</v>
   <i type="logical" name="LCORR"> T  </i>
  </separator>
  <i type="logical" name="GGA_COMPAT"> T  </i>
  <i type="logical" name="LBERRY"> F  </i>
  <i type="int" name="ICORELEVEL">     0</i>
  <i type="logical" name="LDAU"> F  </i>
  <i type="int" name="I_CONSTRAINED_M">     0</i>
  <separator name="electronic exchange-correlation" >
   <i type="string" name="GGA">--</i>
   <i type="int" name="VOSKOWN">     0</i>
   <i type="logical" name="LHFCALC"> F  </i>
   <i type="string" name="PRECFOCK"></i>
   <i type="logical" name="LSYMGRAD"> F  </i>
   <i type="logical" name="LHFONE"> F  </i>
   <i type="logical" name="LRHFCALC"> F  </i>
   <i type="logical" name="LTHOMAS"> F  </i>
   <i type="logical" name="LMODELHF"> F  </i>
   <i type="logical" name="LFOCKACE"> F  </i>
   <i name="ENCUT4O">     -1.00000000</i>
   <i type="int" name="EXXOEP">     0</i>
   <i type="int" name="FOURORBIT">     0</i>
   <i name="AEXX">      0.00000000</i>
   <i name="HFALPHA">      0.00000000</i>
   <i name="MCALPHA">      0.00000000</i>
   <i name="ALDAX">      1.00000000</i>
   <i name="AGGAX">      1.00000000</i>
   <i name="ALDAC">      1.00000000</i>
   <i name="AGGAC">      1.00000000</i>
   <i type="int" name="NKREDX">     1</i>
   <i type="int" name="NKREDY">     1</i>
   <i type="int" name="NKREDZ">     1</i>
   <i type="logical" name="SHIFTRED"> F  </i>
   <i type="logical" name="ODDONLY"> F  </i>
   <i type="logical" name="EVENONLY"> F  </i>
   <i type="int" name="LMAXFOCK">     0</i>
   <i type="int" name="NMAXFOCKAE">     0</i>
   <i type="logical" name="LFOCKAEDFT"> F  </i>
   <i name="HFSCREEN">      0.00000000</i>
   <i name="HFSCREENC">      0.00000000</i>
   <i type="int" name="NBANDSGWLOW">     0</i>
  </separator>
  <separator name="vdW DFT" >
   <i type="logical" name="LUSE_VDW"> F  </i>
   <i name="Zab_VDW">     -0.84910000</i>
   <i name="PARAM1">      0.12340000</i>
   <i name="PARAM2">      1.00000000</i>
   <i name="PARAM3">      0.00000000</i>
  </separator>
  <separator name="model GW" >
   <i type="int" name="MODEL_GW">     0</i>
   <i name="MODEL_EPS0">      8.70443791</i>
   <i name="MODEL_ALPHA">      1.00000000</i>
  </separator>
  <separator name="linear response parameters" >
   <i type="logical" name="LEPSILON"> F  </i>
   <i type="logical" name="LRPA"> F  </i>
   <i type="logical" name="LNABLA"> F  </i>
   <i type="logical" name="LVEL"> F  </i>
   <i type="int" name="KINTER">     0</i>
   <i name="CSHIFT">      0.10000000</i>
   <i name="OMEGAMAX">     -1.00000000</i>
   <i name="DEG_THRESHOLD">      0.00200000</i>
   <i name="RTIME">     -0.10000000</i>
   <i name="WPLASMAI">      0.00000000</i>
   <v name="DFIELD">      0.00000000      0.00000000      0.00000000</v>
   <v name="WPLASMA">      0.00000000      0.00000000      0.00000000      0.00000000      0.00000000      0.00000000      0.00000000      0.00000000      0.00000000</v>
  </separator>
  <separator name="orbital magnetization" >
   <i type="logical" name="NUCIND"> F  </i>
   <v name="MAGPOS">      0.00000000      0.00000000      0.00000000</v>
   <i type="logical" name="LNICSALL"> T  </i>
   <i type="logical" name="ORBITALMAG"> F  </i>
   <i type="logical" name="LMAGBLOCH"> F  </i>
   <i type="logical" name="LCHIMAG"> F  </i>
   <i type="logical" name="LGAUGE"> T  </i>
   <i type="int" name="MAGATOM">     0</i>
   <v name="MAGDIPOL">      0.00000000      0.00000000      0.00000000</v>
   <v name="AVECCONST">      0.00000000      0.00000000      0.00000000</v>
  </separator>
  <separator name="response functions" >
   <i type="logical" name="LFINITE_TEMPERATURE"> F  </i>
   <i type="logical" name="LADDER"> F  </i>
   <i type="logical" name="LRPAFORCE"> F  </i>
   <i type="logical" name="LFXC"> F  </i>
   <i type="logical" name="LHARTREE"> T  </i>
   <i type="int" name="IBSE">     0</i>
   <v type="int" name="KPOINT">    -1     0     0     0</v>
   <i type="logical" name="LTCTC"> F  </i>
   <i type="logical" name="LTCTE"> F  </i>
   <i type="logical" name="LTETE"> F  </i>
   <i type="logical" name="LTRIPLET"> F  </i>
   <i type="logical" name="LFXCEPS"> F  </i>
   <i type="logical" name="LFXHEG"> F  </i>
   <i type="int" name="NATURALO">     2</i>
   <i type="logical" name="LHOLEGF"> F  </i>
   <i type="logical" name="L2ORDER"> F  </i>
   <i type="logical" name="LDMP1"> F  </i>
   <i type="logical" name="LMP2LT"> F  </i>
   <i type="logical" name="LSMP2LT"> F  </i>
   <i type="logical" name="LGWLF"> F  </i>
   <i name="ENCUTGW">     -2.00000000</i>
   <i name="ENCUTGWSOFT">     -2.00000000</i>
   <i name="ENCUTLF">     -1.00000000</i>
   <i type="logical" name="LESF_SPLINES"> F  </i>
   <i type="int" name="LMAXMP2">    -1</i>
   <i name="SCISSOR">      0.00000000</i>
   <i type="int" name="NOMEGA">     0</i>
   <i type="int" name="NOMEGAR">     0</i>
   <i type="int" name="NBANDSGW">    -1</i>
   <i type="int" name="NBANDSO">    -1</i>
   <i type="int" name="NBANDSV">    -1</i>
   <i type="int" name="NELM">   100</i>
   <i type="int" name="NELMHF">     1</i>
   <i type="int" name="DIM">     3</i>
   <i type="int" name="IESPILON">     4</i>
   <i type="int" name="ANTIRES">     0</i>
   <i name="OMEGAMAX">    -30.00000000</i>
   <i name="OMEGAMIN">    -30.00000000</i>
   <i name="OMEGATL">   -200.00000000</i>
   <i type="int" name="OMEGAGRID">     0</i>
   <i name="CSHIFT">     -0.10000000</i>
   <i type="logical" name="LSELFENERGY"> F  </i>
   <i type="logical" name="LSPECTRAL"> F  </i>
   <i type="logical" name="LSPECTRALGW"> F  </i>
   <i type="logical" name="LSINGLES"> F  </i>
   <i type="logical" name="LFERMIGW"> F  </i>
   <i type="logical" name="ODDONLYGW"> F  </i>
   <i type="logical" name="EVENONLYGW"> F  </i>
   <i type="int" name="NKREDLFX">     1</i>
   <i type="int" name="NKREDLFY">     1</i>
   <i type="int" name="NKREDLFZ">     1</i>
   <i type="int" name="MAXMEM">  2800</i>
   <i type="int" name="TELESCOPE">     0</i>
   <i type="int" name="NTAUPAR">    -1</i>
   <i type="int" name="NOMEGAPAR">    -1</i>
   <i name="DAMP_NEWTON">      0.80000001</i>
   <i name="LAMBDA">      1.00000000</i>
  </separator>
  <separator name="External order field" >
   <i name="OFIELD_KAPPA">      0.00000000</i>
   <v name="OFIELD_K">      0.00000000      0.00000000      0.00000000</v>
   <i name="OFIELD_Q6_NEAR">      0.00000000</i>
   <i name="OFIELD_Q6_FAR">      0.00000000</i>
   <i name="OFIELD_A">      0.00000000</i>
  </separator>
 </parameters>
 <atominfo>
  <atoms>      12 </atoms>
  <types>       3 </types>
  <array name="atoms" >
   <dimension dim="1">ion</dimension>
   <field type="string">element</field>
   <field type="int">atomtype</field>
   <set>
    <rc><c>B </c><c>   1</c></rc>
    <rc><c>B </c><c>   1</c></rc>
    <rc><c>Mo</c><c>   2</c></rc>
    <rc><c>Mo</c><c>   2</c></rc>
    <rc><c>Mo</c><c>   2</c></rc>
    <rc><c>Mo</c><c>   2</c></rc>
    <rc><c>Mo</c><c>   2</c></rc>
    <rc><c>Mo</c><c>   2</c></rc>
    <rc><c>Mo</c><c>   2</c></rc>
    <rc><c>Mo</c><c>   2</c></rc>
    <rc><c>Si</c><c>   3</c></rc>
    <rc><c>Si</c><c>   3</c></rc>
   </set>
  </array>
  <array name="atomtypes" >
   <dimension dim="1">type</dimension>
   <field type="int">atomspertype</field>
   <field type="string">element</field>
   <field>mass</field>
   <field>valence</field>
   <field type="string">pseudopotential</field>
   <set>
    <rc><c>   2</c><c>B </c><c>     10.81100000</c><c>      3.00000000</c><c>  PAW_PBE B 06Sep2000                   </c></rc>
    <rc><c>   8</c><c>Mo</c><c>     95.94000000</c><c>     14.00000000</c><c>  PAW_PBE Mo_sv 02Feb2006               </c></rc>
    <rc><c>   2</c><c>Si</c><c>     28.08500000</c><c>      4.00000000</c><c>  PAW_PBE Si 05Jan2001                  </c></rc>
   </set>
  </array>
 </atominfo>
 <structure name="initialpos" >
  <crystal>
   <varray name="basis" >
    <v>       5.42460982       0.00000000      -3.14681359 </v>
    <v>      -1.79970206       5.11736887      -3.14681359 </v>
    <v>       0.00000000       0.00000000       6.27127000 </v>
   </varray>
   <i name="volume">    174.08875829 </i>
   <varray name="rec_basis" >
    <v>       0.18434506       0.06483140       0.00000000 </v>
    <v>       0.00000000       0.19541292       0.00000000 </v>
    <v>       0.09250112       0.13058605       0.15945733 </v>
   </varray>
  </crystal>
  <varray name="positions" >
   <v>       0.50000000       0.00000000       0.50000000 </v>
   <v>       0.00000000       0.50000000       0.50000000 </v>
   <v>       0.50000000       0.50000000       0.50000000 </v>
   <v>       0.24842000       0.74842000       0.99685000 </v>
   <v>       0.75158000       0.25158000       0.00315000 </v>
   <v>       0.50000000       0.00000000       0.00000000 </v>
   <v>       0.74842000       0.75158000       0.50000000 </v>
   <v>       0.25158000       0.24842000       0.50000000 </v>
   <v>       0.00000000       0.00000000       0.50000000 </v>
   <v>       0.00000000       0.50000000       0.00000000 </v>
   <v>       0.25000000       0.25000000       0.00000000 </v>
   <v>       0.75000000       0.75000000       0.00000000 </v>
  </varray>
 </structure>
 <calculation>
  <scstep>
   <time name="total">   25.63   25.86</time>
   <energy>
    <i name="alphaZ">    807.55278289 </i>
    <i name="ewald"> -12163.36503866 </i>
    <i name="hartreedc">  -3285.67646067 </i>
    <i name="XCdc">    622.78994804 </i>
    <i name="pawpsdc">  12139.29562609 </i>
    <i name="pawaedc"> -12091.82663909 </i>
    <i name="eentropy">     -0.00042390 </i>
    <i name="bandstr">    230.16414448 </i>
    <i name="atom">  15246.73248675 </i>
    <i name="e_fr_energy">   1505.66642591 </i>
    <i name="e_wo_entrp">   1505.66684982 </i>
    <i name="e_0_energy">   1505.66663786 </i>
   </energy>
  </scstep>
  <scstep>
   <time name="total">   25.52   25.74</time>
   <energy>
    <i name="e_fr_energy">   -203.23445187 </i>
    <i name="e_wo_entrp">   -203.23266053 </i>
    <i name="e_0_energy">   -203.23355620 </i>
   </energy>
  </scstep>
  <scstep>
   <time name="total">   28.45   28.70</time>
   <energy>
    <i name="e_fr_energy">   -272.70569442 </i>
    <i name="e_wo_entrp">   -272.70339791 </i>
    <i name="e_0_energy">   -272.70454617 </i>
   </energy>
  </scstep>
  <scstep>
   <time name="total">   26.93   27.16</time>
   <energy>
    <i name="e_fr_energy">   -274.26047256 </i>
    <i name="e_wo_entrp">   -274.25845999 </i>
    <i name="e_0_energy">   -274.25946627 </i>
   </energy>
  </scstep>
  <scstep>
   <time name="total">   29.52   29.77</time>
   <energy>
    <i name="e_fr_energy">   -274.29241533 </i>
    <i name="e_wo_entrp">   -274.29042402 </i>
    <i name="e_0_energy">   -274.29141968 </i>
   </energy>
  </scstep>
  <scstep>
   <time name="total">   29.35   29.61</time>
   <energy>
    <i name="e_fr_energy">   -208.47040389 </i>
    <i name="e_wo_entrp">   -208.46861807 </i>
    <i name="e_0_energy">   -208.46951098 </i>
   </energy>
  </scstep>
  <scstep>
   <time name="total">   29.99   30.25</time>
   <energy>
    <i name="e_fr_energy">   -219.19322628 </i>
    <i name="e_wo_entrp">   -219.19155547 </i>
    <i name="e_0_energy">   -219.19239087 </i>
   </energy>
  </scstep>
  <scstep>
   <time name="total">   29.83   30.08</time>
   <energy>
    <i name="e_fr_energy">   -221.16377747 </i>
    <i name="e_wo_entrp">   -221.16170662 </i>
    <i name="e_0_energy">   -221.16274204 </i>
   </energy>
  </scstep>
  <scstep>
   <time name="total">   30.53   30.79</time>
   <energy>
    <i name="e_fr_energy">   -221.60903857 </i>
    <i name="e_wo_entrp">   -221.60734798 </i>
    <i name="e_0_energy">   -221.60819328 </i>
   </energy>
  </scstep>
  <scstep>
   <time name="total">   29.48   29.72</time>
   <energy>
    <i name="e_fr_energy">   -221.76312717 </i>
    <i name="e_wo_entrp">   -221.76176236 </i>
    <i name="e_0_energy">   -221.76244477 </i>
   </energy>
  </scstep>
  <scstep>
   <time name="total">   30.27   30.52</time>
   <energy>
    <i name="e_fr_energy">   -221.81089557 </i>
    <i name="e_wo_entrp">   -221.80951854 </i>
    <i name="e_0_energy">   -221.81020705 </i>
   </energy>
  </scstep>
  <scstep>
   <time name="total">   29.27   29.51</time>
   <energy>
    <i name="e_fr_energy">   -221.82887181 </i>
    <i name="e_wo_entrp">   -221.82736780 </i>
    <i name="e_0_energy">   -221.82811980 </i>
   </energy>
  </scstep>
  <scstep>
   <time name="total">   29.67   29.93</time>
   <energy>
    <i name="e_fr_energy">   -221.83699743 </i>
    <i name="e_wo_entrp">   -221.83535097 </i>
    <i name="e_0_energy">   -221.83617420 </i>
   </energy>
  </scstep>
  <scstep>
   <time name="total">   29.22   29.48</time>
   <energy>
    <i name="e_fr_energy">   -221.84040797 </i>
    <i name="e_wo_entrp">   -221.83865762 </i>
    <i name="e_0_energy">   -221.83953279 </i>
   </energy>
  </scstep>
  <scstep>
   <time name="total">   29.51   29.77</time>
   <energy>
    <i name="e_fr_energy">   -221.84177620 </i>
    <i name="e_wo_entrp">   -221.83998262 </i>
    <i name="e_0_energy">   -221.84087941 </i>
   </energy>
  </scstep>
  <scstep>
   <time name="total">   29.48   29.73</time>
   <energy>
    <i name="e_fr_energy">   -221.84237474 </i>
    <i name="e_wo_entrp">   -221.84056081 </i>
    <i name="e_0_energy">   -221.84146778 </i>
   </energy>
  </scstep>
  <scstep>
   <time name="total">   29.69   29.95</time>
   <energy>
    <i name="e_fr_energy">   -221.84264161 </i>
    <i name="e_wo_entrp">   -221.84083207 </i>
    <i name="e_0_energy">   -221.84173684 </i>
   </energy>
  </scstep>
  <scstep>
   <time name="total">   29.45   29.70</time>
   <energy>
    <i name="e_fr_energy">   -221.84276339 </i>
    <i name="e_wo_entrp">   -221.84096048 </i>
    <i name="e_0_energy">   -221.84186194 </i>
   </energy>
  </scstep>
  <scstep>
   <time name="total">   29.69   29.96</time>
   <energy>
    <i name="e_fr_energy">   -221.84280536 </i>
    <i name="e_wo_entrp">   -221.84101227 </i>
    <i name="e_0_energy">   -221.84190882 </i>
   </energy>
  </scstep>
  <scstep>
   <time name="total">   29.28   29.53</time>
   <energy>
    <i name="e_fr_energy">   -221.84282397 </i>
    <i name="e_wo_entrp">   -221.84103849 </i>
    <i name="e_0_energy">   -221.84193123 </i>
   </energy>
  </scstep>
  <scstep>
   <time name="total">   28.83   29.08</time>
   <energy>
    <i name="e_fr_energy">   -221.84283356 </i>
    <i name="e_wo_entrp">   -221.84105406 </i>
    <i name="e_0_energy">   -221.84194381 </i>
   </energy>
  </scstep>
  <scstep>
   <time name="total">   29.95   30.20</time>
   <energy>
    <i name="e_fr_energy">   -221.84283739 </i>
    <i name="e_wo_entrp">   -221.84105983 </i>
    <i name="e_0_energy">   -221.84194861 </i>
   </energy>
  </scstep>
  <scstep>
   <time name="total">   29.98   30.25</time>
   <energy>
    <i name="e_fr_energy">   -221.84283856 </i>
    <i name="e_wo_entrp">   -221.84106239 </i>
    <i name="e_0_energy">   -221.84195047 </i>
   </energy>
  </scstep>
  <scstep>
   <time name="total">   30.30   30.57</time>
   <energy>
    <i name="e_fr_energy">   -221.84283923 </i>
    <i name="e_wo_entrp">   -221.84106368 </i>
    <i name="e_0_energy">   -221.84195146 </i>
   </energy>
  </scstep>
  <scstep>
   <time name="total">   30.59   30.86</time>
   <energy>
    <i name="e_fr_energy">   -221.84283952 </i>
    <i name="e_wo_entrp">   -221.84106367 </i>
    <i name="e_0_energy">   -221.84195159 </i>
   </energy>
  </scstep>
  <scstep>
   <time name="total">   29.60   29.86</time>
   <energy>
    <i name="e_fr_energy">   -221.84283969 </i>
    <i name="e_wo_entrp">   -221.84106372 </i>
    <i name="e_0_energy">   -221.84195170 </i>
   </energy>
  </scstep>
  <scstep>
   <time name="total">   31.38   31.65</time>
   <energy>
    <i name="e_fr_energy">   -221.84283976 </i>
    <i name="e_wo_entrp">   -221.84106368 </i>
    <i name="e_0_energy">   -221.84195172 </i>
   </energy>
  </scstep>
  <scstep>
   <time name="total">   30.25   30.50</time>
   <energy>
    <i name="e_fr_energy">   -221.84283977 </i>
    <i name="e_wo_entrp">   -221.84106347 </i>
    <i name="e_0_energy">   -221.84195162 </i>
   </energy>
  </scstep>
  <scstep>
   <time name="total">   29.55   29.80</time>
   <energy>
    <i name="e_fr_energy">   -221.84283978 </i>
    <i name="e_wo_entrp">   -221.84106338 </i>
    <i name="e_0_energy">   -221.84195158 </i>
   </energy>
  </scstep>
  <scstep>
   <time name="total">   29.31   29.56</time>
   <energy>
    <i name="e_fr_energy">   -221.84283978 </i>
    <i name="e_wo_entrp">   -221.84106336 </i>
    <i name="e_0_energy">   -221.84195157 </i>
   </energy>
  </scstep>
  <scstep>
   <time name="total">   29.41   29.66</time>
   <energy>
    <i name="e_fr_energy">   -221.84283978 </i>
    <i name="e_wo_entrp">   -221.84106331 </i>
    <i name="e_0_energy">   -221.84195155 </i>
   </energy>
  </scstep>
  <scstep>
   <time name="total">   28.92   29.17</time>
   <energy>
    <i name="e_fr_energy">   -221.84283978 </i>
    <i name="e_wo_entrp">   -221.84106326 </i>
    <i name="e_0_energy">   -221.84195152 </i>
   </energy>
  </scstep>
  <scstep>
   <time name="total">   29.71   29.96</time>
   <energy>
    <i name="e_fr_energy">   -221.84283979 </i>
    <i name="e_wo_entrp">   -221.84106325 </i>
    <i name="e_0_energy">   -221.84195152 </i>
   </energy>
  </scstep>
  <scstep>
   <time name="total">   33.37   33.65</time>
   <energy>
    <i name="alphaZ">    807.55278289 </i>
    <i name="ewald"> -12163.36503866 </i>
    <i name="hartreedc">  -3175.39839042 </i>
    <i name="XCdc">    638.44386466 </i>
    <i name="pawpsdc">  18360.69985803 </i>
    <i name="pawaedc"> -18333.07758258 </i>
    <i name="eentropy">     -0.00177655 </i>
    <i name="bandstr">  -1603.42904391 </i>
    <i name="atom">  15246.73248675 </i>
    <i name="e_fr_energy">   -221.84283979 </i>
    <i name="e_wo_entrp">   -221.84106323 </i>
    <i name="e_0_energy">   -221.84195151 </i>
   </energy>
  </scstep>
  <structure>
   <crystal>
    <varray name="basis" >
     <v>       5.42460982       0.00000000      -3.14681359 </v>
     <v>      -1.79970206       5.11736887      -3.14681359 </v>
     <v>       0.00000000       0.00000000       6.27127000 </v>
    </varray>
    <i name="volume">    174.08875829 </i>
    <varray name="rec_basis" >
     <v>       0.18434506       0.06483140       0.00000000 </v>
     <v>       0.00000000       0.19541292       0.00000000 </v>
     <v>       0.09250112       0.13058605       0.15945733 </v>
    </varray>
   </crystal>
   <varray name="positions" >
    <v>       0.50000000       0.00000000       0.50000000 </v>
    <v>       0.00000000       0.50000000       0.50000000 </v>
    <v>       0.50000000       0.50000000       0.50000000 </v>
    <v>       0.24842000       0.74842000       0.99685000 </v>
    <v>       0.75158000       0.25158000       0.00315000 </v>
    <v>       0.50000000       0.00000000       0.00000000 </v>
    <v>       0.74842000       0.75158000       0.50000000 </v>
    <v>       0.25158000       0.24842000       0.50000000 </v>
    <v>       0.00000000       0.00000000       0.50000000 </v>
    <v>       0.00000000       0.50000000       0.00000000 </v>
    <v>       0.25000000       0.25000000       0.00000000 </v>
    <v>       0.75000000       0.75000000       0.00000000 </v>
   </varray>
  </structure>
  <varray name="forces" >
   <v>       0.00000000       0.00000000       0.00000000 </v>
   <v>       0.00000000       0.00000000       0.00000000 </v>
   <v>       0.00000000       0.00000000       0.00000000 </v>
   <v>       0.00000000       0.00000000       0.00000000 </v>
   <v>       0.00000000       0.00000000       0.00000000 </v>
   <v>       0.00000000       0.00000000       0.00000000 </v>
   <v>       0.00000000       0.00000000       0.00000000 </v>
   <v>       0.00000000       0.00000000       0.00000000 </v>
   <v>       0.00000000       0.00000000       0.00000000 </v>
   <v>       0.00000000       0.00000000       0.00000000 </v>
   <v>       0.00000000       0.00000000       0.00000000 </v>
   <v>       0.00000000       0.00000000       0.00000000 </v>
  </varray>
  <varray name="stress" >
   <v>       0.00000000       0.00000000       0.00000000 </v>
   <v>       0.00000000       0.00000000       0.00000000 </v>
   <v>       0.00000000       0.00000000       0.00000000 </v>
  </varray>
  <energy>
   <i name="e_fr_energy">   -221.84283979 </i>
   <i name="e_wo_entrp">   -221.84106323 </i>
   <i name="e_0_energy">   -221.84195151 </i>
  </energy>
  <time name="totalsc"> 1005.89 1014.58</time>
  <eigenvalues>
   <array>
    <dimension dim="1">band</dimension>
    <dimension dim="2">kpoint</dimension>
    <dimension dim="3">spin</dimension>
    <field>eigene</field>
    <field>occ</field>
    <set>
     <set comment="spin 1">
      <set comment="kpoint 1">
       <r>  -52.2472    1.0000 </r>
       <r>  -52.1909    1.0000 </r>
       <r>  -51.8513    1.0000 </r>
       <r>  -51.8513    1.0000 </r>
       <r>  -51.5931    1.0000 </r>
       <r>  -51.5930    1.0000 </r>
       <r>  -51.2016    1.0000 </r>
       <r>  -51.1523    1.0000 </r>
       <r>  -28.0030    1.0000 </r>
       <r>  -27.9195    1.0000 </r>
       <r>  -25.7773    1.0000 </r>
       <r>  -25.7773    1.0000 </r>
       <r>  -25.6680    1.0000 </r>
       <r>  -25.6678    1.0000 </r>
       <r>  -25.5712    1.0000 </r>
       <r>  -25.5710    1.0000 </r>
       <r>  -25.5131    1.0000 </r>
       <r>  -25.3917    1.0000 </r>
       <r>  -25.3262    1.0000 </r>
       <r>  -25.3212    1.0000 </r>
       <r>  -25.3210    1.0000 </r>
       <r>  -25.0693    1.0000 </r>
       <r>  -25.0087    1.0000 </r>
       <r>  -25.0080    1.0000 </r>
       <r>  -24.9974    1.0000 </r>
       <r>  -24.8821    1.0000 </r>
       <r>  -24.8819    1.0000 </r>
       <r>  -24.6625    1.0000 </r>
       <r>  -24.5418    1.0000 </r>
       <r>  -24.5417    1.0000 </r>
       <r>  -23.0150    1.0000 </r>
       <r>  -22.9851    1.0000 </r>
       <r>   -0.2290    1.0000 </r>
       <r>    1.8268    1.0000 </r>
       <r>    3.2459    1.0000 </r>
       <r>    4.2776    1.0000 </r>
       <r>    5.0509    1.0000 </r>
       <r>    5.0510    1.0000 </r>
       <r>    5.2324    1.0000 </r>
       <r>    5.4407    1.0000 </r>
       <r>    5.4408    1.0000 </r>
       <r>    5.6879    1.0000 </r>
       <r>    5.8174    1.0000 </r>
       <r>    5.8175    1.0000 </r>
       <r>    6.0681    1.0000 </r>
       <r>    6.1586    1.0000 </r>
       <r>    6.4890    1.0000 </r>
       <r>    7.6550    1.0000 </r>
       <r>    7.6551    1.0000 </r>
       <r>    8.5248    1.0000 </r>
       <r>    8.7047    1.0000 </r>
       <r>    9.1514    1.0000 </r>
       <r>    9.2893    1.0000 </r>
       <r>    9.2894    1.0000 </r>
       <r>    9.5783    1.0000 </r>
       <r>    9.7508    1.0000 </r>
       <r>    9.7509    1.0000 </r>
       <r>    9.9391    1.0000 </r>
       <r>    9.9393    1.0000 </r>
       <r>   10.4139    1.0000 </r>
       <r>   10.5943    1.0000 </r>
       <r>   10.6072    1.0000 </r>
       <r>   10.7598    1.0000 </r>
       <r>   11.0822    0.0000 </r>
       <r>   11.0890    0.0000 </r>
       <r>   11.3898    0.0000 </r>
       <r>   11.6212    0.0000 </r>
       <r>   11.6212    0.0000 </r>
       <r>   11.7086    0.0000 </r>
       <r>   11.7087    0.0000 </r>
       <r>   11.7702    0.0000 </r>
       <r>   12.2895    0.0000 </r>
       <r>   12.2895    0.0000 </r>
       <r>   12.4572    0.0000 </r>
       <r>   13.1320    0.0000 </r>
       <r>   13.7513    0.0000 </r>
       <r>   14.1589    0.0000 </r>
       <r>   14.5963    0.0000 </r>
      </set>
      <set comment="kpoint 2">
       <r>  -52.2347    1.0000 </r>
       <r>  -52.1813    1.0000 </r>
       <r>  -51.8932    1.0000 </r>
       <r>  -51.8906    1.0000 </r>
       <r>  -51.5515    1.0000 </r>
       <r>  -51.5488    1.0000 </r>
       <r>  -51.2140    1.0000 </r>
       <r>  -51.1670    1.0000 </r>
       <r>  -27.9465    1.0000 </r>
       <r>  -27.8676    1.0000 </r>
       <r>  -26.2191    1.0000 </r>
       <r>  -26.2158    1.0000 </r>
       <r>  -25.6633    1.0000 </r>
       <r>  -25.6425    1.0000 </r>
       <r>  -25.5357    1.0000 </r>
       <r>  -25.3996    1.0000 </r>
       <r>  -25.3325    1.0000 </r>
       <r>  -25.3115    1.0000 </r>
       <r>  -25.2825    1.0000 </r>
       <r>  -25.1313    1.0000 </r>
       <r>  -25.1134    1.0000 </r>
       <r>  -25.1102    1.0000 </r>
       <r>  -25.0337    1.0000 </r>
       <r>  -24.9707    1.0000 </r>
       <r>  -24.9636    1.0000 </r>
       <r>  -24.8958    1.0000 </r>
       <r>  -24.8803    1.0000 </r>
       <r>  -24.6543    1.0000 </r>
       <r>  -24.5628    1.0000 </r>
       <r>  -24.5472    1.0000 </r>
       <r>  -23.0890    1.0000 </r>
       <r>  -23.0595    1.0000 </r>
       <r>   -0.0993    1.0000 </r>
       <r>    1.9130    1.0000 </r>
       <r>    2.9531    1.0000 </r>
       <r>    4.0263    1.0000 </r>
       <r>    5.0777    1.0000 </r>
       <r>    5.1119    1.0000 </r>
       <r>    5.3366    1.0000 </r>
       <r>    5.3987    1.0000 </r>
       <r>    5.5865    1.0000 </r>
       <r>    5.8334    1.0000 </r>
       <r>    6.0030    1.0000 </r>
       <r>    6.0752    1.0000 </r>
       <r>    6.1823    1.0000 </r>
       <r>    6.1996    1.0000 </r>
       <r>    6.5482    1.0000 </r>
       <r>    7.1284    1.0000 </r>
       <r>    7.7375    1.0000 </r>
       <r>    8.2853    1.0000 </r>
       <r>    8.7461    1.0000 </r>
       <r>    8.9404    1.0000 </r>
       <r>    9.1358    1.0000 </r>
       <r>    9.5929    1.0000 </r>
       <r>    9.6283    1.0000 </r>
       <r>    9.6770    1.0000 </r>
       <r>    9.7562    1.0000 </r>
       <r>    9.8273    1.0000 </r>
       <r>    9.9935    1.0000 </r>
       <r>   10.0077    1.0000 </r>
       <r>   10.2220    1.0000 </r>
       <r>   10.3909    1.0000 </r>
       <r>   10.4184    1.0000 </r>
       <r>   10.4915    1.0000 </r>
       <r>   10.7966    1.0000 </r>
       <r>   10.9402    0.7545 </r>
       <r>   11.7673    0.0000 </r>
       <r>   12.0423    0.0000 </r>
       <r>   12.1411    0.0000 </r>
       <r>   12.1802    0.0000 </r>
       <r>   12.1814    0.0000 </r>
       <r>   12.7635    0.0000 </r>
       <r>   12.7921    0.0000 </r>
       <r>   12.9438    0.0000 </r>
       <r>   13.3285    0.0000 </r>
       <r>   13.3432    0.0000 </r>
       <r>   13.6599    0.0000 </r>
       <r>   14.8254    0.0000 </r>
      </set>
      <set comment="kpoint 3">
       <r>  -52.1978    1.0000 </r>
       <r>  -52.1524    1.0000 </r>
       <r>  -51.9764    1.0000 </r>
       <r>  -51.9663    1.0000 </r>
       <r>  -51.4690    1.0000 </r>
       <r>  -51.4590    1.0000 </r>
       <r>  -51.2504    1.0000 </r>
       <r>  -51.2099    1.0000 </r>
       <r>  -27.7796    1.0000 </r>
       <r>  -27.7133    1.0000 </r>
       <r>  -26.7114    1.0000 </r>
       <r>  -26.6978    1.0000 </r>
       <r>  -25.6507    1.0000 </r>
       <r>  -25.5730    1.0000 </r>
       <r>  -25.5712    1.0000 </r>
       <r>  -25.4123    1.0000 </r>
       <r>  -25.3587    1.0000 </r>
       <r>  -25.2799    1.0000 </r>
       <r>  -25.2311    1.0000 </r>
       <r>  -25.1908    1.0000 </r>
       <r>  -25.0947    1.0000 </r>
       <r>  -24.9368    1.0000 </r>
       <r>  -24.9163    1.0000 </r>
       <r>  -24.9012    1.0000 </r>
       <r>  -24.8769    1.0000 </r>
       <r>  -24.6349    1.0000 </r>
       <r>  -24.6225    1.0000 </r>
       <r>  -24.5791    1.0000 </r>
       <r>  -24.5681    1.0000 </r>
       <r>  -24.5615    1.0000 </r>
       <r>  -23.3043    1.0000 </r>
       <r>  -23.2766    1.0000 </r>
       <r>    0.2757    1.0000 </r>
       <r>    2.1608    1.0000 </r>
       <r>    2.3128    1.0000 </r>
       <r>    3.5205    1.0000 </r>
       <r>    4.9728    1.0000 </r>
       <r>    5.2677    1.0000 </r>
       <r>    5.3633    1.0000 </r>
       <r>    5.6904    1.0000 </r>
       <r>    6.0017    1.0000 </r>
       <r>    6.1701    1.0000 </r>
       <r>    6.2531    1.0000 </r>
       <r>    6.4269    1.0000 </r>
       <r>    6.4577    1.0000 </r>
       <r>    6.5688    1.0000 </r>
       <r>    6.6897    1.0000 </r>
       <r>    6.7059    1.0000 </r>
       <r>    7.7394    1.0000 </r>
       <r>    7.9915    1.0000 </r>
       <r>    8.1678    1.0000 </r>
       <r>    8.7341    1.0000 </r>
       <r>    8.8790    1.0000 </r>
       <r>    8.9946    1.0000 </r>
       <r>    9.1363    1.0000 </r>
       <r>    9.1741    1.0000 </r>
       <r>    9.1868    1.0000 </r>
       <r>    9.3862    1.0000 </r>
       <r>    9.5619    1.0000 </r>
       <r>    9.5725    1.0000 </r>
       <r>    9.8151    1.0000 </r>
       <r>   10.4495    1.0000 </r>
       <r>   10.5250    1.0000 </r>
       <r>   10.9435    0.6761 </r>
       <r>   11.1535    0.0000 </r>
       <r>   11.6193    0.0000 </r>
       <r>   11.8366    0.0000 </r>
       <r>   11.9352    0.0000 </r>
       <r>   12.5221    0.0000 </r>
       <r>   12.5979    0.0000 </r>
       <r>   12.7174    0.0000 </r>
       <r>   12.8623    0.0000 </r>
       <r>   12.9419    0.0000 </r>
       <r>   13.0391    0.0000 </r>
       <r>   13.6409    0.0000 </r>
       <r>   13.8217    0.0000 </r>
       <r>   14.0878    0.0000 </r>
       <r>   14.7768    0.0000 </r>
      </set>
      <set comment="kpoint 4">
       <r>  -52.1391    1.0000 </r>
       <r>  -52.1053    1.0000 </r>
       <r>  -52.0630    1.0000 </r>
       <r>  -52.0418    1.0000 </r>
       <r>  -51.3834    1.0000 </r>
       <r>  -51.3633    1.0000 </r>
       <r>  -51.3082    1.0000 </r>
       <r>  -51.2773    1.0000 </r>
       <r>  -27.5096    1.0000 </r>
       <r>  -27.4612    1.0000 </r>
       <r>  -27.1484    1.0000 </r>
       <r>  -27.1188    1.0000 </r>
       <r>  -25.6305    1.0000 </r>
       <r>  -25.6041    1.0000 </r>
       <r>  -25.4676    1.0000 </r>
       <r>  -25.4108    1.0000 </r>
       <r>  -25.3898    1.0000 </r>
       <r>  -25.3478    1.0000 </r>
       <r>  -25.2301    1.0000 </r>
       <r>  -25.1658    1.0000 </r>
       <r>  -25.0911    1.0000 </r>
       <r>  -25.0032    1.0000 </r>
       <r>  -24.8879    1.0000 </r>
       <r>  -24.8769    1.0000 </r>
       <r>  -24.8082    1.0000 </r>
       <r>  -24.7093    1.0000 </r>
       <r>  -24.6105    1.0000 </r>
       <r>  -24.5850    1.0000 </r>
       <r>  -24.0770    1.0000 </r>
       <r>  -24.0597    1.0000 </r>
       <r>  -23.6424    1.0000 </r>
       <r>  -23.6187    1.0000 </r>
       <r>    0.8540    1.0000 </r>
       <r>    1.5664    1.0000 </r>
       <r>    2.5389    1.0000 </r>
       <r>    3.0046    1.0000 </r>
       <r>    4.9629    1.0000 </r>
       <r>    5.0860    1.0000 </r>
       <r>    5.7913    1.0000 </r>
       <r>    5.8669    1.0000 </r>
       <r>    5.9801    1.0000 </r>
       <r>    6.5013    1.0000 </r>
       <r>    6.5279    1.0000 </r>
       <r>    6.6872    1.0000 </r>
       <r>    6.6982    1.0000 </r>
       <r>    6.8992    1.0000 </r>
       <r>    7.0273    1.0000 </r>
       <r>    7.2628    1.0000 </r>
       <r>    7.3680    1.0000 </r>
       <r>    7.7905    1.0000 </r>
       <r>    7.9261    1.0000 </r>
       <r>    8.1350    1.0000 </r>
       <r>    8.1800    1.0000 </r>
       <r>    8.2933    1.0000 </r>
       <r>    8.4692    1.0000 </r>
       <r>    8.7383    1.0000 </r>
       <r>    8.9312    1.0000 </r>
       <r>    8.9996    1.0000 </r>
       <r>    9.2893    1.0000 </r>
       <r>    9.4010    1.0000 </r>
       <r>   10.0957    1.0000 </r>
       <r>   10.5837    1.0000 </r>
       <r>   10.9573    0.3026 </r>
       <r>   11.0804    0.0000 </r>
       <r>   11.4745    0.0000 </r>
       <r>   11.6126    0.0000 </r>
       <r>   11.7072    0.0000 </r>
       <r>   11.8827    0.0000 </r>
       <r>   12.4934    0.0000 </r>
       <r>   13.0271    0.0000 </r>
       <r>   13.1529    0.0000 </r>
       <r>   13.2289    0.0000 </r>
       <r>   13.5786    0.0000 </r>
       <r>   13.6507    0.0000 </r>
       <r>   13.7165    0.0000 </r>
       <r>   13.7288    0.0000 </r>
       <r>   14.2079    0.0000 </r>
       <r>   14.4747    0.0000 </r>
      </set>
      <set comment="kpoint 5">
       <r>  -52.2003    1.0000 </r>
       <r>  -52.1500    1.0000 </r>
       <r>  -51.9714    1.0000 </r>
       <r>  -51.9713    1.0000 </r>
       <r>  -51.4640    1.0000 </r>
       <r>  -51.4638    1.0000 </r>
       <r>  -51.2527    1.0000 </r>
       <r>  -51.2077    1.0000 </r>
       <r>  -27.7833    1.0000 </r>
       <r>  -27.7098    1.0000 </r>
       <r>  -26.7045    1.0000 </r>
       <r>  -26.7045    1.0000 </r>
       <r>  -25.6227    1.0000 </r>
       <r>  -25.6196    1.0000 </r>
       <r>  -25.5893    1.0000 </r>
       <r>  -25.4315    1.0000 </r>
       <r>  -25.3090    1.0000 </r>
       <r>  -25.3072    1.0000 </r>
       <r>  -25.2089    1.0000 </r>
       <r>  -25.2058    1.0000 </r>
       <r>  -25.0810    1.0000 </r>
       <r>  -24.9179    1.0000 </r>
       <r>  -24.9131    1.0000 </r>
       <r>  -24.9112    1.0000 </r>
       <r>  -24.9007    1.0000 </r>
       <r>  -24.6227    1.0000 </r>
       <r>  -24.5861    1.0000 </r>
       <r>  -24.5855    1.0000 </r>
       <r>  -24.5719    1.0000 </r>
       <r>  -24.5718    1.0000 </r>
       <r>  -23.3058    1.0000 </r>
       <r>  -23.2751    1.0000 </r>
       <r>    0.0700    1.0000 </r>
       <r>    2.0013    1.0000 </r>
       <r>    2.7435    1.0000 </r>
       <r>    3.8368    1.0000 </r>
       <r>    4.8584    1.0000 </r>
       <r>    4.9958    1.0000 </r>
       <r>    5.5343    1.0000 </r>
       <r>    5.5498    1.0000 </r>
       <r>    5.7471    1.0000 </r>
       <r>    5.9305    1.0000 </r>
       <r>    6.1866    1.0000 </r>
       <r>    6.2389    1.0000 </r>
       <r>    6.4932    1.0000 </r>
       <r>    6.6015    1.0000 </r>
       <r>    6.6635    1.0000 </r>
       <r>    6.8275    1.0000 </r>
       <r>    7.7659    1.0000 </r>
       <r>    8.1162    1.0000 </r>
       <r>    8.4470    1.0000 </r>
       <r>    8.8049    1.0000 </r>
       <r>    8.8730    1.0000 </r>
       <r>    9.0461    1.0000 </r>
       <r>    9.1416    1.0000 </r>
       <r>    9.1683    1.0000 </r>
       <r>    9.4157    1.0000 </r>
       <r>    9.6051    1.0000 </r>
       <r>    9.6487    1.0000 </r>
       <r>    9.8726    1.0000 </r>
       <r>   10.0168    1.0000 </r>
       <r>   10.0526    1.0000 </r>
       <r>   10.1049    1.0000 </r>
       <r>   10.7781    1.0000 </r>
       <r>   11.2309    0.0000 </r>
       <r>   11.3133    0.0000 </r>
       <r>   12.0565    0.0000 </r>
       <r>   12.1273    0.0000 </r>
       <r>   12.5925    0.0000 </r>
       <r>   12.7398    0.0000 </r>
       <r>   12.9158    0.0000 </r>
       <r>   12.9421    0.0000 </r>
       <r>   13.2415    0.0000 </r>
       <r>   13.3557    0.0000 </r>
       <r>   13.4057    0.0000 </r>
       <r>   13.9979    0.0000 </r>
       <r>   14.0422    0.0000 </r>
       <r>   14.5995    0.0000 </r>
      </set>
      <set comment="kpoint 6">
       <r>  -52.1434    1.0000 </r>
       <r>  -52.1012    1.0000 </r>
       <r>  -52.0561    1.0000 </r>
       <r>  -52.0485    1.0000 </r>
       <r>  -51.3768    1.0000 </r>
       <r>  -51.3696    1.0000 </r>
       <r>  -51.3122    1.0000 </r>
       <r>  -51.2736    1.0000 </r>
       <r>  -27.5158    1.0000 </r>
       <r>  -27.4554    1.0000 </r>
       <r>  -27.1386    1.0000 </r>
       <r>  -27.1281    1.0000 </r>
       <r>  -25.6254    1.0000 </r>
       <r>  -25.5930    1.0000 </r>
       <r>  -25.5350    1.0000 </r>
       <r>  -25.4521    1.0000 </r>
       <r>  -25.3222    1.0000 </r>
       <r>  -25.3019    1.0000 </r>
       <r>  -25.2647    1.0000 </r>
       <r>  -25.1508    1.0000 </r>
       <r>  -25.1126    1.0000 </r>
       <r>  -24.9697    1.0000 </r>
       <r>  -24.9248    1.0000 </r>
       <r>  -24.8576    1.0000 </r>
       <r>  -24.8402    1.0000 </r>
       <r>  -24.6578    1.0000 </r>
       <r>  -24.6132    1.0000 </r>
       <r>  -24.5951    1.0000 </r>
       <r>  -24.0714    1.0000 </r>
       <r>  -24.0652    1.0000 </r>
       <r>  -23.6454    1.0000 </r>
       <r>  -23.6159    1.0000 </r>
       <r>    0.4651    1.0000 </r>
       <r>    2.2052    1.0000 </r>
       <r>    2.2333    1.0000 </r>
       <r>    3.4272    1.0000 </r>
       <r>    4.7531    1.0000 </r>
       <r>    5.1406    1.0000 </r>
       <r>    5.4616    1.0000 </r>
       <r>    5.7151    1.0000 </r>
       <r>    6.0308    1.0000 </r>
       <r>    6.2055    1.0000 </r>
       <r>    6.3541    1.0000 </r>
       <r>    6.5947    1.0000 </r>
       <r>    6.8290    1.0000 </r>
       <r>    6.9394    1.0000 </r>
       <r>    6.9848    1.0000 </r>
       <r>    7.1252    1.0000 </r>
       <r>    7.6422    1.0000 </r>
       <r>    7.9063    1.0000 </r>
       <r>    8.0259    1.0000 </r>
       <r>    8.1040    1.0000 </r>
       <r>    8.2924    1.0000 </r>
       <r>    8.3077    1.0000 </r>
       <r>    8.5237    1.0000 </r>
       <r>    8.7966    1.0000 </r>
       <r>    8.8720    1.0000 </r>
       <r>    9.0939    1.0000 </r>
       <r>    9.5957    1.0000 </r>
       <r>    9.6675    1.0000 </r>
       <r>    9.8178    1.0000 </r>
       <r>   10.4405    1.0000 </r>
       <r>   10.5167    1.0000 </r>
       <r>   11.2720    0.0000 </r>
       <r>   11.7285    0.0000 </r>
       <r>   11.7676    0.0000 </r>
       <r>   11.8253    0.0000 </r>
       <r>   11.9712    0.0000 </r>
       <r>   12.7154    0.0000 </r>
       <r>   13.0842    0.0000 </r>
       <r>   13.2889    0.0000 </r>
       <r>   13.3790    0.0000 </r>
       <r>   13.4642    0.0000 </r>
       <r>   13.5584    0.0000 </r>
       <r>   13.7584    0.0000 </r>
       <r>   14.2838    0.0000 </r>
       <r>   14.3495    0.0000 </r>
       <r>   14.5687    0.0000 </r>
      </set>
      <set comment="kpoint 7">
       <r>  -52.1315    1.0000 </r>
       <r>  -52.1127    1.0000 </r>
       <r>  -52.0678    1.0000 </r>
       <r>  -52.0372    1.0000 </r>
       <r>  -51.3880    1.0000 </r>
       <r>  -51.3590    1.0000 </r>
       <r>  -51.3012    1.0000 </r>
       <r>  -51.2840    1.0000 </r>
       <r>  -27.4986    1.0000 </r>
       <r>  -27.4717    1.0000 </r>
       <r>  -27.1552    1.0000 </r>
       <r>  -27.1124    1.0000 </r>
       <r>  -25.6461    1.0000 </r>
       <r>  -25.5595    1.0000 </r>
       <r>  -25.4480    1.0000 </r>
       <r>  -25.4185    1.0000 </r>
       <r>  -25.4071    1.0000 </r>
       <r>  -25.3432    1.0000 </r>
       <r>  -25.2211    1.0000 </r>
       <r>  -25.2056    1.0000 </r>
       <r>  -25.0503    1.0000 </r>
       <r>  -25.0219    1.0000 </r>
       <r>  -24.9381    1.0000 </r>
       <r>  -24.8378    1.0000 </r>
       <r>  -24.7548    1.0000 </r>
       <r>  -24.7516    1.0000 </r>
       <r>  -24.6442    1.0000 </r>
       <r>  -24.5739    1.0000 </r>
       <r>  -24.0809    1.0000 </r>
       <r>  -24.0560    1.0000 </r>
       <r>  -23.6370    1.0000 </r>
       <r>  -23.6239    1.0000 </r>
       <r>    1.0300    1.0000 </r>
       <r>    1.5110    1.0000 </r>
       <r>    2.5787    1.0000 </r>
       <r>    2.9855    1.0000 </r>
       <r>    4.8009    1.0000 </r>
       <r>    5.2815    1.0000 </r>
       <r>    5.4972    1.0000 </r>
       <r>    5.8331    1.0000 </r>
       <r>    6.0260    1.0000 </r>
       <r>    6.4391    1.0000 </r>
       <r>    6.6079    1.0000 </r>
       <r>    6.8135    1.0000 </r>
       <r>    6.8439    1.0000 </r>
       <r>    6.9754    1.0000 </r>
       <r>    7.1109    1.0000 </r>
       <r>    7.2465    1.0000 </r>
       <r>    7.4572    1.0000 </r>
       <r>    7.6741    1.0000 </r>
       <r>    7.7159    1.0000 </r>
       <r>    7.7896    1.0000 </r>
       <r>    8.1996    1.0000 </r>
       <r>    8.2796    1.0000 </r>
       <r>    8.3015    1.0000 </r>
       <r>    8.5919    1.0000 </r>
       <r>    8.6437    1.0000 </r>
       <r>    9.3055    1.0000 </r>
       <r>    9.3455    1.0000 </r>
       <r>    9.6809    1.0000 </r>
       <r>    9.9865    1.0000 </r>
       <r>   10.6921    1.0000 </r>
       <r>   11.0525    0.0000 </r>
       <r>   11.1505    0.0000 </r>
       <r>   11.2591    0.0000 </r>
       <r>   11.3734    0.0000 </r>
       <r>   11.8284    0.0000 </r>
       <r>   12.0647    0.0000 </r>
       <r>   12.9330    0.0000 </r>
       <r>   12.9684    0.0000 </r>
       <r>   13.2052    0.0000 </r>
       <r>   13.3882    0.0000 </r>
       <r>   13.5168    0.0000 </r>
       <r>   13.6129    0.0000 </r>
       <r>   13.6998    0.0000 </r>
       <r>   13.7589    0.0000 </r>
       <r>   14.2708    0.0000 </r>
       <r>   14.6315    0.0000 </r>
      </set>
      <set comment="kpoint 8">
       <r>  -52.1907    1.0000 </r>
       <r>  -52.1593    1.0000 </r>
       <r>  -51.9805    1.0000 </r>
       <r>  -51.9624    1.0000 </r>
       <r>  -51.4731    1.0000 </r>
       <r>  -51.4552    1.0000 </r>
       <r>  -51.2440    1.0000 </r>
       <r>  -51.2160    1.0000 </r>
       <r>  -27.7691    1.0000 </r>
       <r>  -27.7233    1.0000 </r>
       <r>  -26.7171    1.0000 </r>
       <r>  -26.6927    1.0000 </r>
       <r>  -25.6574    1.0000 </r>
       <r>  -25.5243    1.0000 </r>
       <r>  -25.5133    1.0000 </r>
       <r>  -25.4183    1.0000 </r>
       <r>  -25.3591    1.0000 </r>
       <r>  -25.2901    1.0000 </r>
       <r>  -25.2782    1.0000 </r>
       <r>  -25.1486    1.0000 </r>
       <r>  -25.1370    1.0000 </r>
       <r>  -24.9592    1.0000 </r>
       <r>  -24.9479    1.0000 </r>
       <r>  -24.8556    1.0000 </r>
       <r>  -24.8390    1.0000 </r>
       <r>  -24.6708    1.0000 </r>
       <r>  -24.6649    1.0000 </r>
       <r>  -24.5826    1.0000 </r>
       <r>  -24.5645    1.0000 </r>
       <r>  -24.5577    1.0000 </r>
       <r>  -23.2999    1.0000 </r>
       <r>  -23.2808    1.0000 </r>
       <r>    0.8399    1.0000 </r>
       <r>    1.6780    1.0000 </r>
       <r>    2.5622    1.0000 </r>
       <r>    3.0065    1.0000 </r>
       <r>    4.9726    1.0000 </r>
       <r>    5.1655    1.0000 </r>
       <r>    5.6606    1.0000 </r>
       <r>    5.8682    1.0000 </r>
       <r>    6.2619    1.0000 </r>
       <r>    6.2786    1.0000 </r>
       <r>    6.3057    1.0000 </r>
       <r>    6.3818    1.0000 </r>
       <r>    6.7045    1.0000 </r>
       <r>    6.7160    1.0000 </r>
       <r>    6.8131    1.0000 </r>
       <r>    6.8257    1.0000 </r>
       <r>    7.2965    1.0000 </r>
       <r>    7.7338    1.0000 </r>
       <r>    8.0262    1.0000 </r>
       <r>    8.1209    1.0000 </r>
       <r>    8.3668    1.0000 </r>
       <r>    8.8317    1.0000 </r>
       <r>    8.9395    1.0000 </r>
       <r>    9.0748    1.0000 </r>
       <r>    9.1870    1.0000 </r>
       <r>    9.2081    1.0000 </r>
       <r>    9.5758    1.0000 </r>
       <r>    9.6908    1.0000 </r>
       <r>   10.2499    1.0000 </r>
       <r>   10.4208    1.0000 </r>
       <r>   10.8229    1.0000 </r>
       <r>   10.9238    0.9677 </r>
       <r>   11.4883    0.0000 </r>
       <r>   11.6489    0.0000 </r>
       <r>   11.8306    0.0000 </r>
       <r>   12.1643    0.0000 </r>
       <r>   12.2627    0.0000 </r>
       <r>   12.3022    0.0000 </r>
       <r>   12.4102    0.0000 </r>
       <r>   12.7469    0.0000 </r>
       <r>   12.8484    0.0000 </r>
       <r>   13.4982    0.0000 </r>
       <r>   13.5870    0.0000 </r>
       <r>   13.9334    0.0000 </r>
       <r>   14.1914    0.0000 </r>
       <r>   14.7233    0.0000 </r>
      </set>
      <set comment="kpoint 9">
       <r>  -52.2293    1.0000 </r>
       <r>  -52.1865    1.0000 </r>
       <r>  -51.8955    1.0000 </r>
       <r>  -51.8883    1.0000 </r>
       <r>  -51.5541    1.0000 </r>
       <r>  -51.5465    1.0000 </r>
       <r>  -51.2093    1.0000 </r>
       <r>  -51.1716    1.0000 </r>
       <r>  -27.9385    1.0000 </r>
       <r>  -27.8752    1.0000 </r>
       <r>  -26.2223    1.0000 </r>
       <r>  -26.2130    1.0000 </r>
       <r>  -25.6609    1.0000 </r>
       <r>  -25.6021    1.0000 </r>
       <r>  -25.4939    1.0000 </r>
       <r>  -25.3755    1.0000 </r>
       <r>  -25.3649    1.0000 </r>
       <r>  -25.3173    1.0000 </r>
       <r>  -25.2496    1.0000 </r>
       <r>  -25.1706    1.0000 </r>
       <r>  -25.1161    1.0000 </r>
       <r>  -25.1081    1.0000 </r>
       <r>  -25.0700    1.0000 </r>
       <r>  -24.9935    1.0000 </r>
       <r>  -24.9383    1.0000 </r>
       <r>  -24.8981    1.0000 </r>
       <r>  -24.8543    1.0000 </r>
       <r>  -24.6844    1.0000 </r>
       <r>  -24.5934    1.0000 </r>
       <r>  -24.5500    1.0000 </r>
       <r>  -23.0860    1.0000 </r>
       <r>  -23.0624    1.0000 </r>
       <r>    0.3072    1.0000 </r>
       <r>    2.2113    1.0000 </r>
       <r>    2.2980    1.0000 </r>
       <r>    3.4789    1.0000 </r>
       <r>    5.1490    1.0000 </r>
       <r>    5.1886    1.0000 </r>
       <r>    5.2950    1.0000 </r>
       <r>    5.8014    1.0000 </r>
       <r>    5.8714    1.0000 </r>
       <r>    6.0807    1.0000 </r>
       <r>    6.1511    1.0000 </r>
       <r>    6.3479    1.0000 </r>
       <r>    6.3792    1.0000 </r>
       <r>    6.3837    1.0000 </r>
       <r>    6.6677    1.0000 </r>
       <r>    6.8252    1.0000 </r>
       <r>    7.4757    1.0000 </r>
       <r>    7.5619    1.0000 </r>
       <r>    8.4958    1.0000 </r>
       <r>    8.7909    1.0000 </r>
       <r>    8.9270    1.0000 </r>
       <r>    9.0158    1.0000 </r>
       <r>    9.2963    1.0000 </r>
       <r>    9.4558    1.0000 </r>
       <r>    9.5243    1.0000 </r>
       <r>    9.9085    1.0000 </r>
       <r>    9.9462    1.0000 </r>
       <r>   10.2765    1.0000 </r>
       <r>   10.3150    1.0000 </r>
       <r>   10.4317    1.0000 </r>
       <r>   10.5753    1.0000 </r>
       <r>   10.8272    1.0000 </r>
       <r>   11.0748    0.0000 </r>
       <r>   11.4309    0.0000 </r>
       <r>   11.6904    0.0000 </r>
       <r>   11.8496    0.0000 </r>
       <r>   11.9536    0.0000 </r>
       <r>   12.1050    0.0000 </r>
       <r>   12.3984    0.0000 </r>
       <r>   12.4647    0.0000 </r>
       <r>   12.7124    0.0000 </r>
       <r>   12.8733    0.0000 </r>
       <r>   13.0211    0.0000 </r>
       <r>   13.1270    0.0000 </r>
       <r>   13.8458    0.0000 </r>
       <r>   14.8012    0.0000 </r>
      </set>
      <set comment="kpoint 10">
       <r>  -52.2444    1.0000 </r>
       <r>  -52.1937    1.0000 </r>
       <r>  -51.8514    1.0000 </r>
       <r>  -51.8513    1.0000 </r>
       <r>  -51.5932    1.0000 </r>
       <r>  -51.5932    1.0000 </r>
       <r>  -51.1991    1.0000 </r>
       <r>  -51.1547    1.0000 </r>
       <r>  -27.9987    1.0000 </r>
       <r>  -27.9235    1.0000 </r>
       <r>  -25.7776    1.0000 </r>
       <r>  -25.7775    1.0000 </r>
       <r>  -25.6577    1.0000 </r>
       <r>  -25.6550    1.0000 </r>
       <r>  -25.5715    1.0000 </r>
       <r>  -25.5713    1.0000 </r>
       <r>  -25.4895    1.0000 </r>
       <r>  -25.3729    1.0000 </r>
       <r>  -25.3352    1.0000 </r>
       <r>  -25.3337    1.0000 </r>
       <r>  -25.3102    1.0000 </r>
       <r>  -25.0896    1.0000 </r>
       <r>  -25.0280    1.0000 </r>
       <r>  -25.0235    1.0000 </r>
       <r>  -24.9807    1.0000 </r>
       <r>  -24.8762    1.0000 </r>
       <r>  -24.8747    1.0000 </r>
       <r>  -24.6790    1.0000 </r>
       <r>  -24.5514    1.0000 </r>
       <r>  -24.5509    1.0000 </r>
       <r>  -23.0135    1.0000 </r>
       <r>  -22.9865    1.0000 </r>
       <r>   -0.0181    1.0000 </r>
       <r>    1.9849    1.0000 </r>
       <r>    2.7711    1.0000 </r>
       <r>    3.8785    1.0000 </r>
       <r>    5.1122    1.0000 </r>
       <r>    5.1917    1.0000 </r>
       <r>    5.3520    1.0000 </r>
       <r>    5.5226    1.0000 </r>
       <r>    5.6367    1.0000 </r>
       <r>    5.7077    1.0000 </r>
       <r>    6.0271    1.0000 </r>
       <r>    6.0466    1.0000 </r>
       <r>    6.2748    1.0000 </r>
       <r>    6.3305    1.0000 </r>
       <r>    6.5618    1.0000 </r>
       <r>    6.9442    1.0000 </r>
       <r>    7.5284    1.0000 </r>
       <r>    8.3186    1.0000 </r>
       <r>    8.7722    1.0000 </r>
       <r>    8.9209    1.0000 </r>
       <r>    9.3402    1.0000 </r>
       <r>    9.4419    1.0000 </r>
       <r>    9.5999    1.0000 </r>
       <r>    9.6694    1.0000 </r>
       <r>    9.7111    1.0000 </r>
       <r>    9.7257    1.0000 </r>
       <r>    9.7763    1.0000 </r>
       <r>    9.8322    1.0000 </r>
       <r>   10.7144    1.0000 </r>
       <r>   10.8836    1.0000 </r>
       <r>   10.9381    0.8001 </r>
       <r>   10.9784    0.0221 </r>
       <r>   11.0163    0.0000 </r>
       <r>   11.2184    0.0000 </r>
       <r>   11.6412    0.0000 </r>
       <r>   11.6917    0.0000 </r>
       <r>   11.7357    0.0000 </r>
       <r>   11.7581    0.0000 </r>
       <r>   12.1076    0.0000 </r>
       <r>   12.1247    0.0000 </r>
       <r>   12.2707    0.0000 </r>
       <r>   12.9947    0.0000 </r>
       <r>   13.0460    0.0000 </r>
       <r>   13.2501    0.0000 </r>
       <r>   13.4638    0.0000 </r>
       <r>   14.6082    0.0000 </r>
      </set>
      <set comment="kpoint 11">
       <r>  -52.1222    1.0000 </r>
       <r>  -52.1219    1.0000 </r>
       <r>  -52.0695    1.0000 </r>
       <r>  -52.0355    1.0000 </r>
       <r>  -51.3897    1.0000 </r>
       <r>  -51.3575    1.0000 </r>
       <r>  -51.2928    1.0000 </r>
       <r>  -51.2922    1.0000 </r>
       <r>  -27.4850    1.0000 </r>
       <r>  -27.4850    1.0000 </r>
       <r>  -27.1577    1.0000 </r>
       <r>  -27.1102    1.0000 </r>
       <r>  -25.6484    1.0000 </r>
       <r>  -25.4993    1.0000 </r>
       <r>  -25.4891    1.0000 </r>
       <r>  -25.4722    1.0000 </r>
       <r>  -25.3804    1.0000 </r>
       <r>  -25.2712    1.0000 </r>
       <r>  -25.2666    1.0000 </r>
       <r>  -25.2233    1.0000 </r>
       <r>  -25.0275    1.0000 </r>
       <r>  -24.9992    1.0000 </r>
       <r>  -24.9930    1.0000 </r>
       <r>  -24.8221    1.0000 </r>
       <r>  -24.7685    1.0000 </r>
       <r>  -24.6964    1.0000 </r>
       <r>  -24.6938    1.0000 </r>
       <r>  -24.5720    1.0000 </r>
       <r>  -24.0823    1.0000 </r>
       <r>  -24.0547    1.0000 </r>
       <r>  -23.6305    1.0000 </r>
       <r>  -23.6304    1.0000 </r>
       <r>    0.8346    1.0000 </r>
       <r>    1.9544    1.0000 </r>
       <r>    2.4185    1.0000 </r>
       <r>    3.1586    1.0000 </r>
       <r>    4.6842    1.0000 </r>
       <r>    5.1537    1.0000 </r>
       <r>    5.4941    1.0000 </r>
       <r>    5.7494    1.0000 </r>
       <r>    6.0291    1.0000 </r>
       <r>    6.1535    1.0000 </r>
       <r>    6.5604    1.0000 </r>
       <r>    6.8463    1.0000 </r>
       <r>    7.0612    1.0000 </r>
       <r>    7.1462    1.0000 </r>
       <r>    7.1631    1.0000 </r>
       <r>    7.1917    1.0000 </r>
       <r>    7.3220    1.0000 </r>
       <r>    7.6610    1.0000 </r>
       <r>    7.6863    1.0000 </r>
       <r>    7.8666    1.0000 </r>
       <r>    8.0880    1.0000 </r>
       <r>    8.2061    1.0000 </r>
       <r>    8.3260    1.0000 </r>
       <r>    8.4017    1.0000 </r>
       <r>    8.5518    1.0000 </r>
       <r>    9.3752    1.0000 </r>
       <r>    9.6804    1.0000 </r>
       <r>    9.7457    1.0000 </r>
       <r>    9.9834    1.0000 </r>
       <r>   10.5933    1.0000 </r>
       <r>   10.7170    1.0000 </r>
       <r>   11.3659    0.0000 </r>
       <r>   11.4384    0.0000 </r>
       <r>   11.4632    0.0000 </r>
       <r>   11.7303    0.0000 </r>
       <r>   12.6401    0.0000 </r>
       <r>   12.8044    0.0000 </r>
       <r>   12.8206    0.0000 </r>
       <r>   13.2180    0.0000 </r>
       <r>   13.2996    0.0000 </r>
       <r>   13.5597    0.0000 </r>
       <r>   13.7026    0.0000 </r>
       <r>   13.8201    0.0000 </r>
       <r>   14.1308    0.0000 </r>
       <r>   14.4870    0.0000 </r>
       <r>   14.6716    0.0000 </r>
      </set>
      <set comment="kpoint 12">
       <r>  -52.1805    1.0000 </r>
       <r>  -52.1693    1.0000 </r>
       <r>  -51.9828    1.0000 </r>
       <r>  -51.9602    1.0000 </r>
       <r>  -51.4755    1.0000 </r>
       <r>  -51.4532    1.0000 </r>
       <r>  -51.2349    1.0000 </r>
       <r>  -51.2249    1.0000 </r>
       <r>  -27.7542    1.0000 </r>
       <r>  -27.7378    1.0000 </r>
       <r>  -26.7204    1.0000 </r>
       <r>  -26.6899    1.0000 </r>
       <r>  -25.6502    1.0000 </r>
       <r>  -25.4674    1.0000 </r>
       <r>  -25.4631    1.0000 </r>
       <r>  -25.4532    1.0000 </r>
       <r>  -25.3691    1.0000 </r>
       <r>  -25.2921    1.0000 </r>
       <r>  -25.2841    1.0000 </r>
       <r>  -25.2042    1.0000 </r>
       <r>  -25.0879    1.0000 </r>
       <r>  -25.0201    1.0000 </r>
       <r>  -24.9496    1.0000 </r>
       <r>  -24.8123    1.0000 </r>
       <r>  -24.7924    1.0000 </r>
       <r>  -24.7261    1.0000 </r>
       <r>  -24.6945    1.0000 </r>
       <r>  -24.5848    1.0000 </r>
       <r>  -24.5626    1.0000 </r>
       <r>  -24.5620    1.0000 </r>
       <r>  -23.2937    1.0000 </r>
       <r>  -23.2869    1.0000 </r>
       <r>    1.3031    1.0000 </r>
       <r>    1.5093    1.0000 </r>
       <r>    2.6983    1.0000 </r>
       <r>    2.8768    1.0000 </r>
       <r>    4.8019    1.0000 </r>
       <r>    5.3444    1.0000 </r>
       <r>    5.4059    1.0000 </r>
       <r>    5.7944    1.0000 </r>
       <r>    5.8004    1.0000 </r>
       <r>    6.2558    1.0000 </r>
       <r>    6.5330    1.0000 </r>
       <r>    6.5898    1.0000 </r>
       <r>    6.7251    1.0000 </r>
       <r>    6.8538    1.0000 </r>
       <r>    6.9961    1.0000 </r>
       <r>    7.2770    1.0000 </r>
       <r>    7.3648    1.0000 </r>
       <r>    7.3817    1.0000 </r>
       <r>    7.7250    1.0000 </r>
       <r>    7.7421    1.0000 </r>
       <r>    7.8267    1.0000 </r>
       <r>    8.4081    1.0000 </r>
       <r>    8.8164    1.0000 </r>
       <r>    9.0772    1.0000 </r>
       <r>    9.1702    1.0000 </r>
       <r>    9.6771    1.0000 </r>
       <r>    9.7905    1.0000 </r>
       <r>   10.0434    1.0000 </r>
       <r>   10.0526    1.0000 </r>
       <r>   10.7299    1.0000 </r>
       <r>   10.8061    1.0000 </r>
       <r>   11.0517    0.0000 </r>
       <r>   11.0758    0.0000 </r>
       <r>   11.4184    0.0000 </r>
       <r>   11.9471    0.0000 </r>
       <r>   11.9611    0.0000 </r>
       <r>   12.1889    0.0000 </r>
       <r>   12.4388    0.0000 </r>
       <r>   12.5850    0.0000 </r>
       <r>   13.0497    0.0000 </r>
       <r>   13.3276    0.0000 </r>
       <r>   13.4168    0.0000 </r>
       <r>   13.8675    0.0000 </r>
       <r>   14.0674    0.0000 </r>
       <r>   14.3886    0.0000 </r>
       <r>   14.4895    0.0000 </r>
      </set>
      <set comment="kpoint 13">
       <r>  -52.2197    1.0000 </r>
       <r>  -52.1959    1.0000 </r>
       <r>  -51.8972    1.0000 </r>
       <r>  -51.8868    1.0000 </r>
       <r>  -51.5560    1.0000 </r>
       <r>  -51.5451    1.0000 </r>
       <r>  -51.2007    1.0000 </r>
       <r>  -51.1798    1.0000 </r>
       <r>  -27.9242    1.0000 </r>
       <r>  -27.8890    1.0000 </r>
       <r>  -26.2247    1.0000 </r>
       <r>  -26.2113    1.0000 </r>
       <r>  -25.6416    1.0000 </r>
       <r>  -25.5544    1.0000 </r>
       <r>  -25.4252    1.0000 </r>
       <r>  -25.4201    1.0000 </r>
       <r>  -25.3426    1.0000 </r>
       <r>  -25.3014    1.0000 </r>
       <r>  -25.2407    1.0000 </r>
       <r>  -25.1911    1.0000 </r>
       <r>  -25.1398    1.0000 </r>
       <r>  -25.1159    1.0000 </r>
       <r>  -25.1051    1.0000 </r>
       <r>  -25.0482    1.0000 </r>
       <r>  -24.8912    1.0000 </r>
       <r>  -24.8805    1.0000 </r>
       <r>  -24.8268    1.0000 </r>
       <r>  -24.7394    1.0000 </r>
       <r>  -24.6258    1.0000 </r>
       <r>  -24.5639    1.0000 </r>
       <r>  -23.0807    1.0000 </r>
       <r>  -23.0676    1.0000 </r>
       <r>    0.9914    1.0000 </r>
       <r>    1.7609    1.0000 </r>
       <r>    2.6138    1.0000 </r>
       <r>    3.0383    1.0000 </r>
       <r>    5.0138    1.0000 </r>
       <r>    5.2070    1.0000 </r>
       <r>    5.4440    1.0000 </r>
       <r>    5.8070    1.0000 </r>
       <r>    5.9193    1.0000 </r>
       <r>    5.9913    1.0000 </r>
       <r>    6.1062    1.0000 </r>
       <r>    6.3583    1.0000 </r>
       <r>    6.7418    1.0000 </r>
       <r>    6.8496    1.0000 </r>
       <r>    6.8767    1.0000 </r>
       <r>    6.9785    1.0000 </r>
       <r>    7.1863    1.0000 </r>
       <r>    7.4325    1.0000 </r>
       <r>    7.5056    1.0000 </r>
       <r>    7.9670    1.0000 </r>
       <r>    8.3671    1.0000 </r>
       <r>    8.6767    1.0000 </r>
       <r>    9.4001    1.0000 </r>
       <r>    9.5017    1.0000 </r>
       <r>    9.8347    1.0000 </r>
       <r>   10.0290    1.0000 </r>
       <r>   10.1606    1.0000 </r>
       <r>   10.2697    1.0000 </r>
       <r>   10.3867    1.0000 </r>
       <r>   10.4306    1.0000 </r>
       <r>   10.7352    1.0000 </r>
       <r>   10.9529    0.4181 </r>
       <r>   11.3773    0.0000 </r>
       <r>   11.4489    0.0000 </r>
       <r>   11.6446    0.0000 </r>
       <r>   11.7838    0.0000 </r>
       <r>   11.8091    0.0000 </r>
       <r>   12.0642    0.0000 </r>
       <r>   12.2923    0.0000 </r>
       <r>   12.4476    0.0000 </r>
       <r>   12.5237    0.0000 </r>
       <r>   12.9152    0.0000 </r>
       <r>   13.2333    0.0000 </r>
       <r>   13.4628    0.0000 </r>
       <r>   14.3005    0.0000 </r>
       <r>   14.6945    0.0000 </r>
      </set>
      <set comment="kpoint 14">
       <r>  -52.2365    1.0000 </r>
       <r>  -52.2014    1.0000 </r>
       <r>  -51.8514    1.0000 </r>
       <r>  -51.8513    1.0000 </r>
       <r>  -51.5937    1.0000 </r>
       <r>  -51.5932    1.0000 </r>
       <r>  -51.1922    1.0000 </r>
       <r>  -51.1614    1.0000 </r>
       <r>  -27.9869    1.0000 </r>
       <r>  -27.9348    1.0000 </r>
       <r>  -25.7781    1.0000 </r>
       <r>  -25.7780    1.0000 </r>
       <r>  -25.6308    1.0000 </r>
       <r>  -25.6208    1.0000 </r>
       <r>  -25.5721    1.0000 </r>
       <r>  -25.5718    1.0000 </r>
       <r>  -25.4244    1.0000 </r>
       <r>  -25.3712    1.0000 </r>
       <r>  -25.3669    1.0000 </r>
[...]
       <r>   11.9345    0.0000 </r>
       <r>   12.8677    0.0000 </r>
       <r>   13.0046    0.0000 </r>
       <r>   13.0504    0.0000 </r>
       <r>   13.1489    0.0000 </r>
       <r>   13.2306    0.0000 </r>
       <r>   13.3172    0.0000 </r>
       <r>   13.4846    0.0000 </r>
       <r>   14.0074    0.0000 </r>
       <r>   14.2863    0.0000 </r>
       <r>   14.3854    0.0000 </r>
       <r>   14.6554    0.0000 </r>
      </set>
      <set comment="kpoint 116">
       <r>  -52.2186    1.0000 </r>
       <r>  -52.2186    1.0000 </r>
       <r>  -51.8761    1.0000 </r>
       <r>  -51.8265    1.0000 </r>
       <r>  -51.6213    1.0000 </r>
       <r>  -51.5672    1.0000 </r>
       <r>  -51.1763    1.0000 </r>
       <r>  -51.1762    1.0000 </r>
       <r>  -27.9600    1.0000 </r>
       <r>  -27.9599    1.0000 </r>
       <r>  -25.8078    1.0000 </r>
       <r>  -25.8057    1.0000 </r>
       <r>  -25.7493    1.0000 </r>
       <r>  -25.6124    1.0000 </r>
       <r>  -25.6036    1.0000 </r>
       <r>  -25.5375    1.0000 </r>
       <r>  -25.3805    1.0000 </r>
       <r>  -25.3168    1.0000 </r>
       <r>  -25.3167    1.0000 </r>
       <r>  -25.3146    1.0000 </r>
       <r>  -25.3138    1.0000 </r>
       <r>  -25.2130    1.0000 </r>
       <r>  -25.0457    1.0000 </r>
       <r>  -25.0456    1.0000 </r>
       <r>  -24.9983    1.0000 </r>
       <r>  -24.7807    1.0000 </r>
       <r>  -24.7805    1.0000 </r>
       <r>  -24.7461    1.0000 </r>
       <r>  -24.6868    1.0000 </r>
       <r>  -24.4482    1.0000 </r>
       <r>  -23.0000    1.0000 </r>
       <r>  -22.9999    1.0000 </r>
       <r>    0.4166    1.0000 </r>
       <r>    1.8358    1.0000 </r>
       <r>    3.1068    1.0000 </r>
       <r>    3.8892    1.0000 </r>
       <r>    4.0258    1.0000 </r>
       <r>    4.5560    1.0000 </r>
       <r>    4.6332    1.0000 </r>
       <r>    4.6559    1.0000 </r>
       <r>    5.7369    1.0000 </r>
       <r>    5.9358    1.0000 </r>
       <r>    5.9382    1.0000 </r>
       <r>    6.4397    1.0000 </r>
       <r>    6.5015    1.0000 </r>
       <r>    6.6443    1.0000 </r>
       <r>    7.3614    1.0000 </r>
       <r>    7.6685    1.0000 </r>
       <r>    7.6832    1.0000 </r>
       <r>    7.7812    1.0000 </r>
       <r>    7.7948    1.0000 </r>
       <r>    7.8439    1.0000 </r>
       <r>    8.1285    1.0000 </r>
       <r>    8.2097    1.0000 </r>
       <r>   10.2099    1.0000 </r>
       <r>   10.2488    1.0000 </r>
       <r>   10.3351    1.0000 </r>
       <r>   10.4262    1.0000 </r>
       <r>   10.4492    1.0000 </r>
       <r>   10.5696    1.0000 </r>
       <r>   10.5814    1.0000 </r>
       <r>   10.7074    1.0000 </r>
       <r>   10.7282    1.0000 </r>
       <r>   10.9125    0.9960 </r>
       <r>   10.9580    0.2840 </r>
       <r>   11.5458    0.0000 </r>
       <r>   12.0621    0.0000 </r>
       <r>   12.1254    0.0000 </r>
       <r>   12.7531    0.0000 </r>
       <r>   12.9994    0.0000 </r>
       <r>   13.0521    0.0000 </r>
       <r>   13.3715    0.0000 </r>
       <r>   13.3740    0.0000 </r>
       <r>   13.4758    0.0000 </r>
       <r>   14.0907    0.0000 </r>
       <r>   14.1764    0.0000 </r>
       <r>   14.4847    0.0000 </r>
       <r>   14.6706    0.0000 </r>
      </set>
     </set>
    </set>
   </array>
  </eigenvalues>
  <separator name="orbital magnetization" >
   <v name="MAGDIPOLOUT">      0.00000000      0.00000000      0.00000000</v>
  </separator>
  <dos>
   <i name="efermi">     10.94997600 </i>
   <total>
    <array>
     <dimension dim="1">gridpoints</dimension>
     <dimension dim="2">spin</dimension>
     <field>energy</field>
     <field>total</field>
     <field>integrated</field>
     <set>
      <set comment="spin 1">
       <r>   -55.6416     0.0000     0.0000 </r>
       <r>   -55.3927     0.0000     0.0000 </r>
       <r>   -55.1437     0.0000     0.0000 </r>
       <r>   -54.8948     0.0000     0.0000 </r>
       <r>   -54.6459     0.0000     0.0000 </r>
       <r>   -54.3970     0.0000     0.0000 </r>
       <r>   -54.1481     0.0000     0.0000 </r>
       <r>   -53.8991     0.0000     0.0000 </r>
       <r>   -53.6502     0.0000     0.0000 </r>
       <r>   -53.4013     0.0000     0.0000 </r>
       <r>   -53.1524     0.0000     0.0000 </r>
       <r>   -52.9035     0.0000     0.0000 </r>
       <r>   -52.6546     0.0000     0.0000 </r>
       <r>   -52.4056     0.0000     0.0000 </r>
       <r>   -52.1567    10.7985     2.6879 </r>
       <r>   -51.9078     9.3666     6.5254 </r>
       <r>   -51.6589     0.0006     8.0001 </r>
       <r>   -51.4100     8.9335    10.8870 </r>
       <r>   -51.1610    15.3172    15.8127 </r>
       <r>   -50.9121     0.0000    16.0000 </r>
       <r>   -50.6632     0.0000    16.0000 </r>
       <r>   -50.4143     0.0000    16.0000 </r>
       <r>   -50.1654     0.0000    16.0000 </r>
       <r>   -49.9165     0.0000    16.0000 </r>
       <r>   -49.6675     0.0000    16.0000 </r>
       <r>   -49.4186     0.0000    16.0000 </r>
       <r>   -49.1697     0.0000    16.0000 </r>
       <r>   -48.9208     0.0000    16.0000 </r>
       <r>   -48.6719     0.0000    16.0000 </r>
       <r>   -48.4230     0.0000    16.0000 </r>
       <r>   -48.1740     0.0000    16.0000 </r>
       <r>   -47.9251     0.0000    16.0000 </r>
       <r>   -47.6762     0.0000    16.0000 </r>
       <r>   -47.4273     0.0000    16.0000 </r>
       <r>   -47.1784     0.0000    16.0000 </r>
       <r>   -46.9294     0.0000    16.0000 </r>
       <r>   -46.6805     0.0000    16.0000 </r>
       <r>   -46.4316     0.0000    16.0000 </r>
       <r>   -46.1827     0.0000    16.0000 </r>
       <r>   -45.9338     0.0000    16.0000 </r>
       <r>   -45.6849     0.0000    16.0000 </r>
       <r>   -45.4359     0.0000    16.0000 </r>
       <r>   -45.1870     0.0000    16.0000 </r>
       <r>   -44.9381     0.0000    16.0000 </r>
       <r>   -44.6892     0.0000    16.0000 </r>
       <r>   -44.4403     0.0000    16.0000 </r>
       <r>   -44.1913     0.0000    16.0000 </r>
       <r>   -43.9424     0.0000    16.0000 </r>
       <r>   -43.6935     0.0000    16.0000 </r>
       <r>   -43.4446     0.0000    16.0000 </r>
       <r>   -43.1957     0.0000    16.0000 </r>
       <r>   -42.9468     0.0000    16.0000 </r>
       <r>   -42.6978     0.0000    16.0000 </r>
       <r>   -42.4489     0.0000    16.0000 </r>
       <r>   -42.2000     0.0000    16.0000 </r>
       <r>   -41.9511     0.0000    16.0000 </r>
       <r>   -41.7022     0.0000    16.0000 </r>
       <r>   -41.4532     0.0000    16.0000 </r>
       <r>   -41.2043     0.0000    16.0000 </r>
       <r>   -40.9554     0.0000    16.0000 </r>
       <r>   -40.7065     0.0000    16.0000 </r>
       <r>   -40.4576     0.0000    16.0000 </r>
       <r>   -40.2087     0.0000    16.0000 </r>
       <r>   -39.9597     0.0000    16.0000 </r>
       <r>   -39.7108     0.0000    16.0000 </r>
       <r>   -39.4619     0.0000    16.0000 </r>
       <r>   -39.2130     0.0000    16.0000 </r>
       <r>   -38.9641     0.0000    16.0000 </r>
       <r>   -38.7152     0.0000    16.0000 </r>
       <r>   -38.4662     0.0000    16.0000 </r>
       <r>   -38.2173     0.0000    16.0000 </r>
       <r>   -37.9684     0.0000    16.0000 </r>
       <r>   -37.7195     0.0000    16.0000 </r>
       <r>   -37.4706     0.0000    16.0000 </r>
       <r>   -37.2216     0.0000    16.0000 </r>
       <r>   -36.9727     0.0000    16.0000 </r>
       <r>   -36.7238     0.0000    16.0000 </r>
       <r>   -36.4749     0.0000    16.0000 </r>
       <r>   -36.2260     0.0000    16.0000 </r>
       <r>   -35.9771     0.0000    16.0000 </r>
       <r>   -35.7281     0.0000    16.0000 </r>
       <r>   -35.4792     0.0000    16.0000 </r>
       <r>   -35.2303     0.0000    16.0000 </r>
       <r>   -34.9814     0.0000    16.0000 </r>
       <r>   -34.7325     0.0000    16.0000 </r>
       <r>   -34.4835     0.0000    16.0000 </r>
       <r>   -34.2346     0.0000    16.0000 </r>
       <r>   -33.9857     0.0000    16.0000 </r>
       <r>   -33.7368     0.0000    16.0000 </r>
       <r>   -33.4879     0.0000    16.0000 </r>
       <r>   -33.2390     0.0000    16.0000 </r>
       <r>   -32.9900     0.0000    16.0000 </r>
       <r>   -32.7411     0.0000    16.0000 </r>
       <r>   -32.4922     0.0000    16.0000 </r>
       <r>   -32.2433     0.0000    16.0000 </r>
       <r>   -31.9944     0.0000    16.0000 </r>
       <r>   -31.7455     0.0000    16.0000 </r>
       <r>   -31.4965     0.0000    16.0000 </r>
       <r>   -31.2476     0.0000    16.0000 </r>
       <r>   -30.9987     0.0000    16.0000 </r>
       <r>   -30.7498     0.0000    16.0000 </r>
       <r>   -30.5009     0.0000    16.0000 </r>
       <r>   -30.2519     0.0000    16.0000 </r>
       <r>   -30.0030     0.0000    16.0000 </r>
       <r>   -29.7541     0.0000    16.0000 </r>
       <r>   -29.5052     0.0000    16.0000 </r>
       <r>   -29.2563     0.0000    16.0000 </r>
       <r>   -29.0074     0.0000    16.0000 </r>
       <r>   -28.7584     0.0000    16.0000 </r>
       <r>   -28.5095     0.0000    16.0000 </r>
       <r>   -28.2606     0.0000    16.0000 </r>
       <r>   -28.0117     0.0439    16.0109 </r>
       <r>   -27.7628     4.6921    18.0098 </r>
       <r>   -27.5138     0.5890    19.0037 </r>
       <r>   -27.2649     0.0000    20.0000 </r>
       <r>   -27.0160     4.5913    21.1429 </r>
       <r>   -26.7671     0.0085    21.1450 </r>
       <r>   -26.5182     0.3280    22.2857 </r>
       <r>   -26.2693     0.0361    22.2947 </r>
       <r>   -26.0203     0.0000    23.4286 </r>
       <r>   -25.7714     1.8433    23.8874 </r>
       <r>   -25.5225    14.6619    28.4557 </r>
       <r>   -25.2736    22.7572    36.5984 </r>
       <r>   -25.0247    19.2723    44.4860 </r>
       <r>   -24.7757    16.7725    51.0270 </r>
       <r>   -24.5268    18.4002    58.2485 </r>
       <r>   -24.2779     0.0000    58.8571 </r>
       <r>   -24.0290     4.5312    59.9850 </r>
       <r>   -23.7801     0.0000    60.0000 </r>
       <r>   -23.5312     4.5913    61.1429 </r>
       <r>   -23.2822     3.1556    61.9283 </r>
       <r>   -23.0333     4.6087    63.4329 </r>
       <r>   -22.7844     0.0000    64.0000 </r>
       <r>   -22.5355     0.0000    64.0000 </r>
       <r>   -22.2866     0.0000    64.0000 </r>
       <r>   -22.0377     0.0000    64.0000 </r>
       <r>   -21.7887     0.0000    64.0000 </r>
       <r>   -21.5398     0.0000    64.0000 </r>
       <r>   -21.2909     0.0000    64.0000 </r>
       <r>   -21.0420     0.0000    64.0000 </r>
       <r>   -20.7931     0.0000    64.0000 </r>
       <r>   -20.5441     0.0000    64.0000 </r>
       <r>   -20.2952     0.0000    64.0000 </r>
       <r>   -20.0463     0.0000    64.0000 </r>
       <r>   -19.7974     0.0000    64.0000 </r>
       <r>   -19.5485     0.0000    64.0000 </r>
       <r>   -19.2996     0.0000    64.0000 </r>
       <r>   -19.0506     0.0000    64.0000 </r>
       <r>   -18.8017     0.0000    64.0000 </r>
       <r>   -18.5528     0.0000    64.0000 </r>
       <r>   -18.3039     0.0000    64.0000 </r>
       <r>   -18.0550     0.0000    64.0000 </r>
       <r>   -17.8060     0.0000    64.0000 </r>
       <r>   -17.5571     0.0000    64.0000 </r>
       <r>   -17.3082     0.0000    64.0000 </r>
       <r>   -17.0593     0.0000    64.0000 </r>
       <r>   -16.8104     0.0000    64.0000 </r>
       <r>   -16.5615     0.0000    64.0000 </r>
       <r>   -16.3125     0.0000    64.0000 </r>
       <r>   -16.0636     0.0000    64.0000 </r>
       <r>   -15.8147     0.0000    64.0000 </r>
       <r>   -15.5658     0.0000    64.0000 </r>
       <r>   -15.3169     0.0000    64.0000 </r>
       <r>   -15.0679     0.0000    64.0000 </r>
       <r>   -14.8190     0.0000    64.0000 </r>
       <r>   -14.5701     0.0000    64.0000 </r>
       <r>   -14.3212     0.0000    64.0000 </r>
       <r>   -14.0723     0.0000    64.0000 </r>
       <r>   -13.8234     0.0000    64.0000 </r>
       <r>   -13.5744     0.0000    64.0000 </r>
       <r>   -13.3255     0.0000    64.0000 </r>
       <r>   -13.0766     0.0000    64.0000 </r>
       <r>   -12.8277     0.0000    64.0000 </r>
       <r>   -12.5788     0.0000    64.0000 </r>
       <r>   -12.3299     0.0000    64.0000 </r>
       <r>   -12.0809     0.0000    64.0000 </r>
       <r>   -11.8320     0.0000    64.0000 </r>
       <r>   -11.5831     0.0000    64.0000 </r>
       <r>   -11.3342     0.0000    64.0000 </r>
       <r>   -11.0853     0.0000    64.0000 </r>
       <r>   -10.8363     0.0000    64.0000 </r>
       <r>   -10.5874     0.0000    64.0000 </r>
       <r>   -10.3385     0.0000    64.0000 </r>
       <r>   -10.0896     0.0000    64.0000 </r>
       <r>    -9.8407     0.0000    64.0000 </r>
       <r>    -9.5918     0.0000    64.0000 </r>
       <r>    -9.3428     0.0000    64.0000 </r>
       <r>    -9.0939     0.0000    64.0000 </r>
       <r>    -8.8450     0.0000    64.0000 </r>
       <r>    -8.5961     0.0000    64.0000 </r>
       <r>    -8.3472     0.0000    64.0000 </r>
       <r>    -8.0982     0.0000    64.0000 </r>
       <r>    -7.8493     0.0000    64.0000 </r>
       <r>    -7.6004     0.0000    64.0000 </r>
       <r>    -7.3515     0.0000    64.0000 </r>
       <r>    -7.1026     0.0000    64.0000 </r>
       <r>    -6.8537     0.0000    64.0000 </r>
       <r>    -6.6047     0.0000    64.0000 </r>
       <r>    -6.3558     0.0000    64.0000 </r>
       <r>    -6.1069     0.0000    64.0000 </r>
       <r>    -5.8580     0.0000    64.0000 </r>
       <r>    -5.6091     0.0000    64.0000 </r>
       <r>    -5.3601     0.0000    64.0000 </r>
       <r>    -5.1112     0.0000    64.0000 </r>
       <r>    -4.8623     0.0000    64.0000 </r>
       <r>    -4.6134     0.0000    64.0000 </r>
       <r>    -4.3645     0.0000    64.0000 </r>
       <r>    -4.1156     0.0000    64.0000 </r>
       <r>    -3.8666     0.0000    64.0000 </r>
       <r>    -3.6177     0.0000    64.0000 </r>
       <r>    -3.3688     0.0000    64.0000 </r>
       <r>    -3.1199     0.0000    64.0000 </r>
       <r>    -2.8710     0.0000    64.0000 </r>
       <r>    -2.6221     0.0000    64.0000 </r>
       <r>    -2.3731     0.0000    64.0000 </r>
       <r>    -2.1242     0.0000    64.0000 </r>
       <r>    -1.8753     0.0000    64.0000 </r>
       <r>    -1.6264     0.0000    64.0000 </r>
       <r>    -1.3775     0.0000    64.0000 </r>
       <r>    -1.1285     0.0000    64.0000 </r>
       <r>    -0.8796     0.0000    64.0000 </r>
       <r>    -0.6307     0.0000    64.0000 </r>
       <r>    -0.3818     0.0000    64.0000 </r>
       <r>    -0.1329     0.0627    64.0156 </r>
       <r>     0.1160     0.3915    64.1638 </r>
       <r>     0.3650     0.6800    64.4091 </r>
       <r>     0.6139     0.9464    64.7407 </r>
       <r>     0.8628     1.2136    65.1439 </r>
       <r>     1.1117     0.9203    65.4587 </r>
       <r>     1.3606     1.5870    66.0124 </r>
       <r>     1.6096     1.0610    66.4988 </r>
       <r>     1.8585     1.8129    67.0686 </r>
       <r>     2.1074     1.4466    67.7376 </r>
       <r>     2.3563     1.8261    68.3729 </r>
       <r>     2.6052     2.1751    69.1435 </r>
       <r>     2.8541     2.7715    70.0827 </r>
       <r>     3.1031     1.8325    70.8184 </r>
       <r>     3.3520     0.9012    71.2754 </r>
       <r>     3.6009     0.6820    71.5524 </r>
       <r>     3.8498     0.5589    71.7871 </r>
       <r>     4.0987     0.8276    72.0580 </r>
       <r>     4.3476     0.6601    72.3021 </r>
       <r>     4.5966     1.1743    72.6903 </r>
       <r>     4.8455     2.1633    73.4466 </r>
       <r>     5.0944     3.4605    74.6573 </r>
       <r>     5.3433     5.3936    76.6997 </r>
       <r>     5.5922     4.5206    78.5130 </r>
       <r>     5.8412     5.8953    80.4674 </r>
       <r>     6.0901     6.3351    82.8524 </r>
       <r>     6.3390     6.8725    85.4556 </r>
       <r>     6.5879     8.2375    88.2545 </r>
       <r>     6.8368     7.2968    91.2245 </r>
       <r>     7.0857     5.4430    93.6457 </r>
       <r>     7.3347     7.7700    96.7096 </r>
       <r>     7.5836     5.7635    98.7561 </r>
       <r>     7.8325     5.9526   101.1144 </r>
       <r>     8.0814     5.4403   103.1960 </r>
       <r>     8.3303     6.0828   105.5855 </r>
       <r>     8.5793     3.4529   107.0279 </r>
       <r>     8.8282     3.8473   108.4066 </r>
       <r>     9.0771     3.8321   110.0304 </r>
       <r>     9.3260     5.0943   112.0946 </r>
       <r>     9.5749     4.4167   113.8137 </r>
       <r>     9.8238     6.9264   116.3057 </r>
       <r>    10.0728     5.9973   118.7939 </r>
       <r>    10.3217     6.2346   120.9805 </r>
       <r>    10.5706     4.6217   122.9770 </r>
       <r>    10.8195     5.3766   124.8281 </r>
       <r>    11.0684     5.0285   126.9609 </r>
       <r>    11.3174     4.2519   129.0329 </r>
       <r>    11.5663     5.7458   131.2363 </r>
       <r>    11.8152     7.6608   134.0396 </r>
       <r>    12.0641     6.7520   136.6501 </r>
       <r>    12.3130     4.1251   138.5421 </r>
       <r>    12.5619     4.8640   140.4913 </r>
       <r>    12.8109     4.6025   142.2477 </r>
       <r>    13.0598     5.1980   144.3041 </r>
       <r>    13.3087     4.5642   146.0596 </r>
       <r>    13.5576     4.9110   148.0541 </r>
       <r>    13.8065     4.3827   149.8817 </r>
       <r>    14.0554     4.1042   151.4502 </r>
       <r>    14.3044     4.2595   153.1521 </r>
       <r>    14.5533     3.0563   154.3985 </r>
       <r>    14.8022     2.7428   155.5348 </r>
       <r>    15.0511     0.6718   155.8764 </r>
       <r>    15.3000     0.0000   155.9592 </r>
       <r>    15.5490     0.0820   155.9796 </r>
       <r>    15.7979     0.0820   156.0000 </r>
       <r>    16.0468     0.0000   156.0000 </r>
       <r>    16.2957     0.0000   156.0000 </r>
       <r>    16.5446     0.0000   156.0000 </r>
       <r>    16.7935     0.0000   156.0000 </r>
       <r>    17.0425     0.0000   156.0000 </r>
       <r>    17.2914     0.0000   156.0000 </r>
       <r>    17.5403     0.0000   156.0000 </r>
       <r>    17.7892     0.0000   156.0000 </r>
       <r>    18.0381     0.0000   156.0000 </r>
       <r>    18.2871     0.0000   156.0000 </r>
       <r>    18.5360     0.0000   156.0000 </r>
       <r>    18.7849     0.0000   156.0000 </r>
       <r>    19.0338     0.0000   156.0000 </r>
      </set>
     </set>
    </array>
   </total>
  </dos>
 </calculation>
 <structure name="finalpos" >
  <crystal>
   <varray name="basis" >
    <v>       5.42460982       0.00000000      -3.14681359 </v>
    <v>      -1.79970206       5.11736887      -3.14681359 </v>
    <v>       0.00000000       0.00000000       6.27127000 </v>
   </varray>
   <i name="volume">    174.08875829 </i>
   <varray name="rec_basis" >
    <v>       0.18434506       0.06483140       0.00000000 </v>
    <v>       0.00000000       0.19541292       0.00000000 </v>
    <v>       0.09250112       0.13058605       0.15945733 </v>
   </varray>
  </crystal>
  <varray name="positions" >
   <v>       0.50000000       0.00000000       0.50000000 </v>
   <v>       0.00000000       0.50000000       0.50000000 </v>
   <v>       0.50000000       0.50000000       0.50000000 </v>
   <v>       0.24842000       0.74842000       0.99685000 </v>
   <v>       0.75158000       0.25158000       0.00315000 </v>
   <v>       0.50000000       0.00000000       0.00000000 </v>
   <v>       0.74842000       0.75158000       0.50000000 </v>
   <v>       0.25158000       0.24842000       0.50000000 </v>
   <v>       0.00000000       0.00000000       0.50000000 </v>
   <v>       0.00000000       0.50000000       0.00000000 </v>
   <v>       0.25000000       0.25000000       0.00000000 </v>
   <v>       0.75000000       0.75000000       0.00000000 </v>
  </varray>
 </structure>
</modeling>
