 vasp.6.2.0 18Jan21 (build Jan 05 2022 15:41:44) complex                        
  
 executed on             LinuxIFC date 2025.05.07  19:45:29
 running on   24 total cores
 distrk:  each k-point on   12 cores,    2 groups
 distr:  one band on NCORE=   2 cores,    6 groups


--------------------------------------------------------------------------------------------------------


 INCAR:
   SYSTEM = routine with relax: pwdword
   ICHARG = 2
   NPAR = 6
   KPAR = 2
   NCORE = 2
   ADDGRID = T
   PREC = Acc
   ENCUT = 600
   METAGGA = R2SCAN
   LASPH = .TRUE.
   LMIXTAU = .FALSE.
   ALGO = A
   EDIFF = 1E-9
   NELM = 100
   NELMIN = 6
   IALGO = 38
   LREAL = F
   NSW = 0
   ISIF = -1
   ISMEAR = 0
   SIGMA = 0.02

 POTCAR:    PAW_PBE B 06Sep2000                   
 POTCAR:    PAW_PBE Mo_sv 02Feb2006               
 POTCAR:    PAW_PBE Si 05Jan2001                  
 -----------------------------------------------------------------------------
|                                                                             |
|           W    W    AA    RRRRR   N    N  II  N    N   GGGG   !!!           |
|           W    W   A  A   R    R  NN   N  II  NN   N  G    G  !!!           |
|           W    W  A    A  R    R  N N  N  II  N N  N  G       !!!           |
|           W WW W  AAAAAA  RRRRR   N  N N  II  N  N N  G  GGG   !            |
|           WW  WW  A    A  R   R   N   NN  II  N   NN  G    G                |
|           W    W  A    A  R    R  N    N  II  N    N   GGGG   !!!           |
|                                                                             |
|     For optimal performance we recommend to set                             |
|       NCORE = 2 up to number-of-cores-per-socket                            |
|     NCORE specifies how many cores store one orbital (NPAR=cpu/NCORE).      |
|     This setting can greatly improve the performance of VASP for DFT.       |
|     The default, NCORE=1 might be grossly inefficient on modern             |
|     multi-core architectures or massively parallel machines. Do your        |
|     own testing! More info at https://www.vasp.at/wiki/index.php/NCORE      |
|     Unfortunately you need to use the default for GW and RPA                |
|     calculations (for HF NCORE is supported but not extensively tested      |
|     yet).                                                                   |
|                                                                             |
 -----------------------------------------------------------------------------

 POTCAR:    PAW_PBE B 06Sep2000                   
   VRHFIN =B: s2p1                                                                                  
   LEXCH  = PE                                                                                      
   EATOM  =    71.1703 eV,    5.2309 Ry                                                             
                                                                                                    
   TITEL  = PAW_PBE B 06Sep2000                                                                     
   LULTRA =        F    use ultrasoft PP ?                                                          
   IUNSCR =        1    unscreen: 0-lin 1-nonlin 2-no                                               
   RPACOR =    1.200    partial core radius                                                         
   POMASS =   10.811; ZVAL   =    3.000    mass and valenz                                          
   RCORE  =    1.700    outmost cutoff radius                                                       
   RWIGS  =    1.710; RWIGS  =    0.905    wigner-seitz radius (au A)                               
   ENMAX  =  318.614; ENMIN  =  238.960 eV                                                          
   ICORE  =        2    local potential                                                             
   LCOR   =        T    correct aug charges                                                         
   LPAW   =        T    paw PP                                                                      
   EAUG   =  535.514                                                                                
   DEXC   =    0.000                                                                                
   RMAX   =    1.732    core radius for proj-oper                                                   
   RAUG   =    1.300    factor for augmentation sphere                                              
   RDEP   =    1.757    radius for radial grids                                                     
   RDEPT  =    1.436    core radius for aug-charge                                                  
                                                                                                    
   Atomic configuration                                                                             
    4 entries                                                                                       
     n  l   j            E        occ.                                                              
     1  0  0.50      -180.5896   2.0000                                                             
     2  0  0.50        -9.4431   2.0000                                                             
     2  1  0.50        -3.6068   1.0000                                                             
     3  2  1.50        -4.0817   0.0000                                                             
   Description                                                                                      
     l       E           TYP  RCUT    TYP  RCUT                                                     
     0     -9.4430752     23  1.500                                                                 
     0      0.8675899     23  1.500                                                                 
     1     -3.6067955     23  1.700                                                                 
     1      6.1086146     23  1.700                                                                 
     2     -4.0817478      7  1.700                                                                 
  local pseudopotential read in
  partial core-charges read in
  partial kinetic energy density read in
  atomic valenz-charges read in
  non local Contribution for L=           0  read in
    real space projection operators read in
  non local Contribution for L=           0  read in
    real space projection operators read in
  non local Contribution for L=           1  read in
    real space projection operators read in
  non local Contribution for L=           1  read in
    real space projection operators read in
    PAW grid and wavefunctions read in
 
   number of l-projection  operators is LMAX  =           4
   number of lm-projection operators is LMMAX =           8
 
 POTCAR:    PAW_PBE Mo_sv 02Feb2006               
   VRHFIN =Mo: 4p5s4d                                                                               
   LEXCH  = PE                                                                                      
   EATOM  =  1862.2866 eV,  136.8742 Ry                                                             
                                                                                                    
   TITEL  = PAW_PBE Mo_sv 02Feb2006                                                                 
   LULTRA =        F    use ultrasoft PP ?                                                          
   IUNSCR =        1    unscreen: 0-lin 1-nonlin 2-no                                               
   RPACOR =    2.200    partial core radius                                                         
   POMASS =   95.940; ZVAL   =   14.000    mass and valenz                                          
   RCORE  =    2.500    outmost cutoff radius                                                       
   RWIGS  =    2.750; RWIGS  =    1.455    wigner-seitz radius (au A)                               
   ENMAX  =  242.676; ENMIN  =  182.007 eV                                                          
   ICORE  =        3    local potential                                                             
   LCOR   =        T    correct aug charges                                                         
   LPAW   =        T    paw PP                                                                      
   EAUG   =  446.014                                                                                
   DEXC   =    0.000                                                                                
   RMAX   =    2.563    core radius for proj-oper                                                   
   RAUG   =    1.300    factor for augmentation sphere                                              
   RDEP   =    2.641    radius for radial grids                                                     
   RDEPT  =    2.031    core radius for aug-charge                                                  
                                                                                                    
   Atomic configuration                                                                             
   11 entries                                                                                       
     n  l   j            E        occ.                                                              
     1  0  0.50    -19819.0341   2.0000                                                             
     2  0  0.50     -2799.0127   2.0000                                                             
     2  1  1.50     -2502.0276   6.0000                                                             
     3  0  0.50      -476.4449   2.0000                                                             
     3  1  1.50      -379.1496   6.0000                                                             
     3  2  2.50      -220.9367  10.0000                                                             
     4  0  0.50       -64.3378   2.0000                                                             
     5  0  0.50        -4.0862   1.0000                                                             
     4  1  1.50       -38.4773   6.0000                                                             
     4  2  2.50        -3.7535   5.0000                                                             
     4  3  2.50        -1.3606   0.0000                                                             
   Description                                                                                      
     l       E           TYP  RCUT    TYP  RCUT                                                     
     0    -64.3377829     23  2.100                                                                 
     0     -4.0861640     23  2.400                                                                 
     1    -38.4772993     23  2.100                                                                 
     1     13.6058260     23  2.100                                                                 
     2     -3.7534941     23  2.400                                                                 
     2     -5.1140767     23  2.400                                                                 
     3     -4.0817478     23  2.500                                                                 
  local pseudopotential read in
  partial core-charges read in
  partial kinetic energy density read in
  atomic valenz-charges read in
  non local Contribution for L=           0  read in
    real space projection operators read in
  non local Contribution for L=           0  read in
    real space projection operators read in
  non local Contribution for L=           1  read in
    real space projection operators read in
  non local Contribution for L=           1  read in
    real space projection operators read in
  non local Contribution for L=           2  read in
    real space projection operators read in
  non local Contribution for L=           2  read in
    real space projection operators read in
    PAW grid and wavefunctions read in
 
   number of l-projection  operators is LMAX  =           6
   number of lm-projection operators is LMMAX =          18
 
 POTCAR:    PAW_PBE Si 05Jan2001                  
   VRHFIN =Si: s2p2                                                                                 
   LEXCH  = PE                                                                                      
   EATOM  =   103.0669 eV,    7.5752 Ry                                                             
                                                                                                    
   TITEL  = PAW_PBE Si 05Jan2001                                                                    
   LULTRA =        F    use ultrasoft PP ?                                                          
   IUNSCR =        1    unscreen: 0-lin 1-nonlin 2-no                                               
   RPACOR =    1.500    partial core radius                                                         
   POMASS =   28.085; ZVAL   =    4.000    mass and valenz                                          
   RCORE  =    1.900    outmost cutoff radius                                                       
   RWIGS  =    2.480; RWIGS  =    1.312    wigner-seitz radius (au A)                               
   ENMAX  =  245.345; ENMIN  =  184.009 eV                                                          
   ICORE  =        2    local potential                                                             
   LCOR   =        T    correct aug charges                                                         
   LPAW   =        T    paw PP                                                                      
   EAUG   =  322.069                                                                                
   DEXC   =    0.000                                                                                
   RMAX   =    1.950    core radius for proj-oper                                                   
   RAUG   =    1.300    factor for augmentation sphere                                              
   RDEP   =    1.993    radius for radial grids                                                     
   RDEPT  =    1.837    core radius for aug-charge                                                  
                                                                                                    
   Atomic configuration                                                                             
    6 entries                                                                                       
     n  l   j            E        occ.                                                              
     1  0  0.50     -1785.8828   2.0000                                                             
     2  0  0.50      -139.4969   2.0000                                                             
     2  1  1.50       -95.5546   6.0000                                                             
     3  0  0.50       -10.8127   2.0000                                                             
     3  1  0.50        -4.0811   2.0000                                                             
     3  2  1.50        -4.0817   0.0000                                                             
   Description                                                                                      
     l       E           TYP  RCUT    TYP  RCUT                                                     
     0    -10.8127223     23  1.900                                                                 
     0     -7.6451159     23  1.900                                                                 
     1     -4.0811372     23  1.900                                                                 
     1      2.4879257     23  1.900                                                                 
     2     -4.0817478      7  1.900                                                                 
  local pseudopotential read in
  partial core-charges read in
  partial kinetic energy density read in
  atomic valenz-charges read in
  non local Contribution for L=           0  read in
    real space projection operators read in
  non local Contribution for L=           0  read in
    real space projection operators read in
  non local Contribution for L=           1  read in
    real space projection operators read in
  non local Contribution for L=           1  read in
    real space projection operators read in
    PAW grid and wavefunctions read in
 
   number of l-projection  operators is LMAX  =           4
   number of lm-projection operators is LMMAX =           8
 
  PAW_PBE B 06Sep2000                   :
 energy of atom  1       EATOM=  -71.1703
 kinetic energy error for atom=    0.0007 (will be added to EATOM!!)
  PAW_PBE Mo_sv 02Feb2006               :
 energy of atom  2       EATOM=-1862.2866
 kinetic energy error for atom=    0.0041 (will be added to EATOM!!)
  PAW_PBE Si 05Jan2001                  :
 energy of atom  3       EATOM= -103.0669
 kinetic energy error for atom=    0.0003 (will be added to EATOM!!)
 
 
 POSCAR: EA195
  positions in direct lattice
  No initial velocities read in

 METAGGA = R2SCA    LMAXTAU =  6    LMIXTAU =  F

 exchange correlation table for  LEXCH =        8
   RHO(1)=    0.500       N(1)  =     2000
   RHO(2)=  100.500       N(2)  =     4000
 


--------------------------------------------------------------------------------------------------------


 ion  position               nearest neighbor table
   1  0.500  0.500  0.500-   8 2.00   6 2.00  12 2.00  11 2.00  10 2.07   9 2.07
   2  0.500  0.000  0.000-  11 2.00  12 2.00   6 2.00   8 2.00   7 2.07   5 2.07
   3  0.000  0.000  0.500-   6 2.00   8 2.00  12 2.00  11 2.00  10 2.07   9 2.07
   4  0.000  0.500  0.000-  12 2.00  11 2.00   6 2.00   8 2.00   7 2.07   5 2.07
   5  0.752  0.252  0.004-   2 2.07   4 2.07  10 2.83   9 2.83   9 2.83  10 2.83  12 2.87  11 2.87
                             6 2.88   8 2.88   8 2.88   6 2.88  12 2.89  11 2.89
   6  0.250  0.250  0.000-   1 2.00   3 2.00   4 2.00   2 2.00  12 2.83  11 2.83  12 2.83  11 2.83
                            10 2.88  10 2.88   7 2.88   5 2.88   9 2.88   9 2.88   7 2.88   5 2.88
   7  0.248  0.748  0.996-   2 2.07   4 2.07   9 2.83  10 2.83   9 2.83  10 2.83  11 2.87  12 2.87
                             8 2.88   6 2.88   6 2.88   8 2.88  11 2.89  12 2.89
   8  0.750  0.750  0.000-   3 2.00   1 2.00   4 2.00   2 2.00  12 2.83  11 2.83  11 2.83  12 2.83
                             9 2.88   9 2.88   7 2.88   5 2.88  10 2.88  10 2.88   5 2.88   7 2.88
   9  0.252  0.248  0.500-   1 2.07   3 2.07   7 2.83   5 2.83   7 2.83   5 2.83  11 2.87  12 2.87
                             8 2.88   8 2.88   6 2.88   6 2.88  12 2.89  11 2.89
  10  0.748  0.752  0.500-   1 2.07   3 2.07   5 2.83   7 2.83   5 2.83   7 2.83  11 2.87  12 2.87
                             6 2.88   6 2.88   8 2.88   8 2.88  11 2.89  12 2.89
  11  0.750  0.250  0.500-   4 2.00   2 2.00   1 2.00   3 2.00   8 2.83   6 2.83   8 2.83   6 2.83
                             7 2.87  10 2.87   9 2.87   5 2.87   7 2.89   5 2.89  10 2.89   9 2.89
  12  0.250  0.750  0.500-   2 2.00   4 2.00   3 2.00   1 2.00   8 2.83   6 2.83   6 2.83   8 2.83
                             5 2.87  10 2.87   9 2.87   7 2.87   5 2.89   7 2.89   9 2.89  10 2.89
 
  LATTYP: Found a body centered tetragonal cell.
 ALAT       =     5.6680291121
 C/A-ratio  =     1.4573176368
  
  Lattice vectors:
  
 A1 = (   4.9331527083,   0.0000000000,  -2.9639028257)
 A2 = (  -1.5792445128,   4.6735406720,  -2.9639028257)
 A3 = (   0.0000000000,   0.0000000000,   5.7550600000)


Analysis of symmetry for initial positions (statically):
=====================================================================
 Subroutine PRICEL returns:
 Original cell was already a primitive cell.
 

 Routine SETGRP: Setting up the symmetry group for a 
 body centered tetragonal supercell.


 Subroutine GETGRP returns: Found 16 space group operations
 (whereof  8 operations were pure point group operations)
 out of a pool of 16 trial point group operations.


The static configuration has the point symmetry C_4h.
 The point group associated with its full space group is D_4h.


Analysis of symmetry for dynamics (positions and initial velocities):
=====================================================================
 Subroutine PRICEL returns:
 Original cell was already a primitive cell.
 

 Routine SETGRP: Setting up the symmetry group for a 
 body centered tetragonal supercell.


 Subroutine GETGRP returns: Found 16 space group operations
 (whereof  8 operations were pure point group operations)
 out of a pool of 16 trial point group operations.


The dynamic configuration has the point symmetry C_4h.
 The point group associated with its full space group is D_4h.


 Subroutine INISYM returns: Found 16 space group operations
 (whereof  8 operations are pure point group operations),
 and found     1 'primitive' translations


----------------------------------------------------------------------------------------

                                     Primitive cell                                     

  volume of cell :     132.6846

  direct lattice vectors                    reciprocal lattice vectors
     4.933152708  0.000000000 -2.963902826     0.202710125  0.068498142  0.000000000
    -1.579244513  4.673540672 -2.963902826     0.000000000  0.213970535  0.000000000
     0.000000000  0.000000000  5.755060000     0.104397367  0.145473672  0.173760135

  length of vectors
     5.755060000  5.755060000  5.755060000     0.213970535  0.213970535  0.249507483

  position of ions in fractional coordinates (direct lattice)
     0.500000000  0.500000000  0.500000000
     0.500000000  0.000000000  0.000000000
     0.000000000  0.000000000  0.500000000
     0.000000000  0.500000000  0.000000000
     0.751840000  0.251840000  0.003680000
     0.250000000  0.250000000  0.000000000
     0.248160000  0.748160000  0.996320000
     0.750000000  0.750000000  0.000000000
     0.251840000  0.248160000  0.500000000
     0.748160000  0.751840000  0.500000000
     0.750000000  0.250000000  0.500000000
     0.250000000  0.750000000  0.500000000

  ion indices of the primitive-cell ions
   primitive index   ion index
                 1           1
                 2           2
                 3           3
                 4           4
                 5           5
                 6           6
                 7           7
                 8           8
                 9           9
                10          10
                11          11
                12          12

----------------------------------------------------------------------------------------

 
 
 KPOINTS: EA                                      

Automatic generation of k-mesh.
 Grid dimensions read from file:
 generate k-points for:    8    8    9

 Generating k-lattice:

  Cartesian coordinates                     Fractional coordinates (reciprocal lattice)
     0.025338766  0.008562268  0.000000000     0.125000000  0.000000000  0.000000000
     0.000000000  0.026746317  0.000000000     0.000000000  0.125000000  0.000000000
     0.011599707  0.016163741  0.019306682     0.000000000 -0.000000000  0.111111111

  Length of vectors
     0.026746317  0.026746317  0.027723054

  Shift w.r.t. Gamma in fractional coordinates (k-lattice)
     0.000000000  0.000000000  0.000000000

 -----------------------------------------------------------------------------
|                                                                             |
|           W    W    AA    RRRRR   N    N  II  N    N   GGGG   !!!           |
|           W    W   A  A   R    R  NN   N  II  NN   N  G    G  !!!           |
|           W    W  A    A  R    R  N N  N  II  N N  N  G       !!!           |
|           W WW W  AAAAAA  RRRRR   N  N N  II  N  N N  G  GGG   !            |
|           WW  WW  A    A  R   R   N   NN  II  N   NN  G    G                |
|           W    W  A    A  R    R  N    N  II  N    N   GGGG   !!!           |
|                                                                             |
|     Your reciprocal lattice and k-lattice belong to different lattice       |
|     classes:                                                                |
|                                                                             |
|        The reciprocal lattice is body-centered tetragonal,                  |
|        whereas your k-lattice is base-centered monoclinic.                  |
|                                                                             |
|     Results are often still useful ...                                      |
|                                                                             |
 -----------------------------------------------------------------------------

 WARNING: IBZKPT: internal override: KBLOWUP is changed to .FALSE.
      ... skipping the blow-up phase ...

 
 Subroutine IBZKPT returns following result:
 ===========================================
 
 Found    165 irreducible k-points:
 
 Following reciprocal coordinates:
            Coordinates               Weight
  0.000000  0.000000  0.000000      1.000000
  0.125000  0.000000  0.000000      4.000000
  0.250000  0.000000  0.000000      4.000000
  0.375000  0.000000  0.000000      4.000000
  0.500000  0.000000  0.000000      2.000000
  0.125000  0.125000  0.000000      2.000000
  0.250000  0.125000  0.000000      4.000000
  0.375000  0.125000  0.000000      4.000000
  0.500000  0.125000  0.000000      4.000000
 -0.375000  0.125000  0.000000      4.000000
 -0.250000  0.125000  0.000000      4.000000
 -0.125000  0.125000  0.000000      2.000000
  0.250000  0.250000  0.000000      2.000000
  0.375000  0.250000  0.000000      4.000000
  0.500000  0.250000  0.000000      4.000000
 -0.375000  0.250000  0.000000      4.000000
 -0.250000  0.250000  0.000000      2.000000
  0.375000  0.375000  0.000000      2.000000
  0.500000  0.375000  0.000000      4.000000
 -0.375000  0.375000  0.000000      2.000000
  0.500000  0.500000  0.000000      1.000000
  0.000000  0.000000  0.111111      2.000000
  0.125000  0.000000  0.111111      4.000000
  0.250000  0.000000  0.111111      4.000000
  0.375000  0.000000  0.111111      4.000000
  0.500000 -0.000000  0.111111      4.000000
 -0.375000  0.000000  0.111111      4.000000
 -0.250000  0.000000  0.111111      4.000000
 -0.125000  0.000000  0.111111      4.000000
  0.125000  0.125000  0.111111      2.000000
  0.250000  0.125000  0.111111      4.000000
  0.375000  0.125000  0.111111      4.000000
  0.500000  0.125000  0.111111      4.000000
 -0.375000  0.125000  0.111111      4.000000
 -0.250000  0.125000  0.111111      4.000000
 -0.125000  0.125000  0.111111      4.000000
  0.250000  0.250000  0.111111      2.000000
  0.375000  0.250000  0.111111      4.000000
  0.500000  0.250000  0.111111      4.000000
 -0.375000  0.250000  0.111111      4.000000
 -0.250000  0.250000  0.111111      4.000000
 -0.125000  0.250000  0.111111      4.000000
  0.375000  0.375000  0.111111      2.000000
  0.500000  0.375000  0.111111      4.000000
 -0.375000  0.375000  0.111111      4.000000
 -0.250000  0.375000  0.111111      4.000000
 -0.125000  0.375000  0.111111      4.000000
  0.500000  0.500000  0.111111      2.000000
 -0.375000  0.500000  0.111111      4.000000
 -0.250000  0.500000  0.111111      4.000000
 -0.125000  0.500000  0.111111      4.000000
 -0.375000 -0.375000  0.111111      2.000000
 -0.250000 -0.375000  0.111111      4.000000
 -0.125000 -0.375000  0.111111      4.000000
 -0.250000 -0.250000  0.111111      2.000000
 -0.125000 -0.250000  0.111111      4.000000
 -0.125000 -0.125000  0.111111      2.000000
 -0.000000  0.000000  0.222222      2.000000
  0.125000  0.000000  0.222222      4.000000
  0.250000  0.000000  0.222222      4.000000
  0.375000  0.000000  0.222222      4.000000
  0.500000  0.000000  0.222222      4.000000
 -0.375000  0.000000  0.222222      4.000000
 -0.250000  0.000000  0.222222      4.000000
 -0.125000  0.000000  0.222222      4.000000
  0.125000  0.125000  0.222222      2.000000
  0.250000  0.125000  0.222222      4.000000
  0.375000  0.125000  0.222222      4.000000
  0.500000  0.125000  0.222222      4.000000
 -0.375000  0.125000  0.222222      4.000000
 -0.250000  0.125000  0.222222      4.000000
 -0.125000  0.125000  0.222222      4.000000
  0.250000  0.250000  0.222222      2.000000
  0.375000  0.250000  0.222222      4.000000
  0.500000  0.250000  0.222222      4.000000
 -0.375000  0.250000  0.222222      4.000000
 -0.250000  0.250000  0.222222      4.000000
 -0.125000  0.250000  0.222222      4.000000
  0.375000  0.375000  0.222222      2.000000
  0.500000  0.375000  0.222222      4.000000
 -0.375000  0.375000  0.222222      4.000000
 -0.250000  0.375000  0.222222      4.000000
 -0.125000  0.375000  0.222222      4.000000
  0.500000  0.500000  0.222222      2.000000
 -0.375000  0.500000  0.222222      4.000000
 -0.250000  0.500000  0.222222      4.000000
 -0.125000  0.500000  0.222222      4.000000
 -0.375000 -0.375000  0.222222      2.000000
 -0.250000 -0.375000  0.222222      4.000000
 -0.125000 -0.375000  0.222222      4.000000
 -0.250000 -0.250000  0.222222      2.000000
 -0.125000 -0.250000  0.222222      4.000000
 -0.125000 -0.125000  0.222222      2.000000
 -0.000000 -0.000000  0.333333      2.000000
  0.125000  0.000000  0.333333      4.000000
  0.250000 -0.000000  0.333333      4.000000
  0.375000 -0.000000  0.333333      4.000000
  0.500000  0.000000  0.333333      4.000000
 -0.375000 -0.000000  0.333333      4.000000
 -0.250000 -0.000000  0.333333      4.000000
 -0.125000 -0.000000  0.333333      4.000000
  0.125000  0.125000  0.333333      2.000000
  0.250000  0.125000  0.333333      4.000000
  0.375000  0.125000  0.333333      4.000000
  0.500000  0.125000  0.333333      4.000000
 -0.375000  0.125000  0.333333      4.000000
 -0.250000  0.125000  0.333333      4.000000
 -0.125000  0.125000  0.333333      4.000000
  0.250000  0.250000  0.333333      2.000000
  0.375000  0.250000  0.333333      4.000000
  0.500000  0.250000  0.333333      4.000000
 -0.375000  0.250000  0.333333      4.000000
 -0.250000  0.250000  0.333333      4.000000
 -0.125000  0.250000  0.333333      4.000000
  0.375000  0.375000  0.333333      2.000000
  0.500000  0.375000  0.333333      4.000000
 -0.375000  0.375000  0.333333      4.000000
 -0.250000  0.375000  0.333333      4.000000
 -0.125000  0.375000  0.333333      4.000000
  0.500000  0.500000  0.333333      2.000000
 -0.375000  0.500000  0.333333      4.000000
 -0.250000  0.500000  0.333333      4.000000
 -0.125000  0.500000  0.333333      4.000000
 -0.375000 -0.375000  0.333333      2.000000
 -0.250000 -0.375000  0.333333      4.000000
 -0.125000 -0.375000  0.333333      4.000000
 -0.250000 -0.250000  0.333333      2.000000
 -0.125000 -0.250000  0.333333      4.000000
 -0.125000 -0.125000  0.333333      2.000000
 -0.000000  0.000000  0.444444      2.000000
  0.125000  0.000000  0.444444      4.000000
  0.250000  0.000000  0.444444      4.000000
  0.375000  0.000000  0.444444      4.000000
  0.500000  0.000000  0.444444      4.000000
 -0.375000 -0.000000  0.444444      4.000000
 -0.250000  0.000000  0.444444      4.000000
 -0.125000  0.000000  0.444444      4.000000
  0.125000  0.125000  0.444444      2.000000
  0.250000  0.125000  0.444444      4.000000
  0.375000  0.125000  0.444444      4.000000
  0.500000  0.125000  0.444444      4.000000
 -0.375000  0.125000  0.444444      4.000000
 -0.250000  0.125000  0.444444      4.000000
 -0.125000  0.125000  0.444444      4.000000
  0.250000  0.250000  0.444444      2.000000
  0.375000  0.250000  0.444444      4.000000
  0.500000  0.250000  0.444444      4.000000
 -0.375000  0.250000  0.444444      4.000000
 -0.250000  0.250000  0.444444      4.000000
 -0.125000  0.250000  0.444444      4.000000
  0.375000  0.375000  0.444444      2.000000
  0.500000  0.375000  0.444444      4.000000
 -0.375000  0.375000  0.444444      4.000000
 -0.250000  0.375000  0.444444      4.000000
 -0.125000  0.375000  0.444444      4.000000
  0.500000  0.500000  0.444444      2.000000
 -0.375000  0.500000  0.444444      4.000000
 -0.250000  0.500000  0.444444      4.000000
 -0.125000  0.500000  0.444444      4.000000
 -0.375000 -0.375000  0.444444      2.000000
 -0.250000 -0.375000  0.444444      4.000000
 -0.125000 -0.375000  0.444444      4.000000
 -0.250000 -0.250000  0.444444      2.000000
 -0.125000 -0.250000  0.444444      4.000000
 -0.125000 -0.125000  0.444444      2.000000
 
 Following cartesian coordinates:
            Coordinates               Weight
  0.000000  0.000000  0.000000      1.000000
  0.025339  0.008562  0.000000      4.000000
  0.050678  0.017125  0.000000      4.000000
  0.076016  0.025687  0.000000      4.000000
  0.101355  0.034249  0.000000      2.000000
  0.025339  0.035309  0.000000      2.000000
  0.050678  0.043871  0.000000      4.000000
  0.076016  0.052433  0.000000      4.000000
  0.101355  0.060995  0.000000      4.000000
 -0.076016  0.001060  0.000000      4.000000
 -0.050678  0.009622  0.000000      4.000000
 -0.025339  0.018184  0.000000      2.000000
  0.050678  0.070617  0.000000      2.000000
  0.076016  0.079179  0.000000      4.000000
  0.101355  0.087742  0.000000      4.000000
 -0.076016  0.027806  0.000000      4.000000
 -0.050678  0.036368  0.000000      2.000000
  0.076016  0.105926  0.000000      2.000000
  0.101355  0.114488  0.000000      4.000000
 -0.076016  0.054552  0.000000      2.000000
  0.101355  0.141234  0.000000      1.000000
  0.011600  0.016164  0.019307      2.000000
  0.036938  0.024726  0.019307      4.000000
  0.062277  0.033288  0.019307      4.000000
  0.087616  0.041851  0.019307      4.000000
  0.112955  0.050413  0.019307      4.000000
 -0.064417 -0.009523  0.019307      4.000000
 -0.039078 -0.000961  0.019307      4.000000
 -0.013739  0.007601  0.019307      4.000000
  0.036938  0.051472  0.019307      2.000000
  0.062277  0.060035  0.019307      4.000000
  0.087616  0.068597  0.019307      4.000000
  0.112955  0.077159  0.019307      4.000000
 -0.064417  0.017223  0.019307      4.000000
 -0.039078  0.025786  0.019307      4.000000
 -0.013739  0.034348  0.019307      4.000000
  0.062277  0.086781  0.019307      2.000000
  0.087616  0.095343  0.019307      4.000000
  0.112955  0.103905  0.019307      4.000000
 -0.064417  0.043970  0.019307      4.000000
 -0.039078  0.052532  0.019307      4.000000
 -0.013739  0.061094  0.019307      4.000000
  0.087616  0.122089  0.019307      2.000000
  0.112955  0.130652  0.019307      4.000000
 -0.064417  0.070716  0.019307      4.000000
 -0.039078  0.079278  0.019307      4.000000
 -0.013739  0.087840  0.019307      4.000000
  0.112955  0.157398  0.019307      2.000000
 -0.064417  0.097462  0.019307      4.000000
 -0.039078  0.106024  0.019307      4.000000
 -0.013739  0.114587  0.019307      4.000000
 -0.064417 -0.089762  0.019307      2.000000
 -0.039078 -0.081200  0.019307      4.000000
 -0.013739 -0.072637  0.019307      4.000000
 -0.039078 -0.054453  0.019307      2.000000
 -0.013739 -0.045891  0.019307      4.000000
 -0.013739 -0.019145  0.019307      2.000000
  0.023199  0.032327  0.038613      2.000000
  0.048538  0.040890  0.038613      4.000000
  0.073877  0.049452  0.038613      4.000000
  0.099216  0.058014  0.038613      4.000000
  0.124554  0.066577  0.038613      4.000000
 -0.052817  0.006641  0.038613      4.000000
 -0.027478  0.015203  0.038613      4.000000
 -0.002139  0.023765  0.038613      4.000000
  0.048538  0.067636  0.038613      2.000000
  0.073877  0.076198  0.038613      4.000000
  0.099216  0.084761  0.038613      4.000000
  0.124554  0.093323  0.038613      4.000000
 -0.052817  0.033387  0.038613      4.000000
 -0.027478  0.041949  0.038613      4.000000
 -0.002139  0.050512  0.038613      4.000000
  0.073877  0.102945  0.038613      2.000000
  0.099216  0.111507  0.038613      4.000000
  0.124554  0.120069  0.038613      4.000000
 -0.052817  0.060133  0.038613      4.000000
 -0.027478  0.068696  0.038613      4.000000
 -0.002139  0.077258  0.038613      4.000000
  0.099216  0.138253  0.038613      2.000000
  0.124554  0.146816  0.038613      4.000000
 -0.052817  0.086880  0.038613      4.000000
 -0.027478  0.095442  0.038613      4.000000
 -0.002139  0.104004  0.038613      4.000000
  0.124554  0.173562  0.038613      2.000000
 -0.052817  0.113626  0.038613      4.000000
 -0.027478  0.122188  0.038613      4.000000
 -0.002139  0.130750  0.038613      4.000000
 -0.052817 -0.073598  0.038613      2.000000
 -0.027478 -0.065036  0.038613      4.000000
 -0.002139 -0.056474  0.038613      4.000000
 -0.027478 -0.038290  0.038613      2.000000
 -0.002139 -0.029727  0.038613      4.000000
 -0.002139 -0.002981  0.038613      2.000000
  0.034799  0.048491  0.057920      2.000000
  0.060138  0.057053  0.057920      4.000000
  0.085477  0.065616  0.057920      4.000000
  0.110815  0.074178  0.057920      4.000000
  0.136154  0.082740  0.057920      4.000000
 -0.041217  0.022804  0.057920      4.000000
 -0.015878  0.031367  0.057920      4.000000
  0.009460  0.039929  0.057920      4.000000
  0.060138  0.083800  0.057920      2.000000
  0.085477  0.092362  0.057920      4.000000
  0.110815  0.100924  0.057920      4.000000
  0.136154  0.109487  0.057920      4.000000
 -0.041217  0.049551  0.057920      4.000000
 -0.015878  0.058113  0.057920      4.000000
  0.009460  0.066675  0.057920      4.000000
  0.085477  0.119108  0.057920      2.000000
  0.110815  0.127671  0.057920      4.000000
  0.136154  0.136233  0.057920      4.000000
 -0.041217  0.076297  0.057920      4.000000
 -0.015878  0.084859  0.057920      4.000000
  0.009460  0.093422  0.057920      4.000000
  0.110815  0.154417  0.057920      2.000000
  0.136154  0.162979  0.057920      4.000000
 -0.041217  0.103043  0.057920      4.000000
 -0.015878  0.111606  0.057920      4.000000
  0.009460  0.120168  0.057920      4.000000
  0.136154  0.189726  0.057920      2.000000
 -0.041217  0.129790  0.057920      4.000000
 -0.015878  0.138352  0.057920      4.000000
  0.009460  0.146914  0.057920      4.000000
 -0.041217 -0.057435  0.057920      2.000000
 -0.015878 -0.048872  0.057920      4.000000
  0.009460 -0.040310  0.057920      4.000000
 -0.015878 -0.022126  0.057920      2.000000
  0.009460 -0.013564  0.057920      4.000000
  0.009460  0.013183  0.057920      2.000000
  0.046399  0.064655  0.077227      2.000000
  0.071738  0.073217  0.077227      4.000000
  0.097076  0.081780  0.077227      4.000000
  0.122415  0.090342  0.077227      4.000000
  0.147754  0.098904  0.077227      4.000000
 -0.029617  0.038968  0.077227      4.000000
 -0.004279  0.047530  0.077227      4.000000
  0.021060  0.056093  0.077227      4.000000
  0.071738  0.099964  0.077227      2.000000
  0.097076  0.108526  0.077227      4.000000
  0.122415  0.117088  0.077227      4.000000
  0.147754  0.125650  0.077227      4.000000
 -0.029617  0.065714  0.077227      4.000000
 -0.004279  0.074277  0.077227      4.000000
  0.021060  0.082839  0.077227      4.000000
  0.097076  0.135272  0.077227      2.000000
  0.122415  0.143834  0.077227      4.000000
  0.147754  0.152397  0.077227      4.000000
 -0.029617  0.092461  0.077227      4.000000
 -0.004279  0.101023  0.077227      4.000000
  0.021060  0.109585  0.077227      4.000000
  0.122415  0.170581  0.077227      2.000000
  0.147754  0.179143  0.077227      4.000000
 -0.029617  0.119207  0.077227      4.000000
 -0.004279  0.127769  0.077227      4.000000
  0.021060  0.136332  0.077227      4.000000
  0.147754  0.205889  0.077227      2.000000
 -0.029617  0.145953  0.077227      4.000000
 -0.004279  0.154516  0.077227      4.000000
  0.021060  0.163078  0.077227      4.000000
 -0.029617 -0.041271  0.077227      2.000000
 -0.004279 -0.032709  0.077227      4.000000
  0.021060 -0.024146  0.077227      4.000000
 -0.004279 -0.005962  0.077227      2.000000
  0.021060  0.002600  0.077227      4.000000
  0.021060  0.029346  0.077227      2.000000
 


--------------------------------------------------------------------------------------------------------




 Dimension of arrays:
   k-points           NKPTS =    165   k-points in BZ     NKDIM =    165   number of bands    NBANDS=     66
   number of dos      NEDOS =    301   number of ions     NIONS =     12
   non local maximal  LDIM  =      6   non local SUM 2l+1 LMDIM =     18
   total plane-waves  NPLWV = 110592
   max r-space proj   IRMAX =      1   max aug-charges    IRDMAX= 291766
   dimension x,y,z NGX =    48 NGY =   48 NGZ =   48
   dimension x,y,z NGXF=    96 NGYF=   96 NGZF=   96
   support grid    NGXF=   192 NGYF=  192 NGZF=  192
   ions per type =               4   6   2
   NGX,Y,Z   is equivalent  to a cutoff of  13.87, 13.87, 13.87 a.u.
   NGXF,Y,Z  is equivalent  to a cutoff of  27.73, 27.73, 27.73 a.u.

 SYSTEM =  routine with relax: pwdword             
 POSCAR =  EA195                                   

 Startparameter for this run:
   NWRITE =      2    write-flag & timer
   PREC   = acc       normal or accurate (medium, high low for compatibility)
   ISTART =      0    job   : 0-new  1-cont  2-samecut
   ICHARG =      2    charge: 1-file 2-atom 10-const
   ISPIN  =      1    spin polarized calculation?
   LNONCOLLINEAR =      F non collinear calculations
   LSORBIT =      F    spin-orbit coupling
   INIWAV =      1    electr: 0-lowe 1-rand  2-diag
   LASPH  =      T    aspherical Exc in radial PAW
   METAGGA=      F    non-selfconsistent MetaGGA calc.

 Electronic Relaxation 1
   ENCUT  =  600.0 eV  44.10 Ry    6.64 a.u.  11.49 11.49 11.49*2*pi/ulx,y,z
   ENINI  =  600.0     initial cutoff
   ENAUG  =  535.5 eV  augmentation charge cutoff
   NELM   =    100;   NELMIN=  6; NELMDL= -5     # of ELM steps 
   EDIFF  = 0.1E-08   stopping-criterion for ELM
   LREAL  =      F    real-space projection
   NLSPLINE    = F    spline interpolate recip. space projectors
   LCOMPAT=      F    compatible to vasp.4.4
   GGA_COMPAT  = T    GGA compatible to vasp.4.4-vasp.4.6
   LMAXPAW     = -100 max onsite density
   LMAXMIX     =    2 max onsite mixed and CHGCAR
   VOSKOWN=      0    Vosko Wilk Nusair interpolation
   ROPT   =    0.00000   0.00000   0.00000
 Ionic relaxation
   EDIFFG = 0.1E-07   stopping-criterion for IOM
   NSW    =      0    number of steps for IOM
   NBLOCK =      1;   KBLOCK =      1    inner block; outer block 
   IBRION =     -1    ionic relax: 0-MD 1-quasi-New 2-CG
   NFREE  =      0    steps in history (QN), initial steepest desc. (CG)
   ISIF   =     -1    stress and relaxation
   IWAVPR =     10    prediction:  0-non 1-charg 2-wave 3-comb
   ISYM   =      2    0-nonsym 1-usesym 2-fastsym
   LCORR  =      T    Harris-Foulkes like correction to forces

   POTIM  = 0.5000    time-step for ionic-motion
   TEIN   =    0.0    initial temperature
   TEBEG  =    0.0;   TEEND  =   0.0 temperature during run
   SMASS  =  -3.00    Nose mass-parameter (am)
   estimated Nose-frequenzy (Omega)   =  0.10E-29 period in steps = 0.13E+47 mass=  -0.757E-27a.u.
   SCALEE = 1.0000    scale energy and forces
   NPACO  =    256;   APACO  = 16.0  distance and # of slots for P.C.
   PSTRESS=    0.0 pullay stress

  Mass of Ions in am
   POMASS =  10.81 95.94 28.09
  Ionic Valenz
   ZVAL   =   3.00 14.00  4.00
  Atomic Wigner-Seitz radii
   RWIGS  =  -1.00 -1.00 -1.00
  virtual crystal weights 
   VCA    =   1.00  1.00  1.00
   NELECT =     104.0000    total number of electrons
   NUPDOWN=      -1.0000    fix difference up-down

 DOS related values:
   EMIN   =  10.00;   EMAX   =-10.00  energy-range for DOS
   EFERMI =   0.00
   ISMEAR =     0;   SIGMA  =   0.02  broadening in eV -4-tet -1-fermi 0-gaus

 Electronic relaxation 2 (details)
   IALGO  =     58    algorithm
   LDIAG  =      T    sub-space diagonalisation (order eigenvalues)
   LSUBROT=      F    optimize rotation matrix (better conditioning)
   TURBO    =      0    0=normal 1=particle mesh
   IRESTART =      0    0=no restart 2=restart with 2 vectors
   NREBOOT  =      0    no. of reboots
   NMIN     =      0    reboot dimension
   EREF     =   0.00    reference energy to select bands
   IMIX   =      4    mixing-type and parameters
     AMIX     =   0.40;   BMIX     =  1.00
     AMIX_MAG =   1.60;   BMIX_MAG =  1.00
     AMIN     =   0.10
     WC   =   100.;   INIMIX=   1;  MIXPRE=   1;  MAXMIX= -45

 Intra band minimization:
   WEIMIN = 0.0000     energy-eigenvalue tresh-hold
   EBREAK =  0.38E-11  absolut break condition
   DEPER  =   0.30     relativ break condition  

   TIME   =   0.40     timestep for ELM

  volume/ion in A,a.u.               =      11.06        74.62
  Fermi-wavevector in a.u.,A,eV,Ry     =   1.509428  2.852406 30.999154  2.278374
  Thomas-Fermi vector in A             =   2.619752
 
 Write flags
   LWAVE        =      T    write WAVECAR
   LDOWNSAMPLE  =      F    k-point downsampling of WAVECAR
   LCHARG       =      T    write CHGCAR
   LVTOT        =      F    write LOCPOT, total local potential
   LVHAR        =      F    write LOCPOT, Hartree potential only
   LELF         =      F    write electronic localiz. function (ELF)
   LORBIT       =      0    0 simple, 1 ext, 2 COOP (PROOUT), +10 PAW based schemes


 Dipole corrections
   LMONO  =      F    monopole corrections only (constant potential shift)
   LDIPOL =      F    correct potential (dipole corrections)
   IDIPOL =      0    1-x, 2-y, 3-z, 4-all directions 
   EPSILON=  1.0000000 bulk dielectric constant

 Exchange correlation treatment:
   GGA     =    --    GGA type
   LEXCH   =     8    internal setting for exchange type
   VOSKOWN=      0    Vosko Wilk Nusair interpolation
   LHFCALC =     F    Hartree Fock is set to
   LHFONE  =     F    Hartree Fock one center treatment
   AEXX    =    0.0000 exact exchange contribution

 Linear response parameters
   LEPSILON=     F    determine dielectric tensor
   LRPA    =     F    only Hartree local field effects (RPA)
   LNABLA  =     F    use nabla operator in PAW spheres
   LVEL    =     F    velocity operator in full k-point grid
   LINTERFAST=   F  fast interpolation
   KINTER  =     0    interpolate to denser k-point grid
   CSHIFT  =0.1000    complex shift for real part using Kramers Kronig
   OMEGAMAX=  -1.0    maximum frequency
   DEG_THRESHOLD= 0.2000000E-02 threshold for treating states as degnerate
   RTIME   =   -0.100 relaxation time in fs
  (WPLASMAI=    0.000 imaginary part of plasma frequency in eV, 0.658/RTIME)
   DFIELD  = 0.0000000 0.0000000 0.0000000 field for delta impulse in time
 
 Orbital magnetization related:
   ORBITALMAG=     F  switch on orbital magnetization
   LCHIMAG   =     F  perturbation theory with respect to B field
   DQ        =  0.001000  dq finite difference perturbation B field
   LLRAUG    =     F  two centre corrections for induced B field



--------------------------------------------------------------------------------------------------------


 Static calculation
 charge density and potential will be updated during run
 non-spin polarized calculation
 Conjugate gradient for all bands (Freysoldt, et al. PRB 79, 241103 (2009))
 preconditioned conjugated gradient                                        
 perform sub-space diagonalisation
    before iterative eigenvector-optimisation
 modified Broyden-mixing scheme, WC =      100.0
 initial mixing is a Kerker type mixing with AMIX =  0.4000 and BMIX =      1.0000
 Hartree-type preconditioning will be used
 using additional bands           14
 reciprocal scheme for non local part
 use partial core corrections
 no Harris-corrections to forces 
 use gradient corrections 
 use of overlap-Matrix (Vanderbilt PP)
 Gauss-broadening in eV      SIGMA  =   0.02


--------------------------------------------------------------------------------------------------------


  energy-cutoff  :      600.00
  volume of cell :      132.68
      direct lattice vectors                 reciprocal lattice vectors
     4.933152708  0.000000000 -2.963902826     0.202710125  0.068498142  0.000000000
    -1.579244513  4.673540672 -2.963902826     0.000000000  0.213970535  0.000000000
     0.000000000  0.000000000  5.755060000     0.104397367  0.145473672  0.173760135

  length of vectors
     5.755060000  5.755060000  5.755060000     0.213970535  0.213970535  0.249507483


 
 k-points in units of 2pi/SCALE and weight: EA                                      
   0.00000000  0.00000000  0.00000000       0.002
   0.02533877  0.00856227  0.00000000       0.007
   0.05067753  0.01712454  0.00000000       0.007
   0.07601630  0.02568680  0.00000000       0.007
   0.10135506  0.03424907  0.00000000       0.003
   0.02533877  0.03530858  0.00000000       0.003
   0.05067753  0.04387085  0.00000000       0.007
   0.07601630  0.05243312  0.00000000       0.007
   0.10135506  0.06099539  0.00000000       0.007
  -0.07601630  0.00105951  0.00000000       0.007
  -0.05067753  0.00962178  0.00000000       0.007
  -0.02533877  0.01818405  0.00000000       0.003
   0.05067753  0.07061717  0.00000000       0.003
   0.07601630  0.07917944  0.00000000       0.007
   0.10135506  0.08774170  0.00000000       0.007
  -0.07601630  0.02780583  0.00000000       0.007
  -0.05067753  0.03636810  0.00000000       0.003
   0.07601630  0.10592575  0.00000000       0.003
   0.10135506  0.11448802  0.00000000       0.007
  -0.07601630  0.05455215  0.00000000       0.003
   0.10135506  0.14123434  0.00000000       0.002
   0.01159971  0.01616374  0.01930668       0.003
   0.03693847  0.02472601  0.01930668       0.007
   0.06227724  0.03328828  0.01930668       0.007
   0.08761600  0.04185054  0.01930668       0.007
   0.11295477  0.05041281  0.01930668       0.007
  -0.06441659 -0.00952306  0.01930668       0.007
  -0.03907782 -0.00096079  0.01930668       0.007
  -0.01373906  0.00760147  0.01930668       0.007
   0.03693847  0.05147233  0.01930668       0.003
   0.06227724  0.06003459  0.01930668       0.007
   0.08761600  0.06859686  0.01930668       0.007
   0.11295477  0.07715913  0.01930668       0.007
  -0.06441659  0.01722326  0.01930668       0.007
  -0.03907782  0.02578552  0.01930668       0.007
  -0.01373906  0.03434779  0.01930668       0.007
   0.06227724  0.08678091  0.01930668       0.003
   0.08761600  0.09534318  0.01930668       0.007
   0.11295477  0.10390545  0.01930668       0.007
  -0.06441659  0.04396957  0.01930668       0.007
  -0.03907782  0.05253184  0.01930668       0.007
  -0.01373906  0.06109411  0.01930668       0.007
   0.08761600  0.12208950  0.01930668       0.003
   0.11295477  0.13065176  0.01930668       0.007
  -0.06441659  0.07071589  0.01930668       0.007
  -0.03907782  0.07927816  0.01930668       0.007
  -0.01373906  0.08784042  0.01930668       0.007
   0.11295477  0.15739808  0.01930668       0.003
  -0.06441659  0.09746221  0.01930668       0.007
  -0.03907782  0.10602447  0.01930668       0.007
  -0.01373906  0.11458674  0.01930668       0.007
  -0.06441659 -0.08976201  0.01930668       0.003
  -0.03907782 -0.08119974  0.01930668       0.007
  -0.01373906 -0.07263748  0.01930668       0.007
  -0.03907782 -0.05445343  0.01930668       0.003
  -0.01373906 -0.04589116  0.01930668       0.007
  -0.01373906 -0.01914484  0.01930668       0.003
   0.02319941  0.03232748  0.03861336       0.003
   0.04853818  0.04088975  0.03861336       0.007
   0.07387695  0.04945202  0.03861336       0.007
   0.09921571  0.05801429  0.03861336       0.007
   0.12455448  0.06657655  0.03861336       0.007
  -0.05281688  0.00664068  0.03861336       0.007
  -0.02747812  0.01520295  0.03861336       0.007
  -0.00213935  0.02376521  0.03861336       0.007
   0.04853818  0.06763607  0.03861336       0.003
   0.07387695  0.07619834  0.03861336       0.007
   0.09921571  0.08476060  0.03861336       0.007
   0.12455448  0.09332287  0.03861336       0.007
  -0.05281688  0.03338700  0.03861336       0.007
  -0.02747812  0.04194926  0.03861336       0.007
  -0.00213935  0.05051153  0.03861336       0.007
   0.07387695  0.10294465  0.03861336       0.003
   0.09921571  0.11150692  0.03861336       0.007
   0.12455448  0.12006919  0.03861336       0.007
  -0.05281688  0.06013331  0.03861336       0.007
  -0.02747812  0.06869558  0.03861336       0.007
  -0.00213935  0.07725785  0.03861336       0.007
   0.09921571  0.13825324  0.03861336       0.003
   0.12455448  0.14681550  0.03861336       0.007
  -0.05281688  0.08687963  0.03861336       0.007
  -0.02747812  0.09544190  0.03861336       0.007
  -0.00213935  0.10400417  0.03861336       0.007
   0.12455448  0.17356182  0.03861336       0.003
  -0.05281688  0.11362595  0.03861336       0.007
  -0.02747812  0.12218821  0.03861336       0.007
  -0.00213935  0.13075048  0.03861336       0.007
  -0.05281688 -0.07359827  0.03861336       0.003
  -0.02747812 -0.06503600  0.03861336       0.007
  -0.00213935 -0.05647374  0.03861336       0.007
  -0.02747812 -0.03828969  0.03861336       0.003
  -0.00213935 -0.02972742  0.03861336       0.007
  -0.00213935 -0.00298110  0.03861336       0.003
   0.03479912  0.04849122  0.05792004       0.003
   0.06013789  0.05705349  0.05792004       0.007
   0.08547665  0.06561576  0.05792004       0.007
   0.11081542  0.07417803  0.05792004       0.007
   0.13615418  0.08274029  0.05792004       0.007
  -0.04121717  0.02280442  0.05792004       0.007
  -0.01587841  0.03136669  0.05792004       0.007
   0.00946036  0.03992896  0.05792004       0.007
   0.06013789  0.08379981  0.05792004       0.003
   0.08547665  0.09236208  0.05792004       0.007
   0.11081542  0.10092434  0.05792004       0.007
   0.13615418  0.10948661  0.05792004       0.007
  -0.04121717  0.04955074  0.05792004       0.007
  -0.01587841  0.05811301  0.05792004       0.007
   0.00946036  0.06667527  0.05792004       0.007
   0.08547665  0.11910839  0.05792004       0.003
   0.11081542  0.12767066  0.05792004       0.007
   0.13615418  0.13623293  0.05792004       0.007
  -0.04121717  0.07629705  0.05792004       0.007
  -0.01587841  0.08485932  0.05792004       0.007
   0.00946036  0.09342159  0.05792004       0.007
   0.11081542  0.15441698  0.05792004       0.003
   0.13615418  0.16297925  0.05792004       0.007
  -0.04121717  0.10304337  0.05792004       0.007
  -0.01587841  0.11160564  0.05792004       0.007
   0.00946036  0.12016791  0.05792004       0.007
   0.13615418  0.18972556  0.05792004       0.003
  -0.04121717  0.12978969  0.05792004       0.007
  -0.01587841  0.13835196  0.05792004       0.007
   0.00946036  0.14691422  0.05792004       0.007
  -0.04121717 -0.05743453  0.05792004       0.003
  -0.01587841 -0.04887226  0.05792004       0.007
   0.00946036 -0.04030999  0.05792004       0.007
  -0.01587841 -0.02212595  0.05792004       0.003
   0.00946036 -0.01356368  0.05792004       0.007
   0.00946036  0.01318264  0.05792004       0.003
   0.04639883  0.06465497  0.07722673       0.003
   0.07173760  0.07321723  0.07722673       0.007
   0.09707636  0.08177950  0.07722673       0.007
   0.12241513  0.09034177  0.07722673       0.007
   0.14775389  0.09890404  0.07722673       0.007
  -0.02961747  0.03896816  0.07722673       0.007
  -0.00427870  0.04753043  0.07722673       0.007
   0.02106006  0.05609270  0.07722673       0.007
   0.07173760  0.09996355  0.07722673       0.003
   0.09707636  0.10852582  0.07722673       0.007
   0.12241513  0.11708809  0.07722673       0.007
   0.14775389  0.12565035  0.07722673       0.007
  -0.02961747  0.06571448  0.07722673       0.007
  -0.00427870  0.07427675  0.07722673       0.007
   0.02106006  0.08283901  0.07722673       0.007
   0.09707636  0.13527213  0.07722673       0.003
   0.12241513  0.14383440  0.07722673       0.007
   0.14775389  0.15239667  0.07722673       0.007
  -0.02961747  0.09246080  0.07722673       0.007
  -0.00427870  0.10102306  0.07722673       0.007
   0.02106006  0.10958533  0.07722673       0.007
   0.12241513  0.17058072  0.07722673       0.003
   0.14775389  0.17914299  0.07722673       0.007
  -0.02961747  0.11920711  0.07722673       0.007
  -0.00427870  0.12776938  0.07722673       0.007
   0.02106006  0.13633165  0.07722673       0.007
   0.14775389  0.20588930  0.07722673       0.003
  -0.02961747  0.14595343  0.07722673       0.007
  -0.00427870  0.15451570  0.07722673       0.007
   0.02106006  0.16307797  0.07722673       0.007
  -0.02961747 -0.04127079  0.07722673       0.003
  -0.00427870 -0.03270852  0.07722673       0.007
   0.02106006 -0.02414625  0.07722673       0.007
  -0.00427870 -0.00596220  0.07722673       0.003
   0.02106006  0.00260006  0.07722673       0.007
   0.02106006  0.02934638  0.07722673       0.003
 
 k-points in reciprocal lattice and weights: EA                                      
   0.00000000  0.00000000  0.00000000       0.002
   0.12500000  0.00000000  0.00000000       0.007
   0.25000000  0.00000000  0.00000000       0.007
   0.37500000  0.00000000  0.00000000       0.007
   0.50000000  0.00000000  0.00000000       0.003
   0.12500000  0.12500000  0.00000000       0.003
   0.25000000  0.12500000  0.00000000       0.007
   0.37500000  0.12500000  0.00000000       0.007
   0.50000000  0.12500000  0.00000000       0.007
  -0.37500000  0.12500000  0.00000000       0.007
  -0.25000000  0.12500000  0.00000000       0.007
  -0.12500000  0.12500000  0.00000000       0.003
   0.25000000  0.25000000  0.00000000       0.003
   0.37500000  0.25000000  0.00000000       0.007
   0.50000000  0.25000000  0.00000000       0.007
  -0.37500000  0.25000000  0.00000000       0.007
  -0.25000000  0.25000000  0.00000000       0.003
   0.37500000  0.37500000  0.00000000       0.003
   0.50000000  0.37500000  0.00000000       0.007
  -0.37500000  0.37500000  0.00000000       0.003
   0.50000000  0.50000000  0.00000000       0.002
   0.00000000  0.00000000  0.11111111       0.003
   0.12500000  0.00000000  0.11111111       0.007
   0.25000000  0.00000000  0.11111111       0.007
   0.37500000  0.00000000  0.11111111       0.007
   0.50000000 -0.00000000  0.11111111       0.007
  -0.37500000  0.00000000  0.11111111       0.007
  -0.25000000  0.00000000  0.11111111       0.007
  -0.12500000  0.00000000  0.11111111       0.007
   0.12500000  0.12500000  0.11111111       0.003
   0.25000000  0.12500000  0.11111111       0.007
   0.37500000  0.12500000  0.11111111       0.007
   0.50000000  0.12500000  0.11111111       0.007
  -0.37500000  0.12500000  0.11111111       0.007
  -0.25000000  0.12500000  0.11111111       0.007
  -0.12500000  0.12500000  0.11111111       0.007
   0.25000000  0.25000000  0.11111111       0.003
   0.37500000  0.25000000  0.11111111       0.007
   0.50000000  0.25000000  0.11111111       0.007
  -0.37500000  0.25000000  0.11111111       0.007
  -0.25000000  0.25000000  0.11111111       0.007
  -0.12500000  0.25000000  0.11111111       0.007
   0.37500000  0.37500000  0.11111111       0.003
   0.50000000  0.37500000  0.11111111       0.007
  -0.37500000  0.37500000  0.11111111       0.007
  -0.25000000  0.37500000  0.11111111       0.007
  -0.12500000  0.37500000  0.11111111       0.007
   0.50000000  0.50000000  0.11111111       0.003
  -0.37500000  0.50000000  0.11111111       0.007
  -0.25000000  0.50000000  0.11111111       0.007
  -0.12500000  0.50000000  0.11111111       0.007
  -0.37500000 -0.37500000  0.11111111       0.003
  -0.25000000 -0.37500000  0.11111111       0.007
  -0.12500000 -0.37500000  0.11111111       0.007
  -0.25000000 -0.25000000  0.11111111       0.003
  -0.12500000 -0.25000000  0.11111111       0.007
  -0.12500000 -0.12500000  0.11111111       0.003
  -0.00000000  0.00000000  0.22222222       0.003
   0.12500000  0.00000000  0.22222222       0.007
   0.25000000  0.00000000  0.22222222       0.007
   0.37500000  0.00000000  0.22222222       0.007
   0.50000000  0.00000000  0.22222222       0.007
  -0.37500000  0.00000000  0.22222222       0.007
  -0.25000000  0.00000000  0.22222222       0.007
  -0.12500000  0.00000000  0.22222222       0.007
   0.12500000  0.12500000  0.22222222       0.003
   0.25000000  0.12500000  0.22222222       0.007
   0.37500000  0.12500000  0.22222222       0.007
   0.50000000  0.12500000  0.22222222       0.007
  -0.37500000  0.12500000  0.22222222       0.007
  -0.25000000  0.12500000  0.22222222       0.007
  -0.12500000  0.12500000  0.22222222       0.007
   0.25000000  0.25000000  0.22222222       0.003
   0.37500000  0.25000000  0.22222222       0.007
   0.50000000  0.25000000  0.22222222       0.007
  -0.37500000  0.25000000  0.22222222       0.007
  -0.25000000  0.25000000  0.22222222       0.007
  -0.12500000  0.25000000  0.22222222       0.007
   0.37500000  0.37500000  0.22222222       0.003
   0.50000000  0.37500000  0.22222222       0.007
  -0.37500000  0.37500000  0.22222222       0.007
  -0.25000000  0.37500000  0.22222222       0.007
  -0.12500000  0.37500000  0.22222222       0.007
   0.50000000  0.50000000  0.22222222       0.003
  -0.37500000  0.50000000  0.22222222       0.007
  -0.25000000  0.50000000  0.22222222       0.007
  -0.12500000  0.50000000  0.22222222       0.007
  -0.37500000 -0.37500000  0.22222222       0.003
  -0.25000000 -0.37500000  0.22222222       0.007
  -0.12500000 -0.37500000  0.22222222       0.007
  -0.25000000 -0.25000000  0.22222222       0.003
  -0.12500000 -0.25000000  0.22222222       0.007
  -0.12500000 -0.12500000  0.22222222       0.003
  -0.00000000 -0.00000000  0.33333333       0.003
   0.12500000  0.00000000  0.33333333       0.007
   0.25000000 -0.00000000  0.33333333       0.007
   0.37500000 -0.00000000  0.33333333       0.007
   0.50000000  0.00000000  0.33333333       0.007
  -0.37500000 -0.00000000  0.33333333       0.007
  -0.25000000 -0.00000000  0.33333333       0.007
  -0.12500000 -0.00000000  0.33333333       0.007
   0.12500000  0.12500000  0.33333333       0.003
   0.25000000  0.12500000  0.33333333       0.007
   0.37500000  0.12500000  0.33333333       0.007
   0.50000000  0.12500000  0.33333333       0.007
  -0.37500000  0.12500000  0.33333333       0.007
  -0.25000000  0.12500000  0.33333333       0.007
  -0.12500000  0.12500000  0.33333333       0.007
   0.25000000  0.25000000  0.33333333       0.003
   0.37500000  0.25000000  0.33333333       0.007
   0.50000000  0.25000000  0.33333333       0.007
  -0.37500000  0.25000000  0.33333333       0.007
  -0.25000000  0.25000000  0.33333333       0.007
  -0.12500000  0.25000000  0.33333333       0.007
   0.37500000  0.37500000  0.33333333       0.003
   0.50000000  0.37500000  0.33333333       0.007
  -0.37500000  0.37500000  0.33333333       0.007
  -0.25000000  0.37500000  0.33333333       0.007
  -0.12500000  0.37500000  0.33333333       0.007
   0.50000000  0.50000000  0.33333333       0.003
  -0.37500000  0.50000000  0.33333333       0.007
  -0.25000000  0.50000000  0.33333333       0.007
  -0.12500000  0.50000000  0.33333333       0.007
  -0.37500000 -0.37500000  0.33333333       0.003
  -0.25000000 -0.37500000  0.33333333       0.007
  -0.12500000 -0.37500000  0.33333333       0.007
  -0.25000000 -0.25000000  0.33333333       0.003
  -0.12500000 -0.25000000  0.33333333       0.007
  -0.12500000 -0.12500000  0.33333333       0.003
  -0.00000000  0.00000000  0.44444444       0.003
   0.12500000  0.00000000  0.44444444       0.007
   0.25000000  0.00000000  0.44444444       0.007
   0.37500000  0.00000000  0.44444444       0.007
   0.50000000  0.00000000  0.44444444       0.007
  -0.37500000 -0.00000000  0.44444444       0.007
  -0.25000000  0.00000000  0.44444444       0.007
  -0.12500000  0.00000000  0.44444444       0.007
   0.12500000  0.12500000  0.44444444       0.003
   0.25000000  0.12500000  0.44444444       0.007
   0.37500000  0.12500000  0.44444444       0.007
   0.50000000  0.12500000  0.44444444       0.007
  -0.37500000  0.12500000  0.44444444       0.007
  -0.25000000  0.12500000  0.44444444       0.007
  -0.12500000  0.12500000  0.44444444       0.007
   0.25000000  0.25000000  0.44444444       0.003
   0.37500000  0.25000000  0.44444444       0.007
   0.50000000  0.25000000  0.44444444       0.007
  -0.37500000  0.25000000  0.44444444       0.007
  -0.25000000  0.25000000  0.44444444       0.007
  -0.12500000  0.25000000  0.44444444       0.007
   0.37500000  0.37500000  0.44444444       0.003
   0.50000000  0.37500000  0.44444444       0.007
  -0.37500000  0.37500000  0.44444444       0.007
  -0.25000000  0.37500000  0.44444444       0.007
  -0.12500000  0.37500000  0.44444444       0.007
   0.50000000  0.50000000  0.44444444       0.003
  -0.37500000  0.50000000  0.44444444       0.007
  -0.25000000  0.50000000  0.44444444       0.007
  -0.12500000  0.50000000  0.44444444       0.007
  -0.37500000 -0.37500000  0.44444444       0.003
  -0.25000000 -0.37500000  0.44444444       0.007
  -0.12500000 -0.37500000  0.44444444       0.007
  -0.25000000 -0.25000000  0.44444444       0.003
  -0.12500000 -0.25000000  0.44444444       0.007
  -0.12500000 -0.12500000  0.44444444       0.003
 
 position of ions in fractional coordinates (direct lattice) 
   0.50000000  0.50000000  0.50000000
   0.50000000  0.00000000  0.00000000
   0.00000000  0.00000000  0.50000000
   0.00000000  0.50000000  0.00000000
   0.75184000  0.25184000  0.00368000
   0.25000000  0.25000000  0.00000000
   0.24816000  0.74816000  0.99632000
   0.75000000  0.75000000  0.00000000
   0.25184000  0.24816000  0.50000000
   0.74816000  0.75184000  0.50000000
   0.75000000  0.25000000  0.50000000
   0.25000000  0.75000000  0.50000000
 
 position of ions in cartesian coordinates  (Angst):
   1.67695410  2.33677034 -0.08637283
   2.46657635  0.00000000 -1.48195141
   0.00000000  0.00000000  2.87753000
  -0.78962226  2.33677034 -1.48195141
   3.31122459  1.17698448 -2.95363137
   0.83847705  1.16838517 -1.48195141
   0.04268360  3.49655619  2.78088572
   2.51543115  3.50515550 -4.44585424
   0.85045986  1.15978585  1.39557859
   2.50344834  3.51375482 -1.56832424
   3.30505340  1.16838517 -0.08637283
   0.04885479  3.50515550 -0.08637283
 


--------------------------------------------------------------------------------------------------------


 k-point   1 :   0.0000 0.0000 0.0000  plane waves:    4413
 k-point   2 :   0.1250 0.0000 0.0000  plane waves:    4448
 k-point   3 :   0.2500 0.0000 0.0000  plane waves:    4442
 k-point   4 :   0.3750 0.0000 0.0000  plane waves:    4445
 k-point   5 :   0.5000 0.0000 0.0000  plane waves:    4414
 k-point   6 :   0.1250 0.1250 0.0000  plane waves:    4455
 k-point   7 :   0.2500 0.1250 0.0000  plane waves:    4430
 k-point   8 :   0.3750 0.1250 0.0000  plane waves:    4423
 k-point   9 :   0.5000 0.1250 0.0000  plane waves:    4428
 k-point  10 :  -0.3750 0.1250 0.0000  plane waves:    4434
 k-point  11 :  -0.2500 0.1250 0.0000  plane waves:    4445
 k-point  12 :  -0.1250 0.1250 0.0000  plane waves:    4452
 k-point  13 :   0.2500 0.2500 0.0000  plane waves:    4419
 k-point  14 :   0.3750 0.2500 0.0000  plane waves:    4421
 k-point  15 :   0.5000 0.2500 0.0000  plane waves:    4422
 k-point  16 :  -0.3750 0.2500 0.0000  plane waves:    4440
 k-point  17 :  -0.2500 0.2500 0.0000  plane waves:    4430
 k-point  18 :   0.3750 0.3750 0.0000  plane waves:    4424
 k-point  19 :   0.5000 0.3750 0.0000  plane waves:    4426
 k-point  20 :  -0.3750 0.3750 0.0000  plane waves:    4422
 k-point  21 :   0.5000 0.5000 0.0000  plane waves:    4408
 k-point  22 :   0.0000 0.0000 0.1111  plane waves:    4458
 k-point  23 :   0.1250 0.0000 0.1111  plane waves:    4444
 k-point  24 :   0.2500 0.0000 0.1111  plane waves:    4435
 k-point  25 :   0.3750 0.0000 0.1111  plane waves:    4430
 k-point  26 :   0.5000-0.0000 0.1111  plane waves:    4421
 k-point  27 :  -0.3750 0.0000 0.1111  plane waves:    4429
 k-point  28 :  -0.2500 0.0000 0.1111  plane waves:    4446
 k-point  29 :  -0.1250 0.0000 0.1111  plane waves:    4447
 k-point  30 :   0.1250 0.1250 0.1111  plane waves:    4444
 k-point  31 :   0.2500 0.1250 0.1111  plane waves:    4427
 k-point  32 :   0.3750 0.1250 0.1111  plane waves:    4424
 k-point  33 :   0.5000 0.1250 0.1111  plane waves:    4425
 k-point  34 :  -0.3750 0.1250 0.1111  plane waves:    4437
 k-point  35 :  -0.2500 0.1250 0.1111  plane waves:    4444
 k-point  36 :  -0.1250 0.1250 0.1111  plane waves:    4431
 k-point  37 :   0.2500 0.2500 0.1111  plane waves:    4413
 k-point  38 :   0.3750 0.2500 0.1111  plane waves:    4414
 k-point  39 :   0.5000 0.2500 0.1111  plane waves:    4425
 k-point  40 :  -0.3750 0.2500 0.1111  plane waves:    4443
 k-point  41 :  -0.2500 0.2500 0.1111  plane waves:    4431
 k-point  42 :  -0.1250 0.2500 0.1111  plane waves:    4426
 k-point  43 :   0.3750 0.3750 0.1111  plane waves:    4422
 k-point  44 :   0.5000 0.3750 0.1111  plane waves:    4422
 k-point  45 :  -0.3750 0.3750 0.1111  plane waves:    4437
 k-point  46 :  -0.2500 0.3750 0.1111  plane waves:    4436
 k-point  47 :  -0.1250 0.3750 0.1111  plane waves:    4445
 k-point  48 :   0.5000 0.5000 0.1111  plane waves:    4426
 k-point  49 :  -0.3750 0.5000 0.1111  plane waves:    4423
 k-point  50 :  -0.2500 0.5000 0.1111  plane waves:    4427
 k-point  51 :  -0.1250 0.5000 0.1111  plane waves:    4425
 k-point  52 :  -0.3750-0.3750 0.1111  plane waves:    4417
 k-point  53 :  -0.2500-0.3750 0.1111  plane waves:    4415
 k-point  54 :  -0.1250-0.3750 0.1111  plane waves:    4428
 k-point  55 :  -0.2500-0.2500 0.1111  plane waves:    4432
 k-point  56 :  -0.1250-0.2500 0.1111  plane waves:    4437
 k-point  57 :  -0.1250-0.1250 0.1111  plane waves:    4434
 k-point  58 :  -0.0000 0.0000 0.2222  plane waves:    4428
 k-point  59 :   0.1250 0.0000 0.2222  plane waves:    4435
 k-point  60 :   0.2500 0.0000 0.2222  plane waves:    4431
 k-point  61 :   0.3750 0.0000 0.2222  plane waves:    4423
 k-point  62 :   0.5000 0.0000 0.2222  plane waves:    4421
 k-point  63 :  -0.3750 0.0000 0.2222  plane waves:    4434
 k-point  64 :  -0.2500 0.0000 0.2222  plane waves:    4446
 k-point  65 :  -0.1250 0.0000 0.2222  plane waves:    4443
 k-point  66 :   0.1250 0.1250 0.2222  plane waves:    4430
 k-point  67 :   0.2500 0.1250 0.2222  plane waves:    4420
 k-point  68 :   0.3750 0.1250 0.2222  plane waves:    4417
 k-point  69 :   0.5000 0.1250 0.2222  plane waves:    4427
 k-point  70 :  -0.3750 0.1250 0.2222  plane waves:    4431
 k-point  71 :  -0.2500 0.1250 0.2222  plane waves:    4429
 k-point  72 :  -0.1250 0.1250 0.2222  plane waves:    4425
 k-point  73 :   0.2500 0.2500 0.2222  plane waves:    4408
 k-point  74 :   0.3750 0.2500 0.2222  plane waves:    4421
 k-point  75 :   0.5000 0.2500 0.2222  plane waves:    4430
 k-point  76 :  -0.3750 0.2500 0.2222  plane waves:    4431
 k-point  77 :  -0.2500 0.2500 0.2222  plane waves:    4427
 k-point  78 :  -0.1250 0.2500 0.2222  plane waves:    4432
 k-point  79 :   0.3750 0.3750 0.2222  plane waves:    4420
 k-point  80 :   0.5000 0.3750 0.2222  plane waves:    4424
 k-point  81 :  -0.3750 0.3750 0.2222  plane waves:    4442
 k-point  82 :  -0.2500 0.3750 0.2222  plane waves:    4434
 k-point  83 :  -0.1250 0.3750 0.2222  plane waves:    4431
 k-point  84 :   0.5000 0.5000 0.2222  plane waves:    4412
 k-point  85 :  -0.3750 0.5000 0.2222  plane waves:    4424
 k-point  86 :  -0.2500 0.5000 0.2222  plane waves:    4414
 k-point  87 :  -0.1250 0.5000 0.2222  plane waves:    4418
 k-point  88 :  -0.3750-0.3750 0.2222  plane waves:    4410
 k-point  89 :  -0.2500-0.3750 0.2222  plane waves:    4427
 k-point  90 :  -0.1250-0.3750 0.2222  plane waves:    4434
 k-point  91 :  -0.2500-0.2500 0.2222  plane waves:    4449
 k-point  92 :  -0.1250-0.2500 0.2222  plane waves:    4443
 k-point  93 :  -0.1250-0.1250 0.2222  plane waves:    4449
 k-point  94 :  -0.0000-0.0000 0.3333  plane waves:    4436
 k-point  95 :   0.1250 0.0000 0.3333  plane waves:    4426
 k-point  96 :   0.2500-0.0000 0.3333  plane waves:    4422
 k-point  97 :   0.3750-0.0000 0.3333  plane waves:    4414
 k-point  98 :   0.5000 0.0000 0.3333  plane waves:    4427
 k-point  99 :  -0.3750-0.0000 0.3333  plane waves:    4430
 k-point 100 :  -0.2500-0.0000 0.3333  plane waves:    4437
 k-point 101 :  -0.1250-0.0000 0.3333  plane waves:    4431
 k-point 102 :   0.1250 0.1250 0.3333  plane waves:    4421
 k-point 103 :   0.2500 0.1250 0.3333  plane waves:    4417
 k-point 104 :   0.3750 0.1250 0.3333  plane waves:    4427
 k-point 105 :   0.5000 0.1250 0.3333  plane waves:    4433
 k-point 106 :  -0.3750 0.1250 0.3333  plane waves:    4444
 k-point 107 :  -0.2500 0.1250 0.3333  plane waves:    4427
 k-point 108 :  -0.1250 0.1250 0.3333  plane waves:    4442
 k-point 109 :   0.2500 0.2500 0.3333  plane waves:    4410
 k-point 110 :   0.3750 0.2500 0.3333  plane waves:    4419
 k-point 111 :   0.5000 0.2500 0.3333  plane waves:    4426
 k-point 112 :  -0.3750 0.2500 0.3333  plane waves:    4436
 k-point 113 :  -0.2500 0.2500 0.3333  plane waves:    4444
 k-point 114 :  -0.1250 0.2500 0.3333  plane waves:    4430
 k-point 115 :   0.3750 0.3750 0.3333  plane waves:    4409
 k-point 116 :   0.5000 0.3750 0.3333  plane waves:    4422
 k-point 117 :  -0.3750 0.3750 0.3333  plane waves:    4423
 k-point 118 :  -0.2500 0.3750 0.3333  plane waves:    4428
 k-point 119 :  -0.1250 0.3750 0.3333  plane waves:    4423
 k-point 120 :   0.5000 0.5000 0.3333  plane waves:    4400
 k-point 121 :  -0.3750 0.5000 0.3333  plane waves:    4408
 k-point 122 :  -0.2500 0.5000 0.3333  plane waves:    4415
 k-point 123 :  -0.1250 0.5000 0.3333  plane waves:    4422
 k-point 124 :  -0.3750-0.3750 0.3333  plane waves:    4412
 k-point 125 :  -0.2500-0.3750 0.3333  plane waves:    4434
 k-point 126 :  -0.1250-0.3750 0.3333  plane waves:    4428
 k-point 127 :  -0.2500-0.2500 0.3333  plane waves:    4428
 k-point 128 :  -0.1250-0.2500 0.3333  plane waves:    4442
 k-point 129 :  -0.1250-0.1250 0.3333  plane waves:    4442
 k-point 130 :  -0.0000 0.0000 0.4444  plane waves:    4416
 k-point 131 :   0.1250 0.0000 0.4444  plane waves:    4418
 k-point 132 :   0.2500 0.0000 0.4444  plane waves:    4420
 k-point 133 :   0.3750 0.0000 0.4444  plane waves:    4428
 k-point 134 :   0.5000 0.0000 0.4444  plane waves:    4429
 k-point 135 :  -0.3750-0.0000 0.4444  plane waves:    4433
 k-point 136 :  -0.2500 0.0000 0.4444  plane waves:    4433
 k-point 137 :  -0.1250 0.0000 0.4444  plane waves:    4429
 k-point 138 :   0.1250 0.1250 0.4444  plane waves:    4418
 k-point 139 :   0.2500 0.1250 0.4444  plane waves:    4426
 k-point 140 :   0.3750 0.1250 0.4444  plane waves:    4418
 k-point 141 :   0.5000 0.1250 0.4444  plane waves:    4424
 k-point 142 :  -0.3750 0.1250 0.4444  plane waves:    4430
 k-point 143 :  -0.2500 0.1250 0.4444  plane waves:    4436
 k-point 144 :  -0.1250 0.1250 0.4444  plane waves:    4431
 k-point 145 :   0.2500 0.2500 0.4444  plane waves:    4420
 k-point 146 :   0.3750 0.2500 0.4444  plane waves:    4421
 k-point 147 :   0.5000 0.2500 0.4444  plane waves:    4425
 k-point 148 :  -0.3750 0.2500 0.4444  plane waves:    4430
 k-point 149 :  -0.2500 0.2500 0.4444  plane waves:    4427
 k-point 150 :  -0.1250 0.2500 0.4444  plane waves:    4418
 k-point 151 :   0.3750 0.3750 0.4444  plane waves:    4408
 k-point 152 :   0.5000 0.3750 0.4444  plane waves:    4411
 k-point 153 :  -0.3750 0.3750 0.4444  plane waves:    4406
 k-point 154 :  -0.2500 0.3750 0.4444  plane waves:    4408
 k-point 155 :  -0.1250 0.3750 0.4444  plane waves:    4426
 k-point 156 :   0.5000 0.5000 0.4444  plane waves:    4388
 k-point 157 :  -0.3750 0.5000 0.4444  plane waves:    4405
 k-point 158 :  -0.2500 0.5000 0.4444  plane waves:    4411
 k-point 159 :  -0.1250 0.5000 0.4444  plane waves:    4417
 k-point 160 :  -0.3750-0.3750 0.4444  plane waves:    4407
 k-point 161 :  -0.2500-0.3750 0.4444  plane waves:    4425
 k-point 162 :  -0.1250-0.3750 0.4444  plane waves:    4426
 k-point 163 :  -0.2500-0.2500 0.4444  plane waves:    4436
 k-point 164 :  -0.1250-0.2500 0.4444  plane waves:    4428
 k-point 165 :  -0.1250-0.1250 0.4444  plane waves:    4430

 maximum and minimum number of plane-waves per node :      2234     2181

 maximum number of plane-waves:      4458
 maximum index in each direction: 
   IXMAX=   11   IYMAX=   11   IZMAX=   11
   IXMIN=  -11   IYMIN=  -11   IZMIN=  -11


 parallel 3D FFT for wavefunctions:
    minimum data exchange during FFTs selected (reduces bandwidth)
 parallel 3D FFT for charge:
    minimum data exchange during FFTs selected (reduces bandwidth)


 total amount of memory used by VASP MPI-rank0   413691. kBytes
=======================================================================

   base      :      30000. kBytes
   nonl-proj :     159954. kBytes
   fftplans  :      12483. kBytes
   grid      :       9393. kBytes
   one-center:         93. kBytes
   wavefun   :     201768. kBytes
 
     INWAV:  cpu time    0.0001: real time    0.0001
 Broyden mixing: mesh for mixing (old mesh)
   NGX = 23   NGY = 23   NGZ = 23
  (NGX  = 96   NGY  = 96   NGZ  = 96)
  gives a total of  12167 points

 initial charge density was supplied:
 charge density of overlapping atoms calculated
 number of electron     104.0000000 magnetization 
 keeping initial charge density in first step


--------------------------------------------------------------------------------------------------------


 Maximum index for augmentation-charges        23675 (set IRDMAX)


--------------------------------------------------------------------------------------------------------


 First call to EWALD:  gamma=   0.348
 Maximum number of real-space cells 3x 3x 3
 Maximum number of reciprocal cells 3x 3x 3

    FEWALD:  cpu time    0.0026: real time    0.0026


--------------------------------------- Iteration      1(   1)  ---------------------------------------


    POTLOK:  cpu time    0.1997: real time    0.2013
    SETDIJ:  cpu time    0.6063: real time    0.6100
    TRIAL :  cpu time   25.0176: real time   25.2216
    CORREC:  cpu time    0.0029: real time    0.0029
    --------------------------------------------
      LOOP:  cpu time   25.8923: real time   26.1062

 eigenvalue-minimisations  : 21828
 total energy-change (2. order) : 0.1128943E+04  (-0.7191281E+04)
 number of electron     104.0000000 magnetization 
 augmentation part      104.0000000 magnetization 

 Free energy of the ion-electron system (eV)
  ---------------------------------------------------
  alpha Z        PSCENC =       704.14518210
  Ewald energy   TEWEN  =    -10068.23092025
  -Hartree energ DENC   =     -2164.44754581
  -exchange      EXHF   =         0.00000000
  -V(xc)+E(xc)   XCENC  =       492.59036050
  PAW double counting   =      9250.47132855    -9210.50234729
  entropy T*S    EENTRO =        -0.00054273
  eigenvalues    EBANDS =       460.41103713
  atomic energy  EATOM  =     11664.50664672
  ---------------------------------------------------
  free energy    TOTEN  =      1128.94319892 eV

  energy without entropy =     1128.94374166  energy(sigma->0) =     1128.94347029


--------------------------------------------------------------------------------------------------------




--------------------------------------- Iteration      1(   2)  ---------------------------------------


    TRIAL :  cpu time   26.1593: real time   26.3706
    CORREC:  cpu time    0.0028: real time    0.0028
    --------------------------------------------
      LOOP:  cpu time   26.1644: real time   26.3766

 eigenvalue-minimisations  : 23988
[...]
     58      14.5215      0.00000
     59      14.6138      0.00000
     60      14.6791      0.00000
     61      15.3168      0.00000
     62      15.5528      0.00000
     63      15.9357      0.00000
     64      16.1159      0.00000
     65      16.2444      0.00000
     66      17.1305      0.00000

 k-point   159 :      -0.1250    0.5000    0.4444
  band No.  band energies     occupation 
      1     -50.0704      2.00000
      2     -50.0242      2.00000
      3     -49.9752      2.00000
      4     -49.9316      2.00000
      5     -49.8713      2.00000
      6     -49.8695      2.00000
      7     -23.9744      2.00000
      8     -23.9668      2.00000
      9     -23.8771      2.00000
     10     -23.8556      2.00000
     11     -23.7946      2.00000
     12     -23.7258      2.00000
     13     -23.6649      2.00000
     14     -23.5744      2.00000
     15     -23.5362      2.00000
     16     -23.4910      2.00000
     17     -23.4264      2.00000
     18     -23.3950      2.00000
     19     -23.3089      2.00000
     20     -23.1843      2.00000
     21     -23.0433      2.00000
     22     -22.9903      2.00000
     23     -22.9231      2.00000
     24     -22.8954      2.00000
     25      -0.3426      2.00000
     26       0.4737      2.00000
     27       2.8856      2.00000
     28       3.3932      2.00000
     29       3.7369      2.00000
     30       4.5667      2.00000
     31       6.1435      2.00000
     32       6.5508      2.00000
     33       7.3204      2.00000
     34       7.6180      2.00000
     35       8.0707      2.00000
     36       8.3690      2.00000
     37       8.5096      2.00000
     38       8.5534      2.00000
     39       8.8273      2.00000
     40       9.0504      2.00000
     41       9.1814      2.00000
     42       9.2261      2.00000
     43       9.8460      2.00000
     44      10.2305      2.00000
     45      10.4695      2.00000
     46      10.6244      2.00000
     47      10.8630      2.00000
     48      11.5007      2.00000
     49      11.9056      2.00000
     50      11.9735      2.00000
     51      12.1359      2.00000
     52      12.3263      2.00000
     53      13.1217      0.00000
     54      13.3905      0.00000
     55      13.6902      0.00000
     56      13.8304      0.00000
     57      14.1788      0.00000
     58      14.3600      0.00000
     59      14.8745      0.00000
     60      14.9253      0.00000
     61      15.0137      0.00000
     62      15.3386      0.00000
     63      15.5075      0.00000
     64      16.0327      0.00000
     65      16.1923      0.00000
     66      16.3628      0.00000

 k-point   160 :      -0.3750   -0.3750    0.4444
  band No.  band energies     occupation 
      1     -50.0825      2.00000
      2     -49.9949      2.00000
      3     -49.9929      2.00000
      4     -49.9140      2.00000
      5     -49.8826      2.00000
      6     -49.8754      2.00000
      7     -23.8834      2.00000
      8     -23.8585      2.00000
      9     -23.8446      2.00000
     10     -23.8255      2.00000
     11     -23.8127      2.00000
     12     -23.7735      2.00000
     13     -23.7251      2.00000
     14     -23.6309      2.00000
     15     -23.6222      2.00000
     16     -23.4896      2.00000
     17     -23.4839      2.00000
     18     -23.4722      2.00000
     19     -23.1121      2.00000
     20     -23.0762      2.00000
     21     -23.0670      2.00000
     22     -23.0149      2.00000
     23     -22.9928      2.00000
     24     -22.9528      2.00000
     25      -0.5162      2.00000
     26       0.8952      2.00000
     27       2.9134      2.00000
     28       3.1247      2.00000
     29       4.2963      2.00000
     30       5.4287      2.00000
     31       5.6782      2.00000
     32       5.7019      2.00000
     33       6.9784      2.00000
     34       7.6485      2.00000
     35       7.6550      2.00000
     36       8.1324      2.00000
     37       8.3208      2.00000
     38       8.9150      2.00000
     39       9.0031      2.00000
     40       9.1208      2.00000
     41       9.1874      2.00000
     42       9.6923      2.00000
     43       9.7145      2.00000
     44      10.0454      2.00000
     45      10.2082      2.00000
     46      10.4535      2.00000
     47      10.9055      2.00000
     48      11.0378      2.00000
     49      12.0334      2.00000
     50      12.1871      2.00000
     51      12.4284      2.00000
     52      12.4738      2.00000
     53      12.6826      2.00000
     54      13.1120      0.00000
     55      13.3572      0.00000
     56      14.0346      0.00000
     57      14.1723      0.00000
     58      14.5976      0.00000
     59      14.6752      0.00000
     60      14.9157      0.00000
     61      15.4417      0.00000
     62      15.7374      0.00000
     63      15.8204      0.00000
     64      16.1014      0.00000
     65      17.2629      0.00000
     66      17.8268      0.00000

 k-point   161 :      -0.2500   -0.3750    0.4444
  band No.  band energies     occupation 
      1     -50.0831      2.00000
      2     -50.0054      2.00000
      3     -49.9872      2.00000
      4     -49.9204      2.00000
      5     -49.8780      2.00000
      6     -49.8680      2.00000
      7     -23.9476      2.00000
      8     -23.9251      2.00000
      9     -23.8939      2.00000
     10     -23.8469      2.00000
     11     -23.8423      2.00000
     12     -23.7646      2.00000
     13     -23.7277      2.00000
     14     -23.6136      2.00000
     15     -23.5756      2.00000
     16     -23.4464      2.00000
     17     -23.4438      2.00000
     18     -23.4042      2.00000
     19     -23.1775      2.00000
     20     -23.1112      2.00000
     21     -23.0576      2.00000
     22     -22.9728      2.00000
     23     -22.9482      2.00000
     24     -22.9229      2.00000
     25      -0.5969      2.00000
     26       0.7279      2.00000
     27       2.8758      2.00000
     28       3.3707      2.00000
     29       3.8704      2.00000
     30       5.2735      2.00000
     31       5.9820      2.00000
     32       6.1089      2.00000
     33       7.0659      2.00000
     34       7.6289      2.00000
     35       7.7612      2.00000
     36       8.1871      2.00000
     37       8.2751      2.00000
     38       8.5113      2.00000
     39       8.9147      2.00000
     40       9.1465      2.00000
     41       9.2672      2.00000
     42       9.4499      2.00000
     43       9.7769      2.00000
     44       9.9131      2.00000
     45      10.3254      2.00000
     46      10.4612      2.00000
     47      11.0940      2.00000
     48      11.4229      2.00000
     49      12.0348      2.00000
     50      12.2214      2.00000
     51      12.2862      2.00000
     52      12.5062      2.00000
     53      12.9915      0.00000
     54      13.2039      0.00000
     55      13.6515      0.00000
     56      14.0422      0.00000
     57      14.1994      0.00000
     58      14.4324      0.00000
     59      14.7924      0.00000
     60      15.1653      0.00000
     61      15.3096      0.00000
     62      15.4064      0.00000
     63      15.7525      0.00000
     64      16.0115      0.00000
     65      16.0808      0.00000
     66      17.5400      0.00000

 k-point   162 :      -0.1250   -0.3750    0.4444
  band No.  band energies     occupation 
      1     -50.0775      2.00000
      2     -50.0207      2.00000
      3     -49.9757      2.00000
      4     -49.9320      2.00000
      5     -49.8743      2.00000
      6     -49.8618      2.00000
      7     -24.0058      2.00000
      8     -23.9793      2.00000
      9     -23.9287      2.00000
     10     -23.8643      2.00000
     11     -23.8091      2.00000
     12     -23.7314      2.00000
     13     -23.7086      2.00000
     14     -23.5836      2.00000
     15     -23.5356      2.00000
     16     -23.4301      2.00000
     17     -23.4046      2.00000
     18     -23.3638      2.00000
     19     -23.2780      2.00000
     20     -23.1861      2.00000
     21     -23.0377      2.00000
     22     -22.9964      2.00000
     23     -22.8904      2.00000
     24     -22.8805      2.00000
     25      -0.5441      2.00000
     26       0.5183      2.00000
     27       2.9663      2.00000
     28       3.4479      2.00000
     29       3.6001      2.00000
     30       4.6841      2.00000
     31       6.5839      2.00000
     32       6.6778      2.00000
     33       7.0339      2.00000
     34       7.4391      2.00000
     35       7.9846      2.00000
     36       8.1368      2.00000
     37       8.2206      2.00000
     38       8.4894      2.00000
     39       9.0090      2.00000
     40       9.0522      2.00000
     41       9.1709      2.00000
     42       9.2301      2.00000
     43       9.7454      2.00000
     44      10.2418      2.00000
     45      10.5581      2.00000
     46      10.7069      2.00000
     47      11.2318      2.00000
     48      11.5509      2.00000
     49      11.5885      2.00000
     50      12.0440      2.00000
     51      12.3518      2.00000
     52      12.4583      2.00000
     53      13.2790      0.00000
     54      13.3220      0.00000
     55      13.5282      0.00000
     56      13.9525      0.00000
     57      14.0795      0.00000
     58      14.2966      0.00000
     59      14.8817      0.00000
     60      14.9182      0.00000
     61      15.1031      0.00000
     62      15.4600      0.00000
     63      15.6680      0.00000
     64      15.9299      0.00000
     65      16.1727      0.00000
     66      16.3564      0.00000

 k-point   163 :      -0.2500   -0.2500    0.4444
  band No.  band energies     occupation 
      1     -50.0839      2.00000
      2     -50.0010      2.00000
      3     -49.9933      2.00000
      4     -49.9273      2.00000
      5     -49.8764      2.00000
      6     -49.8601      2.00000
      7     -23.9710      2.00000
      8     -23.9684      2.00000
      9     -23.9560      2.00000
     10     -23.8691      2.00000
     11     -23.8124      2.00000
     12     -23.7744      2.00000
     13     -23.7300      2.00000
     14     -23.6187      2.00000
     15     -23.5389      2.00000
     16     -23.4295      2.00000
     17     -23.4230      2.00000
     18     -23.3304      2.00000
     19     -23.1733      2.00000
     20     -23.1382      2.00000
     21     -23.0933      2.00000
     22     -23.0071      2.00000
     23     -22.8959      2.00000
     24     -22.8808      2.00000
     25      -0.6740      2.00000
     26       0.6920      2.00000
     27       2.6938      2.00000
     28       3.3878      2.00000
     29       3.8346      2.00000
     30       5.7148      2.00000
     31       5.7312      2.00000
     32       6.5465      2.00000
     33       6.8463      2.00000
     34       7.3037      2.00000
     35       7.9699      2.00000
     36       8.1002      2.00000
     37       8.2183      2.00000
     38       8.4508      2.00000
     39       8.8850      2.00000
     40       9.1143      2.00000
     41       9.4189      2.00000
     42       9.5214      2.00000
     43       9.6835      2.00000
     44       9.7091      2.00000
     45      10.6280      2.00000
     46      10.6354      2.00000
     47      11.4248      2.00000
     48      11.4934      2.00000
     49      11.7956      2.00000
     50      12.1351      2.00000
     51      12.3577      2.00000
     52      12.8437      0.01912
     53      13.0704      0.00000
     54      13.1372      0.00000
     55      13.6386      0.00000
     56      13.9291      0.00000
     57      14.1207      0.00000
     58      14.4576      0.00000
     59      14.9518      0.00000
     60      15.1498      0.00000
     61      15.2756      0.00000
     62      15.3959      0.00000
     63      15.6655      0.00000
     64      15.8862      0.00000
     65      16.1501      0.00000
     66      16.5197      0.00000

 k-point   164 :      -0.1250   -0.2500    0.4444
  band No.  band energies     occupation 
      1     -50.0770      2.00000
      2     -50.0111      2.00000
      3     -49.9837      2.00000
      4     -49.9397      2.00000
      5     -49.8761      2.00000
      6     -49.8544      2.00000
      7     -24.0223      2.00000
      8     -23.9614      2.00000
      9     -23.9591      2.00000
     10     -23.8740      2.00000
     11     -23.7837      2.00000
     12     -23.7354      2.00000
     13     -23.7211      2.00000
     14     -23.6036      2.00000
     15     -23.5081      2.00000
     16     -23.4272      2.00000
     17     -23.4177      2.00000
     18     -23.2866      2.00000
     19     -23.2429      2.00000
     20     -23.2044      2.00000
     21     -23.0853      2.00000
     22     -23.0527      2.00000
     23     -22.8678      2.00000
     24     -22.8585      2.00000
     25      -0.5816      2.00000
     26       0.6368      2.00000
     27       2.7047      2.00000
     28       2.9012      2.00000
     29       4.1693      2.00000
     30       5.1989      2.00000
     31       6.3352      2.00000
     32       6.6538      2.00000
     33       6.8831      2.00000
     34       7.0246      2.00000
     35       7.8151      2.00000
     36       8.1116      2.00000
     37       8.4235      2.00000
     38       8.6753      2.00000
     39       8.8575      2.00000
     40       8.9844      2.00000
     41       9.4696      2.00000
     42       9.6025      2.00000
     43       9.7358      2.00000
     44      10.0934      2.00000
     45      10.7758      2.00000
     46      10.8670      2.00000
     47      11.0570      2.00000
     48      11.5685      2.00000
     49      11.8366      2.00000
     50      12.1853      2.00000
     51      12.4268      2.00000
     52      12.5344      2.00000
     53      12.9991      0.00000
     54      13.1487      0.00000
     55      13.4654      0.00000
     56      13.8629      0.00000
     57      14.2071      0.00000
     58      14.5707      0.00000
     59      14.7450      0.00000
     60      14.9046      0.00000
     61      15.0052      0.00000
     62      15.5885      0.00000
     63      15.7298      0.00000
     64      15.8251      0.00000
     65      16.2341      0.00000
     66      16.3453      0.00000

 k-point   165 :      -0.1250   -0.1250    0.4444
  band No.  band energies     occupation 
      1     -50.0684      2.00000
      2     -49.9987      2.00000
      3     -49.9937      2.00000
      4     -49.9535      2.00000
      5     -49.8787      2.00000
      6     -49.8491      2.00000
      7     -24.0609      2.00000
      8     -23.9122      2.00000
      9     -23.9061      2.00000
     10     -23.8824      2.00000
     11     -23.7460      2.00000
     12     -23.7344      2.00000
     13     -23.6959      2.00000
     14     -23.5839      2.00000
     15     -23.4873      2.00000
     16     -23.4493      2.00000
     17     -23.4480      2.00000
     18     -23.2602      2.00000
     19     -23.2424      2.00000
     20     -23.2259      2.00000
     21     -23.1420      2.00000
     22     -23.1322      2.00000
     23     -22.8764      2.00000
     24     -22.8371      2.00000
     25      -0.4362      2.00000
     26       0.7653      2.00000
     27       2.3484      2.00000
     28       2.6013      2.00000
     29       4.5711      2.00000
     30       5.6827      2.00000
     31       6.0691      2.00000
     32       6.1360      2.00000
     33       6.6809      2.00000
     34       7.3072      2.00000
     35       7.5891      2.00000
     36       8.0938      2.00000
     37       8.7229      2.00000
     38       8.7659      2.00000
     39       8.8935      2.00000
     40       8.9317      2.00000
     41       9.8588      2.00000
     42       9.8755      2.00000
     43       9.9150      2.00000
     44       9.9903      2.00000
     45      10.7527      2.00000
     46      10.8559      2.00000
     47      10.9699      2.00000
     48      11.6534      2.00000
     49      11.8221      2.00000
     50      12.3577      2.00000
     51      12.3935      2.00000
     52      12.7334      2.00000
     53      12.7480      1.99999
     54      12.8130      0.86471
     55      13.4086      0.00000
     56      13.8792      0.00000
     57      14.3225      0.00000
     58      14.4296      0.00000
     59      14.5159      0.00000
     60      14.8148      0.00000
     61      15.2648      0.00000
     62      15.3293      0.00000
     63      15.4796      0.00000
     64      16.0955      0.00000
     65      16.1152      0.00000
     66      16.5078      0.00000


--------------------------------------------------------------------------------------------------------


 soft charge-density along one line, spin component           1
         0         1         2         3         4         5         6         7         8         9
 total charge-density along one line
 
 pseudopotential strength for first ion, spin component:           1
  5.759   8.705   0.000  -0.000  -0.000   0.000  -0.000  -0.000
  8.705  13.146   0.000  -0.000  -0.000   0.000  -0.000  -0.000
  0.000   0.000  -1.831  -0.003  -0.005  -3.017  -0.005  -0.009
 -0.000  -0.000  -0.003  -1.834  -0.002  -0.005  -3.023  -0.004
 -0.000  -0.000  -0.005  -0.002  -1.827  -0.009  -0.004  -3.010
  0.000   0.000  -3.017  -0.005  -0.009  -4.751  -0.010  -0.017
 -0.000  -0.000  -0.005  -3.023  -0.004  -0.010  -4.763  -0.007
 -0.000  -0.000  -0.009  -0.004  -3.010  -0.017  -0.007  -4.739
 total augmentation occupancy for first ion, spin component:           1
  4.317  -1.182   0.000   0.000   0.000   0.000   0.000   0.000
 -1.182   0.357   0.000   0.000   0.000   0.000   0.000   0.000
  0.000   0.000   3.569   0.059   0.018  -0.987  -0.016   0.023
  0.000   0.000   0.059   3.573   0.050  -0.016  -0.968  -0.014
  0.000   0.000   0.018   0.050   3.545   0.023  -0.014  -0.999
  0.000   0.000  -0.987  -0.016   0.023   0.286   0.006  -0.012
  0.000   0.000  -0.016  -0.968  -0.014   0.006   0.277   0.005
  0.000   0.000   0.023  -0.014  -0.999  -0.012   0.005   0.294


------------------------ aborting loop because EDIFF is reached ----------------------------------------




--------------------------------------------------------------------------------------------------------



  FREE ENERGIE OF THE ION-ELECTRON SYSTEM (eV)
  ---------------------------------------------------
  free  energy   TOTEN  =      -194.59612008 eV

  energy  without entropy=     -194.59520986  energy(sigma->0) =     -194.59566497
 


--------------------------------------------------------------------------------------------------------


    POTLOK:  cpu time    0.7979: real time    0.8038


--------------------------------------------------------------------------------------------------------


 writing wavefunctions
     LOOP+:  cpu time 1037.1904: real time 1045.1542
    4ORBIT:  cpu time    0.0000: real time    0.0000

 total amount of memory used by VASP MPI-rank0   413691. kBytes
=======================================================================

   base      :      30000. kBytes
   nonl-proj :     159954. kBytes
   fftplans  :      12483. kBytes
   grid      :       9393. kBytes
   one-center:         93. kBytes
   wavefun   :     201768. kBytes
 
  
  
 General timing and accounting informations for this job:
 ========================================================
  
                  Total CPU time used (sec):     1042.390
                            User time (sec):     1038.065
                          System time (sec):        4.324
                         Elapsed time (sec):     1053.376
  
                   Maximum memory used (kb):      601256.
                   Average memory used (kb):          N/A
  
                          Minor page faults:      1652290
                          Major page faults:           45
                 Voluntary context switches:         1240
