<?xml version="1.0" encoding="ISO-8859-1"?>
<modeling>
 <generator>
  <i name="program" type="string">vasp </i>
  <i name="version" type="string">6.2.0  </i>
  <i name="subversion" type="string">18Jan21 (build Jan 05 2022 15:41:44) complex                          parallel </i>
  <i name="platform" type="string">LinuxIFC </i>
  <i name="date" type="string">2025 05 07 </i>
  <i name="time" type="string">17:43:05 </i>
 </generator>
 <incar>
  <i type="string" name="SYSTEM">routine with relax: pwdword</i>
  <i type="string" name="PREC">Acc</i>
  <i type="int" name="IALGO">    38</i>
  <i type="string" name="ALGO">A</i>
  <i type="logical" name="ADDGRID"> T  </i>
  <i type="int" name="ICHARG">     2</i>
  <i type="int" name="NELM">   100</i>
  <i type="int" name="NELMIN">     6</i>
  <i name="EDIFF">      0.00000000</i>
  <i type="int" name="NSW">     0</i>
  <i type="int" name="ISIF">    -1</i>
  <i name="SYMPREC">      0.00010000</i>
  <i name="ENCUT">    600.00000000</i>
  <i type="logical" name="LREAL"> F  </i>
  <i type="int" name="ISMEAR">     0</i>
  <i name="SIGMA">      0.02000000</i>
  <i type="logical" name="LASPH"> T  </i>
  <i type="string" name="METAGGA">R2SCAN</i>
  <i type="logical" name="LMIXTAU"> F  </i>
 </incar>
 <primitive_cell>
  <structure name="primitive_cell" >
   <crystal>
    <varray name="basis" >
     <v>       4.71926761       0.00000000      -1.93426194 </v>
     <v>      -2.12412539       4.21421145      -1.93426194 </v>
     <v>       0.00000000       0.00000000       5.10028000 </v>
    </varray>
    <i name="volume">    101.43432586 </i>
    <varray name="rec_basis" >
     <v>       0.21189729       0.10680442       0.00000000 </v>
     <v>       0.00000000       0.23729232       0.00000000 </v>
     <v>       0.08036125       0.13049739       0.19606767 </v>
    </varray>
   </crystal>
   <varray name="positions" >
    <v>       0.18508000       0.68508000       0.87016000 </v>
    <v>       0.31492000       0.18508000       0.50000000 </v>
    <v>       0.81492000       0.31492000       0.12984000 </v>
    <v>       0.68508000       0.81492000       0.50000000 </v>
    <v>       0.67586000       0.17586000       0.32383000 </v>
    <v>       0.25000000       0.25000000       0.00000000 </v>
    <v>       0.32414000       0.82414000       0.67617000 </v>
    <v>       0.75000000       0.75000000       0.00000000 </v>
    <v>       0.17586000       0.85203000       0.50000000 </v>
    <v>       0.82414000       0.14797000       0.50000000 </v>
    <v>       0.64797000       0.32414000       0.50000000 </v>
    <v>       0.14797000       0.64797000       0.32383000 </v>
    <v>       0.35203000       0.67586000       0.50000000 </v>
    <v>       0.85203000       0.35203000       0.67617000 </v>
    <v>       0.28678000       0.21322000       0.50000000 </v>
    <v>       0.78678000       0.28678000       0.07356000 </v>
    <v>       0.21322000       0.71322000       0.92644000 </v>
    <v>       0.71322000       0.78678000       0.50000000 </v>
   </varray>
  </structure>
  <varray name="primitive_index" >
   <v type="int" >        1 </v>
   <v type="int" >        2 </v>
   <v type="int" >        3 </v>
   <v type="int" >        4 </v>
   <v type="int" >        5 </v>
   <v type="int" >        6 </v>
   <v type="int" >        7 </v>
   <v type="int" >        8 </v>
   <v type="int" >        9 </v>
   <v type="int" >       10 </v>
   <v type="int" >       11 </v>
   <v type="int" >       12 </v>
   <v type="int" >       13 </v>
   <v type="int" >       14 </v>
   <v type="int" >       15 </v>
   <v type="int" >       16 </v>
   <v type="int" >       17 </v>
   <v type="int" >       18 </v>
  </varray>
 </primitive_cell>
 <kpoints>
  <generation param="Gamma">
   <v type="int" name="divisions">       8        8        9 </v>
   <v name="usershift">      0.00000000       0.00000000       0.00000000 </v>
   <v name="genvec1">      0.12500000       0.00000000       0.00000000 </v>
   <v name="genvec2">      0.00000000       0.12500000       0.00000000 </v>
   <v name="genvec3">      0.00000000      -0.00000000       0.11111111 </v>
   <v name="shift">      0.00000000       0.00000000       0.00000000 </v>
  </generation>
  <varray name="kpointlist" >
   <v>       0.00000000       0.00000000       0.00000000 </v>
   <v>       0.12500000      -0.00000000       0.00000000 </v>
   <v>       0.25000000      -0.00000000       0.00000000 </v>
   <v>       0.37500000      -0.00000000       0.00000000 </v>
   <v>       0.50000000      -0.00000000       0.00000000 </v>
   <v>       0.12500000       0.12500000       0.00000000 </v>
   <v>       0.25000000       0.12500000       0.00000000 </v>
   <v>       0.37500000       0.12500000       0.00000000 </v>
   <v>       0.50000000       0.12500000       0.00000000 </v>
   <v>      -0.37500000       0.12500000       0.00000000 </v>
   <v>      -0.25000000       0.12500000       0.00000000 </v>
   <v>      -0.12500000       0.12500000       0.00000000 </v>
   <v>       0.25000000       0.25000000       0.00000000 </v>
   <v>       0.37500000       0.25000000       0.00000000 </v>
   <v>       0.50000000       0.25000000       0.00000000 </v>
   <v>      -0.37500000       0.25000000       0.00000000 </v>
   <v>      -0.25000000       0.25000000       0.00000000 </v>
   <v>       0.37500000       0.37500000       0.00000000 </v>
   <v>       0.50000000       0.37500000       0.00000000 </v>
   <v>      -0.37500000       0.37500000       0.00000000 </v>
   <v>       0.50000000       0.50000000       0.00000000 </v>
   <v>       0.00000000      -0.00000000       0.11111111 </v>
   <v>       0.12500000      -0.00000000       0.11111111 </v>
   <v>       0.25000000      -0.00000000       0.11111111 </v>
   <v>       0.37500000      -0.00000000       0.11111111 </v>
   <v>       0.50000000      -0.00000000       0.11111111 </v>
   <v>      -0.37500000       0.00000000       0.11111111 </v>
   <v>      -0.25000000       0.00000000       0.11111111 </v>
   <v>      -0.12500000       0.00000000       0.11111111 </v>
   <v>       0.12500000       0.12500000       0.11111111 </v>
   <v>       0.25000000       0.12500000       0.11111111 </v>
   <v>       0.37500000       0.12500000       0.11111111 </v>
   <v>       0.50000000       0.12500000       0.11111111 </v>
   <v>      -0.37500000       0.12500000       0.11111111 </v>
   <v>      -0.25000000       0.12500000       0.11111111 </v>
   <v>      -0.12500000       0.12500000       0.11111111 </v>
   <v>       0.25000000       0.25000000       0.11111111 </v>
   <v>       0.37500000       0.25000000       0.11111111 </v>
   <v>       0.50000000       0.25000000       0.11111111 </v>
   <v>      -0.37500000       0.25000000       0.11111111 </v>
   <v>      -0.25000000       0.25000000       0.11111111 </v>
   <v>      -0.12500000       0.25000000       0.11111111 </v>
   <v>       0.37500000       0.37500000       0.11111111 </v>
   <v>       0.50000000       0.37500000       0.11111111 </v>
   <v>      -0.37500000       0.37500000       0.11111111 </v>
   <v>      -0.25000000       0.37500000       0.11111111 </v>
   <v>      -0.12500000       0.37500000       0.11111111 </v>
   <v>       0.50000000       0.50000000       0.11111111 </v>
   <v>      -0.37500000       0.50000000       0.11111111 </v>
   <v>      -0.25000000       0.50000000       0.11111111 </v>
   <v>      -0.12500000       0.50000000       0.11111111 </v>
   <v>      -0.37500000      -0.37500000       0.11111111 </v>
   <v>      -0.25000000      -0.37500000       0.11111111 </v>
   <v>      -0.12500000      -0.37500000       0.11111111 </v>
   <v>      -0.25000000      -0.25000000       0.11111111 </v>
   <v>      -0.12500000      -0.25000000       0.11111111 </v>
   <v>      -0.12500000      -0.12500000       0.11111111 </v>
   <v>      -0.00000000      -0.00000000       0.22222222 </v>
   <v>       0.12500000      -0.00000000       0.22222222 </v>
   <v>       0.25000000      -0.00000000       0.22222222 </v>
   <v>       0.37500000      -0.00000000       0.22222222 </v>
   <v>       0.50000000      -0.00000000       0.22222222 </v>
   <v>      -0.37500000       0.00000000       0.22222222 </v>
   <v>      -0.25000000       0.00000000       0.22222222 </v>
   <v>      -0.12500000      -0.00000000       0.22222222 </v>
   <v>       0.12500000       0.12500000       0.22222222 </v>
   <v>       0.25000000       0.12500000       0.22222222 </v>
   <v>       0.37500000       0.12500000       0.22222222 </v>
   <v>       0.50000000       0.12500000       0.22222222 </v>
   <v>      -0.37500000       0.12500000       0.22222222 </v>
   <v>      -0.25000000       0.12500000       0.22222222 </v>
   <v>      -0.12500000       0.12500000       0.22222222 </v>
   <v>       0.25000000       0.25000000       0.22222222 </v>
   <v>       0.37500000       0.25000000       0.22222222 </v>
   <v>       0.50000000       0.25000000       0.22222222 </v>
   <v>      -0.37500000       0.25000000       0.22222222 </v>
   <v>      -0.25000000       0.25000000       0.22222222 </v>
   <v>      -0.12500000       0.25000000       0.22222222 </v>
   <v>       0.37500000       0.37500000       0.22222222 </v>
   <v>       0.50000000       0.37500000       0.22222222 </v>
   <v>      -0.37500000       0.37500000       0.22222222 </v>
   <v>      -0.25000000       0.37500000       0.22222222 </v>
   <v>      -0.12500000       0.37500000       0.22222222 </v>
   <v>       0.50000000       0.50000000       0.22222222 </v>
   <v>      -0.37500000       0.50000000       0.22222222 </v>
   <v>      -0.25000000       0.50000000       0.22222222 </v>
   <v>      -0.12500000       0.50000000       0.22222222 </v>
   <v>      -0.37500000      -0.37500000       0.22222222 </v>
   <v>      -0.25000000      -0.37500000       0.22222222 </v>
   <v>      -0.12500000      -0.37500000       0.22222222 </v>
   <v>      -0.25000000      -0.25000000       0.22222222 </v>
   <v>      -0.12500000      -0.25000000       0.22222222 </v>
   <v>      -0.12500000      -0.12500000       0.22222222 </v>
   <v>       0.00000000      -0.00000000       0.33333333 </v>
   <v>       0.12500000      -0.00000000       0.33333333 </v>
   <v>       0.25000000      -0.00000000       0.33333333 </v>
   <v>       0.37500000      -0.00000000       0.33333333 </v>
   <v>       0.50000000      -0.00000000       0.33333333 </v>
   <v>      -0.37500000      -0.00000000       0.33333333 </v>
   <v>      -0.25000000      -0.00000000       0.33333333 </v>
   <v>      -0.12500000      -0.00000000       0.33333333 </v>
   <v>       0.12500000       0.12500000       0.33333333 </v>
   <v>       0.25000000       0.12500000       0.33333333 </v>
   <v>       0.37500000       0.12500000       0.33333333 </v>
   <v>       0.50000000       0.12500000       0.33333333 </v>
   <v>      -0.37500000       0.12500000       0.33333333 </v>
   <v>      -0.25000000       0.12500000       0.33333333 </v>
   <v>      -0.12500000       0.12500000       0.33333333 </v>
   <v>       0.25000000       0.25000000       0.33333333 </v>
   <v>       0.37500000       0.25000000       0.33333333 </v>
   <v>       0.50000000       0.25000000       0.33333333 </v>
   <v>      -0.37500000       0.25000000       0.33333333 </v>
   <v>      -0.25000000       0.25000000       0.33333333 </v>
   <v>      -0.12500000       0.25000000       0.33333333 </v>
   <v>       0.37500000       0.37500000       0.33333333 </v>
   <v>       0.50000000       0.37500000       0.33333333 </v>
   <v>      -0.37500000       0.37500000       0.33333333 </v>
   <v>      -0.25000000       0.37500000       0.33333333 </v>
   <v>      -0.12500000       0.37500000       0.33333333 </v>
   <v>       0.50000000       0.50000000       0.33333333 </v>
   <v>      -0.37500000       0.50000000       0.33333333 </v>
   <v>      -0.25000000       0.50000000       0.33333333 </v>
   <v>      -0.12500000       0.50000000       0.33333333 </v>
   <v>      -0.37500000      -0.37500000       0.33333333 </v>
   <v>      -0.25000000      -0.37500000       0.33333333 </v>
   <v>      -0.12500000      -0.37500000       0.33333333 </v>
   <v>      -0.25000000      -0.25000000       0.33333333 </v>
   <v>      -0.12500000      -0.25000000       0.33333333 </v>
   <v>      -0.12500000      -0.12500000       0.33333333 </v>
   <v>      -0.00000000      -0.00000000       0.44444444 </v>
   <v>       0.12500000      -0.00000000       0.44444444 </v>
   <v>       0.25000000      -0.00000000       0.44444444 </v>
   <v>       0.37500000      -0.00000000       0.44444444 </v>
   <v>       0.50000000      -0.00000000       0.44444444 </v>
   <v>      -0.37500000      -0.00000000       0.44444444 </v>
   <v>      -0.25000000      -0.00000000       0.44444444 </v>
   <v>      -0.12500000      -0.00000000       0.44444444 </v>
   <v>       0.12500000       0.12500000       0.44444444 </v>
   <v>       0.25000000       0.12500000       0.44444444 </v>
   <v>       0.37500000       0.12500000       0.44444444 </v>
   <v>       0.50000000       0.12500000       0.44444444 </v>
   <v>      -0.37500000       0.12500000       0.44444444 </v>
   <v>      -0.25000000       0.12500000       0.44444444 </v>
   <v>      -0.12500000       0.12500000       0.44444444 </v>
   <v>       0.25000000       0.25000000       0.44444444 </v>
   <v>       0.37500000       0.25000000       0.44444444 </v>
   <v>       0.50000000       0.25000000       0.44444444 </v>
   <v>      -0.37500000       0.25000000       0.44444444 </v>
   <v>      -0.25000000       0.25000000       0.44444444 </v>
   <v>      -0.12500000       0.25000000       0.44444444 </v>
   <v>       0.37500000       0.37500000       0.44444444 </v>
   <v>       0.50000000       0.37500000       0.44444444 </v>
   <v>      -0.37500000       0.37500000       0.44444444 </v>
   <v>      -0.25000000       0.37500000       0.44444444 </v>
   <v>      -0.12500000       0.37500000       0.44444444 </v>
   <v>       0.50000000       0.50000000       0.44444444 </v>
   <v>      -0.37500000       0.50000000       0.44444444 </v>
   <v>      -0.25000000       0.50000000       0.44444444 </v>
   <v>      -0.12500000       0.50000000       0.44444444 </v>
   <v>      -0.37500000      -0.37500000       0.44444444 </v>
   <v>      -0.25000000      -0.37500000       0.44444444 </v>
   <v>      -0.12500000      -0.37500000       0.44444444 </v>
   <v>      -0.25000000      -0.25000000       0.44444444 </v>
   <v>      -0.12500000      -0.25000000       0.44444444 </v>
   <v>      -0.12500000      -0.12500000       0.44444444 </v>
  </varray>
  <varray name="weights" >
   <v>       0.00173611 </v>
   <v>       0.00694444 </v>
   <v>       0.00694444 </v>
   <v>       0.00694444 </v>
   <v>       0.00347222 </v>
   <v>       0.00347222 </v>
   <v>       0.00694444 </v>
   <v>       0.00694444 </v>
   <v>       0.00694444 </v>
   <v>       0.00694444 </v>
   <v>       0.00694444 </v>
   <v>       0.00347222 </v>
   <v>       0.00347222 </v>
   <v>       0.00694444 </v>
   <v>       0.00694444 </v>
   <v>       0.00694444 </v>
   <v>       0.00347222 </v>
   <v>       0.00347222 </v>
   <v>       0.00694444 </v>
   <v>       0.00347222 </v>
   <v>       0.00173611 </v>
   <v>       0.00347222 </v>
   <v>       0.00694444 </v>
   <v>       0.00694444 </v>
   <v>       0.00694444 </v>
   <v>       0.00694444 </v>
   <v>       0.00694444 </v>
   <v>       0.00694444 </v>
   <v>       0.00694444 </v>
   <v>       0.00347222 </v>
   <v>       0.00694444 </v>
   <v>       0.00694444 </v>
   <v>       0.00694444 </v>
   <v>       0.00694444 </v>
   <v>       0.00694444 </v>
   <v>       0.00694444 </v>
   <v>       0.00347222 </v>
   <v>       0.00694444 </v>
   <v>       0.00694444 </v>
   <v>       0.00694444 </v>
   <v>       0.00694444 </v>
   <v>       0.00694444 </v>
   <v>       0.00347222 </v>
   <v>       0.00694444 </v>
   <v>       0.00694444 </v>
   <v>       0.00694444 </v>
   <v>       0.00694444 </v>
   <v>       0.00347222 </v>
   <v>       0.00694444 </v>
   <v>       0.00694444 </v>
   <v>       0.00694444 </v>
   <v>       0.00347222 </v>
   <v>       0.00694444 </v>
   <v>       0.00694444 </v>
   <v>       0.00347222 </v>
   <v>       0.00694444 </v>
   <v>       0.00347222 </v>
   <v>       0.00347222 </v>
   <v>       0.00694444 </v>
   <v>       0.00694444 </v>
   <v>       0.00694444 </v>
   <v>       0.00694444 </v>
   <v>       0.00694444 </v>
   <v>       0.00694444 </v>
   <v>       0.00694444 </v>
   <v>       0.00347222 </v>
   <v>       0.00694444 </v>
   <v>       0.00694444 </v>
   <v>       0.00694444 </v>
   <v>       0.00694444 </v>
   <v>       0.00694444 </v>
   <v>       0.00694444 </v>
   <v>       0.00347222 </v>
   <v>       0.00694444 </v>
   <v>       0.00694444 </v>
   <v>       0.00694444 </v>
   <v>       0.00694444 </v>
   <v>       0.00694444 </v>
   <v>       0.00347222 </v>
   <v>       0.00694444 </v>
   <v>       0.00694444 </v>
   <v>       0.00694444 </v>
   <v>       0.00694444 </v>
   <v>       0.00347222 </v>
   <v>       0.00694444 </v>
   <v>       0.00694444 </v>
   <v>       0.00694444 </v>
   <v>       0.00347222 </v>
   <v>       0.00694444 </v>
   <v>       0.00694444 </v>
   <v>       0.00347222 </v>
   <v>       0.00694444 </v>
   <v>       0.00347222 </v>
   <v>       0.00347222 </v>
   <v>       0.00694444 </v>
   <v>       0.00694444 </v>
   <v>       0.00694444 </v>
   <v>       0.00694444 </v>
   <v>       0.00694444 </v>
   <v>       0.00694444 </v>
   <v>       0.00694444 </v>
   <v>       0.00347222 </v>
   <v>       0.00694444 </v>
   <v>       0.00694444 </v>
   <v>       0.00694444 </v>
   <v>       0.00694444 </v>
   <v>       0.00694444 </v>
   <v>       0.00694444 </v>
   <v>       0.00347222 </v>
   <v>       0.00694444 </v>
   <v>       0.00694444 </v>
   <v>       0.00694444 </v>
   <v>       0.00694444 </v>
   <v>       0.00694444 </v>
   <v>       0.00347222 </v>
   <v>       0.00694444 </v>
   <v>       0.00694444 </v>
   <v>       0.00694444 </v>
   <v>       0.00694444 </v>
   <v>       0.00347222 </v>
   <v>       0.00694444 </v>
   <v>       0.00694444 </v>
   <v>       0.00694444 </v>
   <v>       0.00347222 </v>
   <v>       0.00694444 </v>
   <v>       0.00694444 </v>
   <v>       0.00347222 </v>
   <v>       0.00694444 </v>
   <v>       0.00347222 </v>
   <v>       0.00347222 </v>
   <v>       0.00694444 </v>
   <v>       0.00694444 </v>
   <v>       0.00694444 </v>
   <v>       0.00694444 </v>
   <v>       0.00694444 </v>
   <v>       0.00694444 </v>
   <v>       0.00694444 </v>
   <v>       0.00347222 </v>
   <v>       0.00694444 </v>
   <v>       0.00694444 </v>
   <v>       0.00694444 </v>
   <v>       0.00694444 </v>
   <v>       0.00694444 </v>
   <v>       0.00694444 </v>
   <v>       0.00347222 </v>
   <v>       0.00694444 </v>
   <v>       0.00694444 </v>
   <v>       0.00694444 </v>
   <v>       0.00694444 </v>
   <v>       0.00694444 </v>
   <v>       0.00347222 </v>
   <v>       0.00694444 </v>
   <v>       0.00694444 </v>
   <v>       0.00694444 </v>
   <v>       0.00694444 </v>
   <v>       0.00347222 </v>
   <v>       0.00694444 </v>
   <v>       0.00694444 </v>
   <v>       0.00694444 </v>
   <v>       0.00347222 </v>
   <v>       0.00694444 </v>
   <v>       0.00694444 </v>
   <v>       0.00347222 </v>
   <v>       0.00694444 </v>
   <v>       0.00347222 </v>
  </varray>
 </kpoints>
 <parameters>
  <separator name="general" >
   <i type="string" name="SYSTEM">routine with relax: pwdword</i>
   <i type="logical" name="LCOMPAT"> F  </i>
  </separator>
  <separator name="electronic" >
   <i type="string" name="PREC">acc</i>
   <i name="ENMAX">    600.00000000</i>
   <i name="ENAUG">    535.51400000</i>
   <i name="EDIFF">      0.00000000</i>
   <i type="int" name="IALGO">    58</i>
   <i type="int" name="IWAVPR">    10</i>
   <i type="int" name="NBANDS">   102</i>
   <i type="int" name="NBANDSLOW">    -1</i>
   <i type="int" name="NBANDSHIGH">    -1</i>
   <i name="NELECT">    168.00000000</i>
   <i type="int" name="TURBO">     0</i>
   <i type="int" name="IRESTART">     0</i>
   <i type="int" name="NREBOOT">     0</i>
   <i type="int" name="NMIN">     0</i>
   <i name="EREF">      0.00000000</i>
   <separator name="electronic smearing" >
    <i type="int" name="ISMEAR">     0</i>
    <i name="SIGMA">      0.02000000</i>
    <i name="KSPACING">      0.50000000</i>
    <i type="logical" name="KGAMMA"> T  </i>
    <i type="logical" name="KBLOWUP"> F  </i>
   </separator>
   <separator name="electronic projectors" >
    <i type="logical" name="LREAL"> F  </i>
    <v name="ROPT">      0.00000000      0.00000000      0.00000000</v>
    <i type="int" name="LMAXPAW">  -100</i>
    <i type="int" name="LMAXMIX">     2</i>
    <i type="logical" name="NLSPLINE"> F  </i>
   </separator>
   <separator name="electronic startup" >
    <i type="int" name="ISTART">     0</i>
    <i type="int" name="ICHARG">     2</i>
    <i type="int" name="INIWAV">     1</i>
   </separator>
   <separator name="electronic spin" >
    <i type="int" name="ISPIN">     1</i>
    <i type="logical" name="LNONCOLLINEAR"> F  </i>
    <v name="MAGMOM">      1.00000000      1.00000000      1.00000000      1.00000000      1.00000000      1.00000000      1.00000000      1.00000000      1.00000000      1.00000000      1.00000000      1.00000000      1.00000000      1.00000000      1.00000000      1.00000000      1.00000000      1.00000000</v>
    <i name="NUPDOWN">     -1.00000000</i>
    <i type="logical" name="LSORBIT"> F  </i>
    <v name="SAXIS">      0.00000000      0.00000000      1.00000000</v>
    <i type="logical" name="LSPIRAL"> F  </i>
    <v name="QSPIRAL">      0.00000000      0.00000000      0.00000000</v>
    <i type="logical" name="LZEROZ"> F  </i>
   </separator>
   <separator name="electronic exchange-correlation" >
    <i type="logical" name="LASPH"> T  </i>
    <i type="logical" name="LMETAGGA"> F  </i>
   </separator>
   <separator name="electronic convergence" >
    <i type="int" name="NELM">   100</i>
    <i type="int" name="NELMDL">    -5</i>
    <i type="int" name="NELMIN">     6</i>
    <i name="ENINI">    600.00000000</i>
    <separator name="electronic convergence detail" >
     <i type="logical" name="LDIAG"> T  </i>
     <i type="logical" name="LSUBROT"> F  </i>
     <i name="WEIMIN">      0.00000000</i>
     <i name="EBREAK">      0.00000000</i>
     <i name="DEPER">      0.30000000</i>
     <i type="int" name="NRMM">     4</i>
     <i name="TIME">      0.40000000</i>
    </separator>
   </separator>
   <separator name="electronic mixer" >
    <i name="AMIX">      0.40000000</i>
    <i name="BMIX">      1.00000000</i>
    <i name="AMIN">      0.10000000</i>
    <i name="AMIX_MAG">      1.60000000</i>
    <i name="BMIX_MAG">      1.00000000</i>
    <separator name="electronic mixer details" >
     <i type="int" name="IMIX">     4</i>
     <i type="logical" name="MIXFIRST"> F  </i>
     <i type="int" name="MAXMIX">   -45</i>
     <i name="WC">    100.00000000</i>
     <i type="int" name="INIMIX">     1</i>
     <i type="int" name="MIXPRE">     1</i>
     <i type="int" name="MREMOVE">     5</i>
    </separator>
   </separator>
   <separator name="electronic dipolcorrection" >
    <i type="logical" name="LDIPOL"> F  </i>
    <i type="logical" name="LMONO"> F  </i>
    <i type="int" name="IDIPOL">     0</i>
    <i name="EPSILON">      1.00000000</i>
    <v name="DIPOL">   -100.00000000   -100.00000000   -100.00000000</v>
    <i name="EFIELD">      0.00000000</i>
   </separator>
  </separator>
  <separator name="grids" >
   <i type="int" name="NGX">    42</i>
   <i type="int" name="NGY">    42</i>
   <i type="int" name="NGZ">    42</i>
   <i type="int" name="NGXF">    84</i>
   <i type="int" name="NGYF">    84</i>
   <i type="int" name="NGZF">    84</i>
   <i type="logical" name="ADDGRID"> T  </i>
  </separator>
  <separator name="ionic" >
   <i type="int" name="NSW">     0</i>
   <i type="int" name="IBRION">    -1</i>
   <i type="int" name="MDALGO">     0</i>
   <i type="int" name="ISIF">    -1</i>
   <i name="PSTRESS">      0.00000000</i>
   <i name="EDIFFG">      0.00000001</i>
   <i type="int" name="NFREE">     0</i>
   <i name="POTIM">      0.50000000</i>
   <i name="SMASS">     -3.00000000</i>
   <i name="SCALEE">      1.00000000</i>
  </separator>
  <separator name="ionic md" >
   <i name="TEBEG">      0.00010000</i>
   <i name="TEEND">      0.00010000</i>
   <i type="int" name="NBLOCK">     1</i>
   <i type="int" name="KBLOCK">     1</i>
   <i type="int" name="NPACO">   256</i>
   <i name="APACO">     16.00000000</i>
  </separator>
  <separator name="symmetry" >
   <i type="int" name="ISYM">     2</i>
   <i name="SYMPREC">      0.00010000</i>
  </separator>
  <separator name="dos" >
   <i type="int" name="LORBIT">     0</i>
   <v name="RWIGS">     -1.00000000     -1.00000000     -1.00000000</v>
   <i type="int" name="NEDOS">   301</i>
   <i name="EMIN">     10.00000000</i>
   <i name="EMAX">    -10.00000000</i>
   <i name="EFERMI">      0.00000000</i>
  </separator>
  <separator name="writing" >
   <i type="int" name="NWRITE">     2</i>
   <i type="logical" name="LWAVE"> T  </i>
   <i type="logical" name="LDOWNSAMPLE"> F  </i>
   <i type="logical" name="LCHARG"> T  </i>
   <i type="logical" name="LPARD"> F  </i>
   <i type="logical" name="LVTOT"> F  </i>
   <i type="logical" name="LVHAR"> F  </i>
   <i type="logical" name="LELF"> F  </i>
   <i type="logical" name="LOPTICS"> F  </i>
   <v name="STM">      0.00000000      0.00000000      0.00000000      0.00000000      0.00000000      0.00000000      0.00000000</v>
  </separator>
  <separator name="performance" >
   <i type="int" name="NPAR">     6</i>
   <i type="int" name="NSIM">     4</i>
   <i type="int" name="NBLK">    -1</i>
   <i type="logical" name="LPLANE"> T  </i>
   <i type="logical" name="LSCALAPACK"> T  </i>
   <i type="logical" name="LSCAAWARE"> F  </i>
   <i type="logical" name="LSCALU"> F  </i>
   <i type="logical" name="LASYNC"> F  </i>
   <i type="logical" name="LORBITALREAL"> F  </i>
  </separator>
  <separator name="miscellaneous" >
   <i type="int" name="IDIOT">     3</i>
   <i type="int" name="PHON_NSTRUCT">    -1</i>
   <i type="logical" name="LMUSIC"> F  </i>
   <v name="POMASS">     10.81100000     95.94000000     28.08500000</v>
   <v name="DARWINR">      0.00000000      0.00000000      0.00000000</v>
   <v name="DARWINV">      1.00000000      1.00000000      1.00000000</v>
   <i type="logical" name="LCORR"> T  </i>
  </separator>
  <i type="logical" name="GGA_COMPAT"> T  </i>
  <i type="logical" name="LBERRY"> F  </i>
  <i type="int" name="ICORELEVEL">     0</i>
  <i type="logical" name="LDAU"> F  </i>
  <i type="int" name="I_CONSTRAINED_M">     0</i>
  <separator name="electronic exchange-correlation" >
   <i type="string" name="GGA">--</i>
   <i type="int" name="VOSKOWN">     0</i>
   <i type="logical" name="LHFCALC"> F  </i>
   <i type="string" name="PRECFOCK"></i>
   <i type="logical" name="LSYMGRAD"> F  </i>
   <i type="logical" name="LHFONE"> F  </i>
   <i type="logical" name="LRHFCALC"> F  </i>
   <i type="logical" name="LTHOMAS"> F  </i>
   <i type="logical" name="LMODELHF"> F  </i>
   <i type="logical" name="LFOCKACE"> F  </i>
   <i name="ENCUT4O">     -1.00000000</i>
   <i type="int" name="EXXOEP">     0</i>
   <i type="int" name="FOURORBIT">     0</i>
   <i name="AEXX">      0.00000000</i>
   <i name="HFALPHA">      0.00000000</i>
   <i name="MCALPHA">      0.00000000</i>
   <i name="ALDAX">      1.00000000</i>
   <i name="AGGAX">      1.00000000</i>
   <i name="ALDAC">      1.00000000</i>
   <i name="AGGAC">      1.00000000</i>
   <i type="int" name="NKREDX">     1</i>
   <i type="int" name="NKREDY">     1</i>
   <i type="int" name="NKREDZ">     1</i>
   <i type="logical" name="SHIFTRED"> F  </i>
   <i type="logical" name="ODDONLY"> F  </i>
   <i type="logical" name="EVENONLY"> F  </i>
   <i type="int" name="LMAXFOCK">     0</i>
   <i type="int" name="NMAXFOCKAE">     0</i>
   <i type="logical" name="LFOCKAEDFT"> F  </i>
   <i name="HFSCREEN">      0.00000000</i>
   <i name="HFSCREENC">      0.00000000</i>
   <i type="int" name="NBANDSGWLOW">     0</i>
  </separator>
  <separator name="vdW DFT" >
   <i type="logical" name="LUSE_VDW"> F  </i>
   <i name="Zab_VDW">     -0.84910000</i>
   <i name="PARAM1">      0.12340000</i>
   <i name="PARAM2">      1.00000000</i>
   <i name="PARAM3">      0.00000000</i>
  </separator>
  <separator name="model GW" >
   <i type="int" name="MODEL_GW">     0</i>
   <i name="MODEL_EPS0">      3.38114420</i>
   <i name="MODEL_ALPHA">      1.00000000</i>
  </separator>
  <separator name="linear response parameters" >
   <i type="logical" name="LEPSILON"> F  </i>
   <i type="logical" name="LRPA"> F  </i>
   <i type="logical" name="LNABLA"> F  </i>
   <i type="logical" name="LVEL"> F  </i>
   <i type="int" name="KINTER">     0</i>
   <i name="CSHIFT">      0.10000000</i>
   <i name="OMEGAMAX">     -1.00000000</i>
   <i name="DEG_THRESHOLD">      0.00200000</i>
   <i name="RTIME">     -0.10000000</i>
   <i name="WPLASMAI">      0.00000000</i>
   <v name="DFIELD">      0.00000000      0.00000000      0.00000000</v>
   <v name="WPLASMA">      0.00000000      0.00000000      0.00000000      0.00000000      0.00000000      0.00000000      0.00000000      0.00000000      0.00000000</v>
  </separator>
  <separator name="orbital magnetization" >
   <i type="logical" name="NUCIND"> F  </i>
   <v name="MAGPOS">      0.00000000      0.00000000      0.00000000</v>
   <i type="logical" name="LNICSALL"> T  </i>
   <i type="logical" name="ORBITALMAG"> F  </i>
   <i type="logical" name="LMAGBLOCH"> F  </i>
   <i type="logical" name="LCHIMAG"> F  </i>
   <i type="logical" name="LGAUGE"> T  </i>
   <i type="int" name="MAGATOM">     0</i>
   <v name="MAGDIPOL">      0.00000000      0.00000000      0.00000000</v>
   <v name="AVECCONST">      0.00000000      0.00000000      0.00000000</v>
  </separator>
  <separator name="response functions" >
   <i type="logical" name="LFINITE_TEMPERATURE"> F  </i>
   <i type="logical" name="LADDER"> F  </i>
   <i type="logical" name="LRPAFORCE"> F  </i>
   <i type="logical" name="LFXC"> F  </i>
   <i type="logical" name="LHARTREE"> T  </i>
   <i type="int" name="IBSE">     0</i>
   <v type="int" name="KPOINT">    -1     0     0     0</v>
   <i type="logical" name="LTCTC"> F  </i>
   <i type="logical" name="LTCTE"> F  </i>
   <i type="logical" name="LTETE"> F  </i>
   <i type="logical" name="LTRIPLET"> F  </i>
   <i type="logical" name="LFXCEPS"> F  </i>
   <i type="logical" name="LFXHEG"> F  </i>
   <i type="int" name="NATURALO">     2</i>
   <i type="logical" name="LHOLEGF"> F  </i>
   <i type="logical" name="L2ORDER"> F  </i>
   <i type="logical" name="LDMP1"> F  </i>
   <i type="logical" name="LMP2LT"> F  </i>
   <i type="logical" name="LSMP2LT"> F  </i>
   <i type="logical" name="LGWLF"> F  </i>
   <i name="ENCUTGW">     -2.00000000</i>
   <i name="ENCUTGWSOFT">     -2.00000000</i>
   <i name="ENCUTLF">     -1.00000000</i>
   <i type="logical" name="LESF_SPLINES"> F  </i>
   <i type="int" name="LMAXMP2">    -1</i>
   <i name="SCISSOR">      0.00000000</i>
   <i type="int" name="NOMEGA">     0</i>
   <i type="int" name="NOMEGAR">     0</i>
   <i type="int" name="NBANDSGW">    -1</i>
   <i type="int" name="NBANDSO">    -1</i>
   <i type="int" name="NBANDSV">    -1</i>
   <i type="int" name="NELM">   100</i>
   <i type="int" name="NELMHF">     1</i>
   <i type="int" name="DIM">     3</i>
   <i type="int" name="IESPILON">     4</i>
   <i type="int" name="ANTIRES">     0</i>
   <i name="OMEGAMAX">    -30.00000000</i>
   <i name="OMEGAMIN">    -30.00000000</i>
   <i name="OMEGATL">   -200.00000000</i>
   <i type="int" name="OMEGAGRID">     0</i>
   <i name="CSHIFT">     -0.10000000</i>
   <i type="logical" name="LSELFENERGY"> F  </i>
   <i type="logical" name="LSPECTRAL"> F  </i>
   <i type="logical" name="LSPECTRALGW"> F  </i>
   <i type="logical" name="LSINGLES"> F  </i>
   <i type="logical" name="LFERMIGW"> F  </i>
   <i type="logical" name="ODDONLYGW"> F  </i>
   <i type="logical" name="EVENONLYGW"> F  </i>
   <i type="int" name="NKREDLFX">     1</i>
   <i type="int" name="NKREDLFY">     1</i>
   <i type="int" name="NKREDLFZ">     1</i>
   <i type="int" name="MAXMEM">  2800</i>
   <i type="int" name="TELESCOPE">     0</i>
   <i type="int" name="NTAUPAR">    -1</i>
   <i type="int" name="NOMEGAPAR">    -1</i>
   <i name="DAMP_NEWTON">      0.80000001</i>
   <i name="LAMBDA">      1.00000000</i>
  </separator>
  <separator name="External order field" >
   <i name="OFIELD_KAPPA">      0.00000000</i>
   <v name="OFIELD_K">      0.00000000      0.00000000      0.00000000</v>
   <i name="OFIELD_Q6_NEAR">      0.00000000</i>
   <i name="OFIELD_Q6_FAR">      0.00000000</i>
   <i name="OFIELD_A">      0.00000000</i>
  </separator>
 </parameters>
 <atominfo>
  <atoms>      18 </atoms>
  <types>       3 </types>
  <array name="atoms" >
   <dimension dim="1">ion</dimension>
   <field type="string">element</field>
   <field type="int">atomtype</field>
   <set>
    <rc><c>B </c><c>   1</c></rc>
    <rc><c>B </c><c>   1</c></rc>
    <rc><c>B </c><c>   1</c></rc>
    <rc><c>B </c><c>   1</c></rc>
    <rc><c>Mo</c><c>   2</c></rc>
    <rc><c>Mo</c><c>   2</c></rc>
    <rc><c>Mo</c><c>   2</c></rc>
    <rc><c>Mo</c><c>   2</c></rc>
    <rc><c>Mo</c><c>   2</c></rc>
    <rc><c>Mo</c><c>   2</c></rc>
    <rc><c>Mo</c><c>   2</c></rc>
    <rc><c>Mo</c><c>   2</c></rc>
    <rc><c>Mo</c><c>   2</c></rc>
    <rc><c>Mo</c><c>   2</c></rc>
    <rc><c>Si</c><c>   3</c></rc>
    <rc><c>Si</c><c>   3</c></rc>
    <rc><c>Si</c><c>   3</c></rc>
    <rc><c>Si</c><c>   3</c></rc>
   </set>
  </array>
  <array name="atomtypes" >
   <dimension dim="1">type</dimension>
   <field type="int">atomspertype</field>
   <field type="string">element</field>
   <field>mass</field>
   <field>valence</field>
   <field type="string">pseudopotential</field>
   <set>
    <rc><c>   4</c><c>B </c><c>     10.81100000</c><c>      3.00000000</c><c>  PAW_PBE B 06Sep2000                   </c></rc>
    <rc><c>  10</c><c>Mo</c><c>     95.94000000</c><c>     14.00000000</c><c>  PAW_PBE Mo_sv 02Feb2006               </c></rc>
    <rc><c>   4</c><c>Si</c><c>     28.08500000</c><c>      4.00000000</c><c>  PAW_PBE Si 05Jan2001                  </c></rc>
   </set>
  </array>
 </atominfo>
 <structure name="initialpos" >
  <crystal>
   <varray name="basis" >
    <v>       4.71926761       0.00000000      -1.93426194 </v>
    <v>      -2.12412539       4.21421145      -1.93426194 </v>
    <v>       0.00000000       0.00000000       5.10028000 </v>
   </varray>
   <i name="volume">    101.43432586 </i>
   <varray name="rec_basis" >
    <v>       0.21189729       0.10680442       0.00000000 </v>
    <v>       0.00000000       0.23729232       0.00000000 </v>
    <v>       0.08036125       0.13049739       0.19606767 </v>
   </varray>
  </crystal>
  <varray name="positions" >
   <v>       0.18508000       0.68508000       0.87016000 </v>
   <v>       0.31492000       0.18508000       0.50000000 </v>
   <v>       0.81492000       0.31492000       0.12984000 </v>
   <v>       0.68508000       0.81492000       0.50000000 </v>
   <v>       0.67586000       0.17586000       0.32383000 </v>
   <v>       0.25000000       0.25000000       0.00000000 </v>
   <v>       0.32414000       0.82414000       0.67617000 </v>
   <v>       0.75000000       0.75000000       0.00000000 </v>
   <v>       0.17586000       0.85203000       0.50000000 </v>
   <v>       0.82414000       0.14797000       0.50000000 </v>
   <v>       0.64797000       0.32414000       0.50000000 </v>
   <v>       0.14797000       0.64797000       0.32383000 </v>
   <v>       0.35203000       0.67586000       0.50000000 </v>
   <v>       0.85203000       0.35203000       0.67617000 </v>
   <v>       0.28678000       0.21322000       0.50000000 </v>
   <v>       0.78678000       0.28678000       0.07356000 </v>
   <v>       0.21322000       0.71322000       0.92644000 </v>
   <v>       0.71322000       0.78678000       0.50000000 </v>
  </varray>
 </structure>
 <calculation>
  <scstep>
   <time name="total">   26.54   26.76</time>
   <energy>
    <i name="alphaZ">   2387.84387869 </i>
    <i name="ewald">  -9950.80916237 </i>
    <i name="hartreedc">  -7172.60980449 </i>
    <i name="XCdc">    952.05856513 </i>
    <i name="pawpsdc">  15361.63353705 </i>
    <i name="pawaedc"> -15286.57816344 </i>
    <i name="eentropy">     -0.00036620 </i>
    <i name="bandstr">    991.42880535 </i>
    <i name="atom">  19319.76984889 </i>
    <i name="e_fr_energy">   6602.73713859 </i>
    <i name="e_wo_entrp">   6602.73750480 </i>
    <i name="e_0_energy">   6602.73732170 </i>
   </energy>
  </scstep>
  <scstep>
   <time name="total">   25.25   25.45</time>
   <energy>
    <i name="e_fr_energy">   3724.58238552 </i>
    <i name="e_wo_entrp">   3724.58315491 </i>
    <i name="e_0_energy">   3724.58277021 </i>
   </energy>
  </scstep>
  <scstep>
   <time name="total">   27.94   28.17</time>
   <energy>
    <i name="e_fr_energy">   3477.11252653 </i>
    <i name="e_wo_entrp">   3477.11353302 </i>
    <i name="e_0_energy">   3477.11302977 </i>
   </energy>
  </scstep>
  <scstep>
   <time name="total">   27.36   27.58</time>
   <energy>
    <i name="e_fr_energy">   3468.87417280 </i>
    <i name="e_wo_entrp">   3468.87520221 </i>
    <i name="e_0_energy">   3468.87468751 </i>
   </energy>
  </scstep>
  <scstep>
   <time name="total">   31.15   31.40</time>
   <energy>
    <i name="e_fr_energy">   3468.57097033 </i>
    <i name="e_wo_entrp">   3468.57194327 </i>
    <i name="e_0_energy">   3468.57145680 </i>
   </energy>
  </scstep>
  <scstep>
   <time name="total">   28.72   28.95</time>
   <energy>
    <i name="e_fr_energy">   4501.87762979 </i>
    <i name="e_wo_entrp">   4501.87848502 </i>
    <i name="e_0_energy">   4501.87805741 </i>
   </energy>
  </scstep>
  <scstep>
   <time name="total">   30.03   30.25</time>
   <energy>
    <i name="e_fr_energy">   4077.75430042 </i>
    <i name="e_wo_entrp">   4077.75489260 </i>
    <i name="e_0_energy">   4077.75459651 </i>
   </energy>
  </scstep>
  <scstep>
   <time name="total">   30.05   30.27</time>
   <energy>
    <i name="e_fr_energy">   4011.63208282 </i>
    <i name="e_wo_entrp">   4011.63328683 </i>
    <i name="e_0_energy">   4011.63268482 </i>
   </energy>
  </scstep>
  <scstep>
   <time name="total">   29.41   29.62</time>
   <energy>
    <i name="e_fr_energy">   3947.56752265 </i>
    <i name="e_wo_entrp">   3947.56837746 </i>
    <i name="e_0_energy">   3947.56795005 </i>
   </energy>
  </scstep>
  <scstep>
   <time name="total">   29.38   29.59</time>
   <energy>
    <i name="e_fr_energy">   3914.99210651 </i>
    <i name="e_wo_entrp">   3914.99298073 </i>
    <i name="e_0_energy">   3914.99254362 </i>
   </energy>
  </scstep>
  <scstep>
   <time name="total">   30.08   30.30</time>
   <energy>
    <i name="e_fr_energy">   3900.63130441 </i>
    <i name="e_wo_entrp">   3900.63216481 </i>
    <i name="e_0_energy">   3900.63173461 </i>
   </energy>
  </scstep>
  <scstep>
   <time name="total">   29.95   30.17</time>
   <energy>
    <i name="e_fr_energy">   3887.62062928 </i>
    <i name="e_wo_entrp">   3887.62118086 </i>
    <i name="e_0_energy">   3887.62090507 </i>
   </energy>
  </scstep>
  <scstep>
   <time name="total">   29.66   29.86</time>
   <energy>
    <i name="e_fr_energy">   3882.91171982 </i>
    <i name="e_wo_entrp">   3882.91240354 </i>
    <i name="e_0_energy">   3882.91206168 </i>
   </energy>
  </scstep>
  <scstep>
   <time name="total">   29.43   29.64</time>
   <energy>
    <i name="e_fr_energy">   3880.66808647 </i>
    <i name="e_wo_entrp">   3880.66892479 </i>
    <i name="e_0_energy">   3880.66850563 </i>
   </energy>
  </scstep>
  <scstep>
   <time name="total">   29.16   29.37</time>
   <energy>
    <i name="e_fr_energy">   3878.98823656 </i>
    <i name="e_wo_entrp">   3878.98889014 </i>
    <i name="e_0_energy">   3878.98856335 </i>
   </energy>
  </scstep>
  <scstep>
   <time name="total">   29.29   29.50</time>
   <energy>
    <i name="e_fr_energy">   3878.31909755 </i>
    <i name="e_wo_entrp">   3878.31973388 </i>
    <i name="e_0_energy">   3878.31941572 </i>
   </energy>
  </scstep>
  <scstep>
   <time name="total">   29.26   29.47</time>
   <energy>
    <i name="e_fr_energy">   3877.85944027 </i>
    <i name="e_wo_entrp">   3877.86013232 </i>
    <i name="e_0_energy">   3877.85978629 </i>
   </energy>
  </scstep>
  <scstep>
   <time name="total">   29.22   29.43</time>
   <energy>
    <i name="e_fr_energy">   3877.63341188 </i>
    <i name="e_wo_entrp">   3877.63405593 </i>
    <i name="e_0_energy">   3877.63373391 </i>
   </energy>
  </scstep>
  <scstep>
   <time name="total">   29.43   29.65</time>
   <energy>
    <i name="e_fr_energy">   3877.52402567 </i>
    <i name="e_wo_entrp">   3877.52457088 </i>
    <i name="e_0_energy">   3877.52429828 </i>
   </energy>
  </scstep>
  <scstep>
   <time name="total">   29.19   29.41</time>
   <energy>
    <i name="e_fr_energy">   3877.45129945 </i>
    <i name="e_wo_entrp">   3877.45195383 </i>
    <i name="e_0_energy">   3877.45162664 </i>
   </energy>
  </scstep>
  <scstep>
   <time name="total">   29.32   29.54</time>
   <energy>
    <i name="e_fr_energy">   3877.41676779 </i>
    <i name="e_wo_entrp">   3877.41752586 </i>
    <i name="e_0_energy">   3877.41714682 </i>
   </energy>
  </scstep>
  <scstep>
   <time name="total">   29.30   29.51</time>
   <energy>
    <i name="e_fr_energy">   3877.39883378 </i>
    <i name="e_wo_entrp">   3877.39964191 </i>
    <i name="e_0_energy">   3877.39923784 </i>
   </energy>
  </scstep>
  <scstep>
   <time name="total">   29.27   29.49</time>
   <energy>
    <i name="e_fr_energy">   3877.38755904 </i>
    <i name="e_wo_entrp">   3877.38836776 </i>
    <i name="e_0_energy">   3877.38796340 </i>
   </energy>
  </scstep>
  <scstep>
   <time name="total">   29.23   29.45</time>
   <energy>
    <i name="e_fr_energy">   3877.38052184 </i>
    <i name="e_wo_entrp">   3877.38130258 </i>
    <i name="e_0_energy">   3877.38091221 </i>
   </energy>
  </scstep>
  <scstep>
   <time name="total">   29.24   29.47</time>
   <energy>
    <i name="e_fr_energy">   3877.37632491 </i>
    <i name="e_wo_entrp">   3877.37706723 </i>
    <i name="e_0_energy">   3877.37669607 </i>
   </energy>
  </scstep>
  <scstep>
   <time name="total">   29.21   29.42</time>
   <energy>
    <i name="e_fr_energy">   3877.37382300 </i>
    <i name="e_wo_entrp">   3877.37453096 </i>
    <i name="e_0_energy">   3877.37417698 </i>
   </energy>
  </scstep>
  <scstep>
   <time name="total">   29.69   29.90</time>
   <energy>
    <i name="e_fr_energy">   3877.37252644 </i>
    <i name="e_wo_entrp">   3877.37320455 </i>
    <i name="e_0_energy">   3877.37286550 </i>
   </energy>
  </scstep>
  <scstep>
   <time name="total">   29.28   29.48</time>
   <energy>
    <i name="e_fr_energy">   3877.37177618 </i>
    <i name="e_wo_entrp">   3877.37243351 </i>
    <i name="e_0_energy">   3877.37210485 </i>
   </energy>
  </scstep>
  <scstep>
   <time name="total">   29.72   29.96</time>
   <energy>
    <i name="e_fr_energy">   3877.37134867 </i>
    <i name="e_wo_entrp">   3877.37199340 </i>
    <i name="e_0_energy">   3877.37167104 </i>
   </energy>
  </scstep>
  <scstep>
   <time name="total">   29.26   29.48</time>
   <energy>
    <i name="e_fr_energy">   3877.37110577 </i>
    <i name="e_wo_entrp">   3877.37174375 </i>
    <i name="e_0_energy">   3877.37142476 </i>
   </energy>
  </scstep>
  <scstep>
   <time name="total">   29.43   29.65</time>
   <energy>
    <i name="e_fr_energy">   3877.37095850 </i>
    <i name="e_wo_entrp">   3877.37159411 </i>
    <i name="e_0_energy">   3877.37127630 </i>
   </energy>
  </scstep>
  <scstep>
   <time name="total">   29.42   29.63</time>
   <energy>
    <i name="e_fr_energy">   3877.37087139 </i>
    <i name="e_wo_entrp">   3877.37150711 </i>
    <i name="e_0_energy">   3877.37118925 </i>
   </energy>
  </scstep>
  <scstep>
   <time name="total">   29.29   29.51</time>
   <energy>
    <i name="e_fr_energy">   3877.37081963 </i>
    <i name="e_wo_entrp">   3877.37145680 </i>
    <i name="e_0_energy">   3877.37113821 </i>
   </energy>
  </scstep>
  <scstep>
   <time name="total">   29.41   29.63</time>
   <energy>
    <i name="e_fr_energy">   3877.37078986 </i>
    <i name="e_wo_entrp">   3877.37142927 </i>
    <i name="e_0_energy">   3877.37110956 </i>
   </energy>
  </scstep>
  <scstep>
   <time name="total">   29.25   29.47</time>
   <energy>
    <i name="e_fr_energy">   3877.37077394 </i>
    <i name="e_wo_entrp">   3877.37141597 </i>
    <i name="e_0_energy">   3877.37109496 </i>
   </energy>
  </scstep>
  <scstep>
   <time name="total">   29.39   29.60</time>
   <energy>
    <i name="e_fr_energy">   3877.37076378 </i>
    <i name="e_wo_entrp">   3877.37140800 </i>
    <i name="e_0_energy">   3877.37108589 </i>
   </energy>
  </scstep>
  <scstep>
   <time name="total">   29.22   29.44</time>
   <energy>
    <i name="e_fr_energy">   3877.37075787 </i>
    <i name="e_wo_entrp">   3877.37140244 </i>
    <i name="e_0_energy">   3877.37108015 </i>
   </energy>
  </scstep>
  <scstep>
   <time name="total">   29.23   29.44</time>
   <energy>
    <i name="e_fr_energy">   3877.37075387 </i>
    <i name="e_wo_entrp">   3877.37139876 </i>
    <i name="e_0_energy">   3877.37107632 </i>
   </energy>
  </scstep>
  <scstep>
   <time name="total">   29.43   29.65</time>
   <energy>
    <i name="e_fr_energy">   3877.37075189 </i>
    <i name="e_wo_entrp">   3877.37139701 </i>
    <i name="e_0_energy">   3877.37107445 </i>
   </energy>
  </scstep>
  <scstep>
   <time name="total">   29.33   29.54</time>
   <energy>
    <i name="e_fr_energy">   3877.37075101 </i>
    <i name="e_wo_entrp">   3877.37139633 </i>
    <i name="e_0_energy">   3877.37107367 </i>
   </energy>
  </scstep>
  <scstep>
   <time name="total">   29.47   29.68</time>
   <energy>
    <i name="e_fr_energy">   3877.37075039 </i>
    <i name="e_wo_entrp">   3877.37139580 </i>
    <i name="e_0_energy">   3877.37107309 </i>
   </energy>
  </scstep>
  <scstep>
   <time name="total">   28.20   28.40</time>
   <energy>
    <i name="e_fr_energy">   3877.37075005 </i>
    <i name="e_wo_entrp">   3877.37139548 </i>
    <i name="e_0_energy">   3877.37107276 </i>
   </energy>
  </scstep>
  <scstep>
   <time name="total">   29.28   29.49</time>
   <energy>
    <i name="e_fr_energy">   3877.37074974 </i>
    <i name="e_wo_entrp">   3877.37139516 </i>
    <i name="e_0_energy">   3877.37107245 </i>
   </energy>
  </scstep>
  <scstep>
   <time name="total">   29.36   29.58</time>
   <energy>
    <i name="e_fr_energy">   3877.37074972 </i>
    <i name="e_wo_entrp">   3877.37139512 </i>
    <i name="e_0_energy">   3877.37107242 </i>
   </energy>
  </scstep>
  <scstep>
   <time name="total">   28.09   28.30</time>
   <energy>
    <i name="e_fr_energy">   3877.37074973 </i>
    <i name="e_wo_entrp">   3877.37139511 </i>
    <i name="e_0_energy">   3877.37107242 </i>
   </energy>
  </scstep>
  <scstep>
   <time name="total">   29.27   29.49</time>
   <energy>
    <i name="e_fr_energy">   3877.37074966 </i>
    <i name="e_wo_entrp">   3877.37139498 </i>
    <i name="e_0_energy">   3877.37107232 </i>
   </energy>
  </scstep>
  <scstep>
   <time name="total">   28.20   28.40</time>
   <energy>
    <i name="e_fr_energy">   3877.37074965 </i>
    <i name="e_wo_entrp">   3877.37139496 </i>
    <i name="e_0_energy">   3877.37107230 </i>
   </energy>
  </scstep>
  <scstep>
   <time name="total">   29.26   29.47</time>
   <energy>
    <i name="e_fr_energy">   3877.37074953 </i>
    <i name="e_wo_entrp">   3877.37139484 </i>
    <i name="e_0_energy">   3877.37107218 </i>
   </energy>
  </scstep>
  <scstep>
   <time name="total">   29.48   29.70</time>
   <energy>
    <i name="e_fr_energy">   3877.37074962 </i>
    <i name="e_wo_entrp">   3877.37139492 </i>
    <i name="e_0_energy">   3877.37107227 </i>
   </energy>
  </scstep>
  <scstep>
   <time name="total">   29.30   29.51</time>
   <energy>
    <i name="e_fr_energy">   3877.37074964 </i>
    <i name="e_wo_entrp">   3877.37139494 </i>
    <i name="e_0_energy">   3877.37107229 </i>
   </energy>
  </scstep>
  <scstep>
   <time name="total">   28.23   28.44</time>
   <energy>
    <i name="e_fr_energy">   3877.37074962 </i>
    <i name="e_wo_entrp">   3877.37139491 </i>
    <i name="e_0_energy">   3877.37107226 </i>
   </energy>
  </scstep>
  <scstep>
   <time name="total">   29.28   29.49</time>
   <energy>
    <i name="e_fr_energy">   3877.37074954 </i>
    <i name="e_wo_entrp">   3877.37139483 </i>
    <i name="e_0_energy">   3877.37107219 </i>
   </energy>
  </scstep>
  <scstep>
   <time name="total">   29.42   29.69</time>
   <energy>
    <i name="e_fr_energy">   3877.37074951 </i>
    <i name="e_wo_entrp">   3877.37139479 </i>
    <i name="e_0_energy">   3877.37107215 </i>
   </energy>
  </scstep>
  <scstep>
   <time name="total">   28.22   28.43</time>
   <energy>
    <i name="e_fr_energy">   3877.37074959 </i>
    <i name="e_wo_entrp">   3877.37139487 </i>
    <i name="e_0_energy">   3877.37107223 </i>
   </energy>
  </scstep>
  <scstep>
   <time name="total">   29.07   29.29</time>
   <energy>
    <i name="e_fr_energy">   3877.37074955 </i>
    <i name="e_wo_entrp">   3877.37139483 </i>
    <i name="e_0_energy">   3877.37107219 </i>
   </energy>
  </scstep>
  <scstep>
   <time name="total">   28.17   28.38</time>
   <energy>
    <i name="e_fr_energy">   3877.37074953 </i>
    <i name="e_wo_entrp">   3877.37139480 </i>
    <i name="e_0_energy">   3877.37107217 </i>
   </energy>
  </scstep>
  <scstep>
   <time name="total">   29.26   29.48</time>
   <energy>
    <i name="e_fr_energy">   3877.37074952 </i>
    <i name="e_wo_entrp">   3877.37139479 </i>
    <i name="e_0_energy">   3877.37107216 </i>
   </energy>
  </scstep>
  <scstep>
   <time name="total">   29.17   29.38</time>
   <energy>
    <i name="e_fr_energy">   3877.37074951 </i>
    <i name="e_wo_entrp">   3877.37139478 </i>
    <i name="e_0_energy">   3877.37107214 </i>
   </energy>
  </scstep>
  <scstep>
   <time name="total">   28.01   28.24</time>
   <energy>
    <i name="e_fr_energy">   3877.37074956 </i>
    <i name="e_wo_entrp">   3877.37139483 </i>
    <i name="e_0_energy">   3877.37107219 </i>
   </energy>
  </scstep>
  <scstep>
   <time name="total">   29.46   29.68</time>
   <energy>
    <i name="e_fr_energy">   3877.37074946 </i>
    <i name="e_wo_entrp">   3877.37139473 </i>
    <i name="e_0_energy">   3877.37107209 </i>
   </energy>
  </scstep>
  <scstep>
   <time name="total">   28.53   28.74</time>
   <energy>
    <i name="e_fr_energy">   3877.37074955 </i>
    <i name="e_wo_entrp">   3877.37139482 </i>
    <i name="e_0_energy">   3877.37107219 </i>
   </energy>
  </scstep>
  <scstep>
   <time name="total">   29.58   29.80</time>
   <energy>
    <i name="e_fr_energy">   3877.37074948 </i>
    <i name="e_wo_entrp">   3877.37139475 </i>
    <i name="e_0_energy">   3877.37107212 </i>
   </energy>
  </scstep>
  <scstep>
   <time name="total">   29.56   29.78</time>
   <energy>
    <i name="e_fr_energy">   3877.37074948 </i>
    <i name="e_wo_entrp">   3877.37139474 </i>
    <i name="e_0_energy">   3877.37107211 </i>
   </energy>
  </scstep>
  <scstep>
   <time name="total">   28.61   28.82</time>
   <energy>
    <i name="e_fr_energy">   3877.37074949 </i>
    <i name="e_wo_entrp">   3877.37139475 </i>
    <i name="e_0_energy">   3877.37107212 </i>
   </energy>
  </scstep>
  <scstep>
   <time name="total">   29.30   29.52</time>
   <energy>
    <i name="e_fr_energy">   3877.37074943 </i>
    <i name="e_wo_entrp">   3877.37139470 </i>
    <i name="e_0_energy">   3877.37107206 </i>
   </energy>
  </scstep>
  <scstep>
   <time name="total">   29.37   29.59</time>
   <energy>
    <i name="e_fr_energy">   3877.37074948 </i>
    <i name="e_wo_entrp">   3877.37139474 </i>
    <i name="e_0_energy">   3877.37107211 </i>
   </energy>
  </scstep>
  <scstep>
   <time name="total">   29.27   29.49</time>
   <energy>
    <i name="e_fr_energy">   3877.37074948 </i>
    <i name="e_wo_entrp">   3877.37139474 </i>
    <i name="e_0_energy">   3877.37107211 </i>
   </energy>
  </scstep>
  <scstep>
   <time name="total">   28.10   28.31</time>
   <energy>
    <i name="e_fr_energy">   3877.37074947 </i>
    <i name="e_wo_entrp">   3877.37139473 </i>
    <i name="e_0_energy">   3877.37107210 </i>
   </energy>
  </scstep>
  <scstep>
   <time name="total">   29.26   29.48</time>
   <energy>
    <i name="e_fr_energy">   3877.37074946 </i>
    <i name="e_wo_entrp">   3877.37139472 </i>
    <i name="e_0_energy">   3877.37107209 </i>
   </energy>
  </scstep>
  <scstep>
   <time name="total">   29.17   29.40</time>
   <energy>
    <i name="e_fr_energy">   3877.37074950 </i>
    <i name="e_wo_entrp">   3877.37139476 </i>
    <i name="e_0_energy">   3877.37107213 </i>
   </energy>
  </scstep>
  <scstep>
   <time name="total">   28.16   28.36</time>
   <energy>
    <i name="e_fr_energy">   3877.37074953 </i>
    <i name="e_wo_entrp">   3877.37139479 </i>
    <i name="e_0_energy">   3877.37107216 </i>
   </energy>
  </scstep>
  <scstep>
   <time name="total">   28.06   28.27</time>
   <energy>
    <i name="e_fr_energy">   3877.37074949 </i>
    <i name="e_wo_entrp">   3877.37139474 </i>
    <i name="e_0_energy">   3877.37107211 </i>
   </energy>
  </scstep>
  <scstep>
   <time name="total">   29.31   29.53</time>
   <energy>
    <i name="e_fr_energy">   3877.37074945 </i>
    <i name="e_wo_entrp">   3877.37139470 </i>
    <i name="e_0_energy">   3877.37107207 </i>
   </energy>
  </scstep>
  <scstep>
   <time name="total">   29.19   29.41</time>
   <energy>
    <i name="e_fr_energy">   3877.37074951 </i>
    <i name="e_wo_entrp">   3877.37139477 </i>
    <i name="e_0_energy">   3877.37107214 </i>
   </energy>
  </scstep>
  <scstep>
   <time name="total">   28.08   28.28</time>
   <energy>
    <i name="e_fr_energy">   3877.37074953 </i>
    <i name="e_wo_entrp">   3877.37139479 </i>
    <i name="e_0_energy">   3877.37107216 </i>
   </energy>
  </scstep>
  <scstep>
   <time name="total">   29.49   29.70</time>
   <energy>
    <i name="e_fr_energy">   3877.37074950 </i>
    <i name="e_wo_entrp">   3877.37139476 </i>
    <i name="e_0_energy">   3877.37107213 </i>
   </energy>
  </scstep>
  <scstep>
   <time name="total">   28.22   28.42</time>
   <energy>
    <i name="e_fr_energy">   3877.37074951 </i>
    <i name="e_wo_entrp">   3877.37139477 </i>
    <i name="e_0_energy">   3877.37107214 </i>
   </energy>
  </scstep>
  <scstep>
   <time name="total">   29.14   29.36</time>
   <energy>
    <i name="e_fr_energy">   3877.37074948 </i>
    <i name="e_wo_entrp">   3877.37139474 </i>
    <i name="e_0_energy">   3877.37107211 </i>
   </energy>
  </scstep>
  <scstep>
   <time name="total">   29.26   29.47</time>
   <energy>
    <i name="e_fr_energy">   3877.37074948 </i>
    <i name="e_wo_entrp">   3877.37139474 </i>
    <i name="e_0_energy">   3877.37107211 </i>
   </energy>
  </scstep>
  <scstep>
   <time name="total">   29.29   29.50</time>
   <energy>
    <i name="e_fr_energy">   3877.37074955 </i>
    <i name="e_wo_entrp">   3877.37139480 </i>
    <i name="e_0_energy">   3877.37107218 </i>
   </energy>
  </scstep>
  <scstep>
   <time name="total">   29.32   29.54</time>
   <energy>
    <i name="e_fr_energy">   3877.37074963 </i>
    <i name="e_wo_entrp">   3877.37139488 </i>
    <i name="e_0_energy">   3877.37107225 </i>
   </energy>
  </scstep>
  <scstep>
