<?xml version="1.0" encoding="ISO-8859-1"?>
<modeling>
 <generator>
  <i name="program" type="string">vasp </i>
  <i name="version" type="string">6.2.0  </i>
  <i name="subversion" type="string">18Jan21 (build Jan 05 2022 15:41:44) complex                          parallel </i>
  <i name="platform" type="string">LinuxIFC </i>
  <i name="date" type="string">2025 05 07 </i>
  <i name="time" type="string">20:03:01 </i>
 </generator>
 <incar>
  <i type="string" name="SYSTEM">routine with relax: pwdword</i>
  <i type="string" name="PREC">Acc</i>
  <i type="int" name="IALGO">    38</i>
  <i type="string" name="ALGO">A</i>
  <i type="logical" name="ADDGRID"> T  </i>
  <i type="int" name="ICHARG">     2</i>
  <i type="int" name="NELM">   100</i>
  <i type="int" name="NELMIN">     6</i>
  <i name="EDIFF">      0.00000000</i>
  <i type="int" name="NSW">     0</i>
  <i type="int" name="ISIF">    -1</i>
  <i name="ENCUT">    600.00000000</i>
  <i type="logical" name="LREAL"> F  </i>
  <i type="int" name="ISMEAR">     0</i>
  <i name="SIGMA">      0.02000000</i>
  <i type="logical" name="LASPH"> T  </i>
  <i type="string" name="METAGGA">R2SCAN</i>
  <i type="logical" name="LMIXTAU"> F  </i>
 </incar>
 <primitive_cell>
  <structure name="primitive_cell" >
   <crystal>
    <varray name="basis" >
     <v>       5.39738569       0.00000000      -3.19175070 </v>
     <v>      -1.75613821       5.10369972      -3.19175070 </v>
     <v>       0.00000000       0.00000000       6.27049000 </v>
    </varray>
    <i name="volume">    172.73090460 </i>
    <varray name="rec_basis" >
     <v>       0.18527488       0.06375146       0.00000000 </v>
     <v>       0.00000000       0.19593629       0.00000000 </v>
     <v>       0.09430702       0.13218402       0.15947717 </v>
    </varray>
   </crystal>
   <varray name="positions" >
    <v>       0.25000000       0.25000000       0.00000000 </v>
    <v>       0.75000000       0.75000000       0.00000000 </v>
    <v>       0.21596000       0.71596000       0.93191000 </v>
    <v>       0.00000000       0.00000000       0.00000000 </v>
    <v>       0.78404000       0.28404000       0.06809000 </v>
    <v>       0.71596000       0.78404000       0.50000000 </v>
    <v>       0.28404000       0.21596000       0.50000000 </v>
    <v>       0.50000000       0.50000000       0.00000000 </v>
    <v>       0.50000000       0.00000000       0.50000000 </v>
    <v>       0.00000000       0.50000000       0.50000000 </v>
   </varray>
  </structure>
  <varray name="primitive_index" >
   <v type="int" >        1 </v>
   <v type="int" >        2 </v>
   <v type="int" >        3 </v>
   <v type="int" >        4 </v>
   <v type="int" >        5 </v>
   <v type="int" >        6 </v>
   <v type="int" >        7 </v>
   <v type="int" >        8 </v>
   <v type="int" >        9 </v>
   <v type="int" >       10 </v>
  </varray>
 </primitive_cell>
 <kpoints>
  <generation param="Gamma">
   <v type="int" name="divisions">       7        7        8 </v>
   <v name="usershift">      0.00000000       0.00000000       0.00000000 </v>
   <v name="genvec1">      0.14285714       0.00000000       0.00000000 </v>
   <v name="genvec2">      0.00000000       0.14285714       0.00000000 </v>
   <v name="genvec3">      0.00000000       0.00000000       0.12500000 </v>
   <v name="shift">      0.00000000       0.00000000       0.00000000 </v>
  </generation>
  <varray name="kpointlist" >
   <v>       0.00000000       0.00000000       0.00000000 </v>
   <v>       0.14285714       0.00000000       0.00000000 </v>
   <v>       0.28571429       0.00000000       0.00000000 </v>
   <v>       0.42857143       0.00000000       0.00000000 </v>
   <v>       0.14285714       0.14285714       0.00000000 </v>
   <v>       0.28571429       0.14285714       0.00000000 </v>
   <v>       0.42857143       0.14285714       0.00000000 </v>
   <v>      -0.42857143       0.14285714       0.00000000 </v>
   <v>      -0.28571429       0.14285714       0.00000000 </v>
   <v>      -0.14285714       0.14285714       0.00000000 </v>
   <v>       0.28571429       0.28571429       0.00000000 </v>
   <v>       0.42857143       0.28571429       0.00000000 </v>
   <v>      -0.42857143       0.28571429       0.00000000 </v>
   <v>      -0.28571429       0.28571429       0.00000000 </v>
   <v>       0.42857143       0.42857143       0.00000000 </v>
   <v>      -0.42857143       0.42857143       0.00000000 </v>
   <v>      -0.00000000      -0.00000000       0.12500000 </v>
   <v>       0.14285714       0.00000000       0.12500000 </v>
   <v>       0.28571429      -0.00000000       0.12500000 </v>
   <v>       0.42857143      -0.00000000       0.12500000 </v>
   <v>      -0.42857143      -0.00000000       0.12500000 </v>
   <v>      -0.28571429       0.00000000       0.12500000 </v>
   <v>      -0.14285714      -0.00000000       0.12500000 </v>
   <v>       0.14285714       0.14285714       0.12500000 </v>
   <v>       0.28571429       0.14285714       0.12500000 </v>
   <v>       0.42857143       0.14285714       0.12500000 </v>
   <v>      -0.42857143       0.14285714       0.12500000 </v>
   <v>      -0.28571429       0.14285714       0.12500000 </v>
   <v>      -0.14285714       0.14285714       0.12500000 </v>
   <v>       0.28571429       0.28571429       0.12500000 </v>
   <v>       0.42857143       0.28571429       0.12500000 </v>
   <v>      -0.42857143       0.28571429       0.12500000 </v>
   <v>      -0.28571429       0.28571429       0.12500000 </v>
   <v>      -0.14285714       0.28571429       0.12500000 </v>
   <v>       0.42857143       0.42857143       0.12500000 </v>
   <v>      -0.42857143       0.42857143       0.12500000 </v>
   <v>      -0.28571429       0.42857143       0.12500000 </v>
   <v>      -0.14285714       0.42857143       0.12500000 </v>
   <v>      -0.42857143      -0.42857143       0.12500000 </v>
   <v>      -0.28571429      -0.42857143       0.12500000 </v>
   <v>      -0.14285714      -0.42857143       0.12500000 </v>
   <v>      -0.28571429      -0.28571429       0.12500000 </v>
   <v>      -0.14285714      -0.28571429       0.12500000 </v>
   <v>      -0.14285714      -0.14285714       0.12500000 </v>
   <v>      -0.00000000      -0.00000000       0.25000000 </v>
   <v>       0.14285714      -0.00000000       0.25000000 </v>
   <v>       0.28571429      -0.00000000       0.25000000 </v>
   <v>       0.42857143       0.00000000       0.25000000 </v>
   <v>      -0.42857143       0.00000000       0.25000000 </v>
   <v>      -0.28571429      -0.00000000       0.25000000 </v>
   <v>      -0.14285714      -0.00000000       0.25000000 </v>
   <v>       0.14285714       0.14285714       0.25000000 </v>
   <v>       0.28571429       0.14285714       0.25000000 </v>
   <v>       0.42857143       0.14285714       0.25000000 </v>
   <v>      -0.42857143       0.14285714       0.25000000 </v>
   <v>      -0.28571429       0.14285714       0.25000000 </v>
   <v>      -0.14285714       0.14285714       0.25000000 </v>
   <v>       0.28571429       0.28571429       0.25000000 </v>
   <v>       0.42857143       0.28571429       0.25000000 </v>
   <v>      -0.42857143       0.28571429       0.25000000 </v>
   <v>      -0.28571429       0.28571429       0.25000000 </v>
   <v>      -0.14285714       0.28571429       0.25000000 </v>
   <v>       0.42857143       0.42857143       0.25000000 </v>
   <v>      -0.42857143       0.42857143       0.25000000 </v>
   <v>      -0.28571429       0.42857143       0.25000000 </v>
   <v>      -0.14285714       0.42857143       0.25000000 </v>
   <v>      -0.42857143      -0.42857143       0.25000000 </v>
   <v>      -0.28571429      -0.42857143       0.25000000 </v>
   <v>      -0.14285714      -0.42857143       0.25000000 </v>
   <v>      -0.28571429      -0.28571429       0.25000000 </v>
   <v>      -0.14285714      -0.28571429       0.25000000 </v>
   <v>      -0.14285714      -0.14285714       0.25000000 </v>
   <v>       0.00000000      -0.00000000       0.37500000 </v>
   <v>       0.14285714      -0.00000000       0.37500000 </v>
   <v>       0.28571429       0.00000000       0.37500000 </v>
   <v>       0.42857143       0.00000000       0.37500000 </v>
   <v>      -0.42857143      -0.00000000       0.37500000 </v>
   <v>      -0.28571429      -0.00000000       0.37500000 </v>
   <v>      -0.14285714      -0.00000000       0.37500000 </v>
   <v>       0.14285714       0.14285714       0.37500000 </v>
   <v>       0.28571429       0.14285714       0.37500000 </v>
   <v>       0.42857143       0.14285714       0.37500000 </v>
   <v>      -0.42857143       0.14285714       0.37500000 </v>
   <v>      -0.28571429       0.14285714       0.37500000 </v>
   <v>      -0.14285714       0.14285714       0.37500000 </v>
   <v>       0.28571429       0.28571429       0.37500000 </v>
   <v>       0.42857143       0.28571429       0.37500000 </v>
   <v>      -0.42857143       0.28571429       0.37500000 </v>
   <v>      -0.28571429       0.28571429       0.37500000 </v>
   <v>      -0.14285714       0.28571429       0.37500000 </v>
   <v>       0.42857143       0.42857143       0.37500000 </v>
   <v>      -0.42857143       0.42857143       0.37500000 </v>
   <v>      -0.28571429       0.42857143       0.37500000 </v>
   <v>      -0.14285714       0.42857143       0.37500000 </v>
   <v>      -0.42857143      -0.42857143       0.37500000 </v>
   <v>      -0.28571429      -0.42857143       0.37500000 </v>
   <v>      -0.14285714      -0.42857143       0.37500000 </v>
   <v>      -0.28571429      -0.28571429       0.37500000 </v>
   <v>      -0.14285714      -0.28571429       0.37500000 </v>
   <v>      -0.14285714      -0.14285714       0.37500000 </v>
   <v>      -0.00000000      -0.00000000       0.50000000 </v>
   <v>       0.14285714      -0.00000000       0.50000000 </v>
   <v>       0.28571429      -0.00000000       0.50000000 </v>
   <v>       0.42857143       0.00000000       0.50000000 </v>
   <v>       0.14285714       0.14285714       0.50000000 </v>
   <v>       0.28571429       0.14285714       0.50000000 </v>
   <v>       0.42857143       0.14285714       0.50000000 </v>
   <v>      -0.42857143       0.14285714       0.50000000 </v>
   <v>      -0.28571429       0.14285714       0.50000000 </v>
   <v>      -0.14285714       0.14285714       0.50000000 </v>
   <v>       0.28571429       0.28571429       0.50000000 </v>
   <v>       0.42857143       0.28571429       0.50000000 </v>
   <v>      -0.42857143       0.28571429       0.50000000 </v>
   <v>      -0.28571429       0.28571429       0.50000000 </v>
   <v>       0.42857143       0.42857143       0.50000000 </v>
   <v>      -0.42857143       0.42857143       0.50000000 </v>
  </varray>
  <varray name="weights" >
   <v>       0.00255102 </v>
   <v>       0.01020408 </v>
   <v>       0.01020408 </v>
   <v>       0.01020408 </v>
   <v>       0.00510204 </v>
   <v>       0.01020408 </v>
   <v>       0.01020408 </v>
   <v>       0.01020408 </v>
   <v>       0.01020408 </v>
   <v>       0.00510204 </v>
   <v>       0.00510204 </v>
   <v>       0.01020408 </v>
   <v>       0.01020408 </v>
   <v>       0.00510204 </v>
   <v>       0.00510204 </v>
   <v>       0.00510204 </v>
   <v>       0.00510204 </v>
   <v>       0.01020408 </v>
   <v>       0.01020408 </v>
   <v>       0.01020408 </v>
   <v>       0.01020408 </v>
   <v>       0.01020408 </v>
   <v>       0.01020408 </v>
   <v>       0.00510204 </v>
   <v>       0.01020408 </v>
   <v>       0.01020408 </v>
   <v>       0.01020408 </v>
   <v>       0.01020408 </v>
   <v>       0.01020408 </v>
   <v>       0.00510204 </v>
   <v>       0.01020408 </v>
   <v>       0.01020408 </v>
   <v>       0.01020408 </v>
   <v>       0.01020408 </v>
   <v>       0.00510204 </v>
   <v>       0.01020408 </v>
   <v>       0.01020408 </v>
   <v>       0.01020408 </v>
   <v>       0.00510204 </v>
   <v>       0.01020408 </v>
   <v>       0.01020408 </v>
   <v>       0.00510204 </v>
   <v>       0.01020408 </v>
   <v>       0.00510204 </v>
   <v>       0.00510204 </v>
   <v>       0.01020408 </v>
   <v>       0.01020408 </v>
   <v>       0.01020408 </v>
   <v>       0.01020408 </v>
   <v>       0.01020408 </v>
   <v>       0.01020408 </v>
   <v>       0.00510204 </v>
   <v>       0.01020408 </v>
   <v>       0.01020408 </v>
   <v>       0.01020408 </v>
   <v>       0.01020408 </v>
   <v>       0.01020408 </v>
   <v>       0.00510204 </v>
   <v>       0.01020408 </v>
   <v>       0.01020408 </v>
   <v>       0.01020408 </v>
   <v>       0.01020408 </v>
   <v>       0.00510204 </v>
   <v>       0.01020408 </v>
   <v>       0.01020408 </v>
   <v>       0.01020408 </v>
   <v>       0.00510204 </v>
   <v>       0.01020408 </v>
   <v>       0.01020408 </v>
   <v>       0.00510204 </v>
   <v>       0.01020408 </v>
   <v>       0.00510204 </v>
   <v>       0.00510204 </v>
   <v>       0.01020408 </v>
   <v>       0.01020408 </v>
   <v>       0.01020408 </v>
   <v>       0.01020408 </v>
   <v>       0.01020408 </v>
   <v>       0.01020408 </v>
   <v>       0.00510204 </v>
   <v>       0.01020408 </v>
   <v>       0.01020408 </v>
   <v>       0.01020408 </v>
   <v>       0.01020408 </v>
   <v>       0.01020408 </v>
   <v>       0.00510204 </v>
   <v>       0.01020408 </v>
   <v>       0.01020408 </v>
   <v>       0.01020408 </v>
   <v>       0.01020408 </v>
   <v>       0.00510204 </v>
   <v>       0.01020408 </v>
   <v>       0.01020408 </v>
   <v>       0.01020408 </v>
   <v>       0.00510204 </v>
   <v>       0.01020408 </v>
   <v>       0.01020408 </v>
   <v>       0.00510204 </v>
   <v>       0.01020408 </v>
   <v>       0.00510204 </v>
   <v>       0.00255102 </v>
   <v>       0.01020408 </v>
   <v>       0.01020408 </v>
   <v>       0.01020408 </v>
   <v>       0.00510204 </v>
   <v>       0.01020408 </v>
   <v>       0.01020408 </v>
   <v>       0.01020408 </v>
   <v>       0.01020408 </v>
   <v>       0.00510204 </v>
   <v>       0.00510204 </v>
   <v>       0.01020408 </v>
   <v>       0.01020408 </v>
   <v>       0.00510204 </v>
   <v>       0.00510204 </v>
   <v>       0.00510204 </v>
  </varray>
 </kpoints>
 <parameters>
  <separator name="general" >
   <i type="string" name="SYSTEM">routine with relax: pwdword</i>
   <i type="logical" name="LCOMPAT"> F  </i>
  </separator>
  <separator name="electronic" >
   <i type="string" name="PREC">acc</i>
   <i name="ENMAX">    600.00000000</i>
   <i name="ENAUG">    535.51400000</i>
   <i name="EDIFF">      0.00000000</i>
   <i type="int" name="IALGO">    58</i>
   <i type="int" name="IWAVPR">    10</i>
   <i type="int" name="NBANDS">    60</i>
   <i type="int" name="NBANDSLOW">    -1</i>
   <i type="int" name="NBANDSHIGH">    -1</i>
   <i name="NELECT">     98.00000000</i>
   <i type="int" name="TURBO">     0</i>
   <i type="int" name="IRESTART">     0</i>
   <i type="int" name="NREBOOT">     0</i>
   <i type="int" name="NMIN">     0</i>
   <i name="EREF">      0.00000000</i>
   <separator name="electronic smearing" >
    <i type="int" name="ISMEAR">     0</i>
    <i name="SIGMA">      0.02000000</i>
    <i name="KSPACING">      0.50000000</i>
    <i type="logical" name="KGAMMA"> T  </i>
    <i type="logical" name="KBLOWUP"> F  </i>
   </separator>
   <separator name="electronic projectors" >
    <i type="logical" name="LREAL"> F  </i>
    <v name="ROPT">      0.00000000      0.00000000      0.00000000</v>
    <i type="int" name="LMAXPAW">  -100</i>
    <i type="int" name="LMAXMIX">     2</i>
    <i type="logical" name="NLSPLINE"> F  </i>
   </separator>
   <separator name="electronic startup" >
    <i type="int" name="ISTART">     0</i>
    <i type="int" name="ICHARG">     2</i>
    <i type="int" name="INIWAV">     1</i>
   </separator>
   <separator name="electronic spin" >
    <i type="int" name="ISPIN">     1</i>
    <i type="logical" name="LNONCOLLINEAR"> F  </i>
    <v name="MAGMOM">      1.00000000      1.00000000      1.00000000      1.00000000      1.00000000      1.00000000      1.00000000      1.00000000      1.00000000      1.00000000</v>
    <i name="NUPDOWN">     -1.00000000</i>
    <i type="logical" name="LSORBIT"> F  </i>
    <v name="SAXIS">      0.00000000      0.00000000      1.00000000</v>
    <i type="logical" name="LSPIRAL"> F  </i>
    <v name="QSPIRAL">      0.00000000      0.00000000      0.00000000</v>
    <i type="logical" name="LZEROZ"> F  </i>
   </separator>
   <separator name="electronic exchange-correlation" >
    <i type="logical" name="LASPH"> T  </i>
    <i type="logical" name="LMETAGGA"> F  </i>
   </separator>
   <separator name="electronic convergence" >
    <i type="int" name="NELM">   100</i>
    <i type="int" name="NELMDL">    -5</i>
    <i type="int" name="NELMIN">     6</i>
    <i name="ENINI">    600.00000000</i>
    <separator name="electronic convergence detail" >
     <i type="logical" name="LDIAG"> T  </i>
     <i type="logical" name="LSUBROT"> F  </i>
     <i name="WEIMIN">      0.00000000</i>
     <i name="EBREAK">      0.00000000</i>
     <i name="DEPER">      0.30000000</i>
     <i type="int" name="NRMM">     4</i>
     <i name="TIME">      0.40000000</i>
    </separator>
   </separator>
   <separator name="electronic mixer" >
    <i name="AMIX">      0.40000000</i>
    <i name="BMIX">      1.00000000</i>
    <i name="AMIN">      0.10000000</i>
    <i name="AMIX_MAG">      1.60000000</i>
    <i name="BMIX_MAG">      1.00000000</i>
    <separator name="electronic mixer details" >
     <i type="int" name="IMIX">     4</i>
     <i type="logical" name="MIXFIRST"> F  </i>
     <i type="int" name="MAXMIX">   -45</i>
     <i name="WC">    100.00000000</i>
     <i type="int" name="INIMIX">     1</i>
     <i type="int" name="MIXPRE">     1</i>
     <i type="int" name="MREMOVE">     5</i>
    </separator>
   </separator>
   <separator name="electronic dipolcorrection" >
    <i type="logical" name="LDIPOL"> F  </i>
    <i type="logical" name="LMONO"> F  </i>
    <i type="int" name="IDIPOL">     0</i>
    <i name="EPSILON">      1.00000000</i>
    <v name="DIPOL">   -100.00000000   -100.00000000   -100.00000000</v>
    <i name="EFIELD">      0.00000000</i>
   </separator>
  </separator>
  <separator name="grids" >
   <i type="int" name="NGX">    50</i>
   <i type="int" name="NGY">    50</i>
   <i type="int" name="NGZ">    50</i>
   <i type="int" name="NGXF">   100</i>
   <i type="int" name="NGYF">   100</i>
   <i type="int" name="NGZF">   100</i>
   <i type="logical" name="ADDGRID"> T  </i>
  </separator>
  <separator name="ionic" >
   <i type="int" name="NSW">     0</i>
   <i type="int" name="IBRION">    -1</i>
   <i type="int" name="MDALGO">     0</i>
   <i type="int" name="ISIF">    -1</i>
   <i name="PSTRESS">      0.00000000</i>
   <i name="EDIFFG">      0.00000001</i>
   <i type="int" name="NFREE">     0</i>
   <i name="POTIM">      0.50000000</i>
   <i name="SMASS">     -3.00000000</i>
   <i name="SCALEE">      1.00000000</i>
  </separator>
  <separator name="ionic md" >
   <i name="TEBEG">      0.00010000</i>
   <i name="TEEND">      0.00010000</i>
   <i type="int" name="NBLOCK">     1</i>
   <i type="int" name="KBLOCK">     1</i>
   <i type="int" name="NPACO">   256</i>
   <i name="APACO">     16.00000000</i>
  </separator>
  <separator name="symmetry" >
   <i type="int" name="ISYM">     2</i>
   <i name="SYMPREC">      0.00001000</i>
  </separator>
  <separator name="dos" >
   <i type="int" name="LORBIT">     0</i>
   <v name="RWIGS">     -1.00000000     -1.00000000     -1.00000000</v>
   <i type="int" name="NEDOS">   301</i>
   <i name="EMIN">     10.00000000</i>
   <i name="EMAX">    -10.00000000</i>
   <i name="EFERMI">      0.00000000</i>
  </separator>
  <separator name="writing" >
   <i type="int" name="NWRITE">     2</i>
   <i type="logical" name="LWAVE"> T  </i>
   <i type="logical" name="LDOWNSAMPLE"> F  </i>
   <i type="logical" name="LCHARG"> T  </i>
   <i type="logical" name="LPARD"> F  </i>
   <i type="logical" name="LVTOT"> F  </i>
   <i type="logical" name="LVHAR"> F  </i>
   <i type="logical" name="LELF"> F  </i>
   <i type="logical" name="LOPTICS"> F  </i>
   <v name="STM">      0.00000000      0.00000000      0.00000000      0.00000000      0.00000000      0.00000000      0.00000000</v>
  </separator>
  <separator name="performance" >
   <i type="int" name="NPAR">     6</i>
   <i type="int" name="NSIM">     4</i>
   <i type="int" name="NBLK">    -1</i>
   <i type="logical" name="LPLANE"> T  </i>
   <i type="logical" name="LSCALAPACK"> T  </i>
   <i type="logical" name="LSCAAWARE"> F  </i>
   <i type="logical" name="LSCALU"> F  </i>
   <i type="logical" name="LASYNC"> F  </i>
   <i type="logical" name="LORBITALREAL"> F  </i>
  </separator>
  <separator name="miscellaneous" >
   <i type="int" name="IDIOT">     3</i>
   <i type="int" name="PHON_NSTRUCT">    -1</i>
   <i type="logical" name="LMUSIC"> F  </i>
   <v name="POMASS">     10.81100000     95.94000000     28.08500000</v>
   <v name="DARWINR">      0.00000000      0.00000000      0.00000000</v>
   <v name="DARWINV">      1.00000000      1.00000000      1.00000000</v>
   <i type="logical" name="LCORR"> T  </i>
  </separator>
  <i type="logical" name="GGA_COMPAT"> T  </i>
  <i type="logical" name="LBERRY"> F  </i>
  <i type="int" name="ICORELEVEL">     0</i>
  <i type="logical" name="LDAU"> F  </i>
  <i type="int" name="I_CONSTRAINED_M">     0</i>
  <separator name="electronic exchange-correlation" >
   <i type="string" name="GGA">--</i>
   <i type="int" name="VOSKOWN">     0</i>
   <i type="logical" name="LHFCALC"> F  </i>
   <i type="string" name="PRECFOCK"></i>
   <i type="logical" name="LSYMGRAD"> F  </i>
   <i type="logical" name="LHFONE"> F  </i>
   <i type="logical" name="LRHFCALC"> F  </i>
   <i type="logical" name="LTHOMAS"> F  </i>
   <i type="logical" name="LMODELHF"> F  </i>
   <i type="logical" name="LFOCKACE"> F  </i>
   <i name="ENCUT4O">     -1.00000000</i>
   <i type="int" name="EXXOEP">     0</i>
   <i type="int" name="FOURORBIT">     0</i>
   <i name="AEXX">      0.00000000</i>
   <i name="HFALPHA">      0.00000000</i>
   <i name="MCALPHA">      0.00000000</i>
   <i name="ALDAX">      1.00000000</i>
   <i name="AGGAX">      1.00000000</i>
   <i name="ALDAC">      1.00000000</i>
   <i name="AGGAC">      1.00000000</i>
   <i type="int" name="NKREDX">     1</i>
   <i type="int" name="NKREDY">     1</i>
   <i type="int" name="NKREDZ">     1</i>
   <i type="logical" name="SHIFTRED"> F  </i>
   <i type="logical" name="ODDONLY"> F  </i>
   <i type="logical" name="EVENONLY"> F  </i>
   <i type="int" name="LMAXFOCK">     0</i>
   <i type="int" name="NMAXFOCKAE">     0</i>
   <i type="logical" name="LFOCKAEDFT"> F  </i>
   <i name="HFSCREEN">      0.00000000</i>
   <i name="HFSCREENC">      0.00000000</i>
   <i type="int" name="NBANDSGWLOW">     0</i>
  </separator>
  <separator name="vdW DFT" >
   <i type="logical" name="LUSE_VDW"> F  </i>
   <i name="Zab_VDW">     -0.84910000</i>
   <i name="PARAM1">      0.12340000</i>
   <i name="PARAM2">      1.00000000</i>
   <i name="PARAM3">      0.00000000</i>
  </separator>
  <separator name="model GW" >
   <i type="int" name="MODEL_GW">     0</i>
   <i name="MODEL_EPS0">     10.36385428</i>
   <i name="MODEL_ALPHA">      1.00000000</i>
  </separator>
  <separator name="linear response parameters" >
   <i type="logical" name="LEPSILON"> F  </i>
   <i type="logical" name="LRPA"> F  </i>
   <i type="logical" name="LNABLA"> F  </i>
   <i type="logical" name="LVEL"> F  </i>
   <i type="int" name="KINTER">     0</i>
   <i name="CSHIFT">      0.10000000</i>
   <i name="OMEGAMAX">     -1.00000000</i>
   <i name="DEG_THRESHOLD">      0.00200000</i>
   <i name="RTIME">     -0.10000000</i>
   <i name="WPLASMAI">      0.00000000</i>
   <v name="DFIELD">      0.00000000      0.00000000      0.00000000</v>
   <v name="WPLASMA">      0.00000000      0.00000000      0.00000000      0.00000000      0.00000000      0.00000000      0.00000000      0.00000000      0.00000000</v>
  </separator>
  <separator name="orbital magnetization" >
   <i type="logical" name="NUCIND"> F  </i>
   <v name="MAGPOS">      0.00000000      0.00000000      0.00000000</v>
   <i type="logical" name="LNICSALL"> T  </i>
   <i type="logical" name="ORBITALMAG"> F  </i>
   <i type="logical" name="LMAGBLOCH"> F  </i>
   <i type="logical" name="LCHIMAG"> F  </i>
   <i type="logical" name="LGAUGE"> T  </i>
   <i type="int" name="MAGATOM">     0</i>
   <v name="MAGDIPOL">      0.00000000      0.00000000      0.00000000</v>
   <v name="AVECCONST">      0.00000000      0.00000000      0.00000000</v>
  </separator>
  <separator name="response functions" >
   <i type="logical" name="LFINITE_TEMPERATURE"> F  </i>
   <i type="logical" name="LADDER"> F  </i>
   <i type="logical" name="LRPAFORCE"> F  </i>
   <i type="logical" name="LFXC"> F  </i>
   <i type="logical" name="LHARTREE"> T  </i>
   <i type="int" name="IBSE">     0</i>
   <v type="int" name="KPOINT">    -1     0     0     0</v>
   <i type="logical" name="LTCTC"> F  </i>
   <i type="logical" name="LTCTE"> F  </i>
   <i type="logical" name="LTETE"> F  </i>
   <i type="logical" name="LTRIPLET"> F  </i>
   <i type="logical" name="LFXCEPS"> F  </i>
   <i type="logical" name="LFXHEG"> F  </i>
   <i type="int" name="NATURALO">     2</i>
   <i type="logical" name="LHOLEGF"> F  </i>
   <i type="logical" name="L2ORDER"> F  </i>
   <i type="logical" name="LDMP1"> F  </i>
   <i type="logical" name="LMP2LT"> F  </i>
   <i type="logical" name="LSMP2LT"> F  </i>
   <i type="logical" name="LGWLF"> F  </i>
   <i name="ENCUTGW">     -2.00000000</i>
   <i name="ENCUTGWSOFT">     -2.00000000</i>
   <i name="ENCUTLF">     -1.00000000</i>
   <i type="logical" name="LESF_SPLINES"> F  </i>
   <i type="int" name="LMAXMP2">    -1</i>
   <i name="SCISSOR">      0.00000000</i>
   <i type="int" name="NOMEGA">     0</i>
   <i type="int" name="NOMEGAR">     0</i>
   <i type="int" name="NBANDSGW">    -1</i>
   <i type="int" name="NBANDSO">    -1</i>
   <i type="int" name="NBANDSV">    -1</i>
   <i type="int" name="NELM">   100</i>
   <i type="int" name="NELMHF">     1</i>
   <i type="int" name="DIM">     3</i>
   <i type="int" name="IESPILON">     4</i>
   <i type="int" name="ANTIRES">     0</i>
   <i name="OMEGAMAX">    -30.00000000</i>
   <i name="OMEGAMIN">    -30.00000000</i>
   <i name="OMEGATL">   -200.00000000</i>
   <i type="int" name="OMEGAGRID">     0</i>
   <i name="CSHIFT">     -0.10000000</i>
   <i type="logical" name="LSELFENERGY"> F  </i>
   <i type="logical" name="LSPECTRAL"> F  </i>
   <i type="logical" name="LSPECTRALGW"> F  </i>
   <i type="logical" name="LSINGLES"> F  </i>
   <i type="logical" name="LFERMIGW"> F  </i>
   <i type="logical" name="ODDONLYGW"> F  </i>
   <i type="logical" name="EVENONLYGW"> F  </i>
   <i type="int" name="NKREDLFX">     1</i>
   <i type="int" name="NKREDLFY">     1</i>
   <i type="int" name="NKREDLFZ">     1</i>
   <i type="int" name="MAXMEM">  2800</i>
   <i type="int" name="TELESCOPE">     0</i>
   <i type="int" name="NTAUPAR">    -1</i>
   <i type="int" name="NOMEGAPAR">    -1</i>
   <i name="DAMP_NEWTON">      0.80000001</i>
   <i name="LAMBDA">      1.00000000</i>
  </separator>
  <separator name="External order field" >
   <i name="OFIELD_KAPPA">      0.00000000</i>
   <v name="OFIELD_K">      0.00000000      0.00000000      0.00000000</v>
   <i name="OFIELD_Q6_NEAR">      0.00000000</i>
   <i name="OFIELD_Q6_FAR">      0.00000000</i>
   <i name="OFIELD_A">      0.00000000</i>
  </separator>
 </parameters>
 <atominfo>
  <atoms>      10 </atoms>
  <types>       3 </types>
  <array name="atoms" >
   <dimension dim="1">ion</dimension>
   <field type="string">element</field>
   <field type="int">atomtype</field>
   <set>
    <rc><c>B </c><c>   1</c></rc>
    <rc><c>B </c><c>   1</c></rc>
    <rc><c>Mo</c><c>   2</c></rc>
    <rc><c>Mo</c><c>   2</c></rc>
    <rc><c>Mo</c><c>   2</c></rc>
    <rc><c>Mo</c><c>   2</c></rc>
    <rc><c>Mo</c><c>   2</c></rc>
    <rc><c>Mo</c><c>   2</c></rc>
    <rc><c>Si</c><c>   3</c></rc>
    <rc><c>Si</c><c>   3</c></rc>
   </set>
  </array>
  <array name="atomtypes" >
   <dimension dim="1">type</dimension>
   <field type="int">atomspertype</field>
   <field type="string">element</field>
   <field>mass</field>
   <field>valence</field>
   <field type="string">pseudopotential</field>
   <set>
    <rc><c>   2</c><c>B </c><c>     10.81100000</c><c>      3.00000000</c><c>  PAW_PBE B 06Sep2000                   </c></rc>
    <rc><c>   6</c><c>Mo</c><c>     95.94000000</c><c>     14.00000000</c><c>  PAW_PBE Mo_sv 02Feb2006               </c></rc>
    <rc><c>   2</c><c>Si</c><c>     28.08500000</c><c>      4.00000000</c><c>  PAW_PBE Si 05Jan2001                  </c></rc>
   </set>
  </array>
 </atominfo>
 <structure name="initialpos" >
  <crystal>
   <varray name="basis" >
    <v>       5.39738569       0.00000000      -3.19175070 </v>
    <v>      -1.75613821       5.10369972      -3.19175070 </v>
    <v>       0.00000000       0.00000000       6.27049000 </v>
   </varray>
   <i name="volume">    172.73090460 </i>
   <varray name="rec_basis" >
    <v>       0.18527488       0.06375146       0.00000000 </v>
    <v>       0.00000000       0.19593629       0.00000000 </v>
    <v>       0.09430702       0.13218402       0.15947717 </v>
   </varray>
  </crystal>
  <varray name="positions" >
   <v>       0.25000000       0.25000000       0.00000000 </v>
   <v>       0.75000000       0.75000000       0.00000000 </v>
   <v>       0.21596000       0.71596000       0.93191000 </v>
   <v>       0.00000000       0.00000000       0.00000000 </v>
   <v>       0.78404000       0.28404000       0.06809000 </v>
   <v>       0.71596000       0.78404000       0.50000000 </v>
   <v>       0.28404000       0.21596000       0.50000000 </v>
   <v>       0.50000000       0.50000000       0.00000000 </v>
   <v>       0.50000000       0.00000000       0.50000000 </v>
   <v>       0.00000000       0.50000000       0.50000000 </v>
  </varray>
 </structure>
 <calculation>
  <scstep>
   <time name="total">   21.56   21.76</time>
   <energy>
    <i name="alphaZ">    483.66819966 </i>
    <i name="ewald">  -7287.00764577 </i>
    <i name="hartreedc">  -3900.23185395 </i>
    <i name="XCdc">    468.81919549 </i>
    <i name="pawpsdc">   9166.97638771 </i>
    <i name="pawaedc">  -9126.13493418 </i>
    <i name="eentropy">     -0.00026223 </i>
    <i name="bandstr">   -218.49926740 </i>
    <i name="atom">  11522.16744521 </i>
    <i name="e_fr_energy">   1109.75726455 </i>
    <i name="e_wo_entrp">   1109.75752678 </i>
    <i name="e_0_energy">   1109.75739567 </i>
   </energy>
  </scstep>
  <scstep>
   <time name="total">   21.65   21.85</time>
   <energy>
    <i name="e_fr_energy">   -146.31065187 </i>
    <i name="e_wo_entrp">   -146.30951625 </i>
    <i name="e_0_energy">   -146.31008406 </i>
   </energy>
  </scstep>
  <scstep>
   <time name="total">   23.76   23.98</time>
   <energy>
    <i name="e_fr_energy">   -195.45840183 </i>
    <i name="e_wo_entrp">   -195.45728508 </i>
    <i name="e_0_energy">   -195.45784346 </i>
   </energy>
  </scstep>
  <scstep>
   <time name="total">   22.71   22.91</time>
   <energy>
    <i name="e_fr_energy">   -196.50115030 </i>
    <i name="e_wo_entrp">   -196.50000982 </i>
    <i name="e_0_energy">   -196.50058006 </i>
   </energy>
  </scstep>
  <scstep>
   <time name="total">   25.32   25.55</time>
   <energy>
    <i name="e_fr_energy">   -196.52928274 </i>
    <i name="e_wo_entrp">   -196.52815244 </i>
    <i name="e_0_energy">   -196.52871759 </i>
   </energy>
  </scstep>
  <scstep>
   <time name="total">   25.28   25.48</time>
   <energy>
    <i name="e_fr_energy">   -149.91990543 </i>
    <i name="e_wo_entrp">   -149.91697022 </i>
    <i name="e_0_energy">   -149.91843783 </i>
   </energy>
  </scstep>
  <scstep>
   <time name="total">   23.92   24.12</time>
   <energy>
    <i name="e_fr_energy">   -154.70826869 </i>
    <i name="e_wo_entrp">   -154.70578693 </i>
    <i name="e_0_energy">   -154.70702781 </i>
   </energy>
  </scstep>
  <scstep>
   <time name="total">   24.60   24.80</time>
   <energy>
    <i name="e_fr_energy">   -155.51549945 </i>
    <i name="e_wo_entrp">   -155.51301458 </i>
    <i name="e_0_energy">   -155.51425702 </i>
   </energy>
  </scstep>
  <scstep>
   <time name="total">   25.03   25.24</time>
   <energy>
    <i name="e_fr_energy">   -155.79063569 </i>
    <i name="e_wo_entrp">   -155.78804520 </i>
    <i name="e_0_energy">   -155.78934044 </i>
   </energy>
  </scstep>
  <scstep>
   <time name="total">   25.93   26.13</time>
   <energy>
    <i name="e_fr_energy">   -155.90824831 </i>
    <i name="e_wo_entrp">   -155.90562281 </i>
    <i name="e_0_energy">   -155.90693556 </i>
   </energy>
  </scstep>
  <scstep>
   <time name="total">   23.97   24.16</time>
   <energy>
    <i name="e_fr_energy">   -155.95448384 </i>
    <i name="e_wo_entrp">   -155.95197547 </i>
    <i name="e_0_energy">   -155.95322965 </i>
   </energy>
  </scstep>
  <scstep>
   <time name="total">   25.08   25.28</time>
   <energy>
    <i name="e_fr_energy">   -155.97572751 </i>
    <i name="e_wo_entrp">   -155.97337148 </i>
    <i name="e_0_energy">   -155.97454950 </i>
   </energy>
  </scstep>
  <scstep>
   <time name="total">   25.68   25.89</time>
   <energy>
    <i name="e_fr_energy">   -155.98378132 </i>
    <i name="e_wo_entrp">   -155.98152401 </i>
    <i name="e_0_energy">   -155.98265267 </i>
   </energy>
  </scstep>
  <scstep>
   <time name="total">   25.32   25.52</time>
   <energy>
    <i name="e_fr_energy">   -155.98730136 </i>
    <i name="e_wo_entrp">   -155.98512949 </i>
    <i name="e_0_energy">   -155.98621543 </i>
   </energy>
  </scstep>
  <scstep>
   <time name="total">   24.07   24.26</time>
   <energy>
    <i name="e_fr_energy">   -155.98861096 </i>
    <i name="e_wo_entrp">   -155.98650201 </i>
    <i name="e_0_energy">   -155.98755649 </i>
   </energy>
  </scstep>
  <scstep>
   <time name="total">   24.30   24.50</time>
   <energy>
    <i name="e_fr_energy">   -155.98922386 </i>
    <i name="e_wo_entrp">   -155.98715716 </i>
    <i name="e_0_energy">   -155.98819051 </i>
   </energy>
  </scstep>
  <scstep>
   <time name="total">   24.86   25.06</time>
   <energy>
    <i name="e_fr_energy">   -155.98949291 </i>
    <i name="e_wo_entrp">   -155.98745336 </i>
    <i name="e_0_energy">   -155.98847314 </i>
   </energy>
  </scstep>
  <scstep>
   <time name="total">   25.09   25.29</time>
   <energy>
    <i name="e_fr_energy">   -155.98961292 </i>
    <i name="e_wo_entrp">   -155.98758945 </i>
    <i name="e_0_energy">   -155.98860118 </i>
   </energy>
  </scstep>
  <scstep>
   <time name="total">   24.53   24.72</time>
   <energy>
    <i name="e_fr_energy">   -155.98966059 </i>
    <i name="e_wo_entrp">   -155.98763948 </i>
    <i name="e_0_energy">   -155.98865004 </i>
   </energy>
  </scstep>
  <scstep>
   <time name="total">   24.25   24.45</time>
   <energy>
    <i name="e_fr_energy">   -155.98968365 </i>
    <i name="e_wo_entrp">   -155.98766397 </i>
    <i name="e_0_energy">   -155.98867381 </i>
   </energy>
  </scstep>
  <scstep>
   <time name="total">   24.98   25.18</time>
   <energy>
    <i name="e_fr_energy">   -155.98969575 </i>
    <i name="e_wo_entrp">   -155.98767561 </i>
    <i name="e_0_energy">   -155.98868568 </i>
   </energy>
  </scstep>
  <scstep>
   <time name="total">   24.93   25.13</time>
   <energy>
    <i name="e_fr_energy">   -155.98969998 </i>
    <i name="e_wo_entrp">   -155.98767960 </i>
    <i name="e_0_energy">   -155.98868979 </i>
   </energy>
  </scstep>
  <scstep>
   <time name="total">   24.82   25.01</time>
   <energy>
    <i name="e_fr_energy">   -155.98970152 </i>
    <i name="e_wo_entrp">   -155.98768011 </i>
    <i name="e_0_energy">   -155.98869082 </i>
   </energy>
  </scstep>
  <scstep>
   <time name="total">   23.77   23.96</time>
   <energy>
    <i name="e_fr_energy">   -155.98970233 </i>
    <i name="e_wo_entrp">   -155.98768015 </i>
    <i name="e_0_energy">   -155.98869124 </i>
   </energy>
  </scstep>
  <scstep>
   <time name="total">   24.95   25.16</time>
   <energy>
    <i name="e_fr_energy">   -155.98970272 </i>
    <i name="e_wo_entrp">   -155.98768005 </i>
    <i name="e_0_energy">   -155.98869138 </i>
   </energy>
  </scstep>
  <scstep>
   <time name="total">   24.38   24.58</time>
   <energy>
    <i name="e_fr_energy">   -155.98970290 </i>
    <i name="e_wo_entrp">   -155.98767952 </i>
    <i name="e_0_energy">   -155.98869121 </i>
   </energy>
  </scstep>
  <scstep>
   <time name="total">   24.96   25.16</time>
   <energy>
    <i name="e_fr_energy">   -155.98970299 </i>
    <i name="e_wo_entrp">   -155.98767811 </i>
    <i name="e_0_energy">   -155.98869055 </i>
   </energy>
  </scstep>
  <scstep>
   <time name="total">   25.33   25.53</time>
   <energy>
    <i name="e_fr_energy">   -155.98970289 </i>
    <i name="e_wo_entrp">   -155.98767821 </i>
    <i name="e_0_energy">   -155.98869055 </i>
   </energy>
  </scstep>
  <scstep>
   <time name="total">   24.59   24.78</time>
   <energy>
    <i name="e_fr_energy">   -155.98970307 </i>
    <i name="e_wo_entrp">   -155.98767833 </i>
    <i name="e_0_energy">   -155.98869070 </i>
   </energy>
  </scstep>
  <scstep>
   <time name="total">   24.46   24.66</time>
   <energy>
    <i name="e_fr_energy">   -155.98970314 </i>
    <i name="e_wo_entrp">   -155.98767847 </i>
    <i name="e_0_energy">   -155.98869081 </i>
   </energy>
  </scstep>
  <scstep>
   <time name="total">   25.16   25.36</time>
   <energy>
    <i name="e_fr_energy">   -155.98970314 </i>
    <i name="e_wo_entrp">   -155.98767852 </i>
    <i name="e_0_energy">   -155.98869083 </i>
   </energy>
  </scstep>
  <scstep>
   <time name="total">   25.07   25.27</time>
   <energy>
    <i name="e_fr_energy">   -155.98970314 </i>
    <i name="e_wo_entrp">   -155.98767859 </i>
    <i name="e_0_energy">   -155.98869087 </i>
   </energy>
  </scstep>
  <scstep>
   <time name="total">   23.64   23.84</time>
   <energy>
    <i name="e_fr_energy">   -155.98970315 </i>
    <i name="e_wo_entrp">   -155.98767865 </i>
    <i name="e_0_energy">   -155.98869090 </i>
   </energy>
  </scstep>
  <scstep>
   <time name="total">   24.52   24.72</time>
   <energy>
    <i name="e_fr_energy">   -155.98970315 </i>
    <i name="e_wo_entrp">   -155.98767867 </i>
    <i name="e_0_energy">   -155.98869091 </i>
   </energy>
  </scstep>
  <scstep>
   <time name="total">   28.17   28.40</time>
   <energy>
    <i name="alphaZ">    483.66819966 </i>
    <i name="ewald">  -7287.00764577 </i>
    <i name="hartreedc">  -3909.28578908 </i>
    <i name="XCdc">    483.93395934 </i>
    <i name="pawpsdc">  16348.16657047 </i>
    <i name="pawaedc"> -16320.06561482 </i>
    <i name="eentropy">     -0.00202447 </i>
    <i name="bandstr">  -1477.56480368 </i>
    <i name="atom">  11522.16744521 </i>
    <i name="e_fr_energy">   -155.98970315 </i>
    <i name="e_wo_entrp">   -155.98767868 </i>
    <i name="e_0_energy">   -155.98869092 </i>
   </energy>
  </scstep>
  <structure>
   <crystal>
    <varray name="basis" >
     <v>       5.39738569       0.00000000      -3.19175070 </v>
     <v>      -1.75613821       5.10369972      -3.19175070 </v>
     <v>       0.00000000       0.00000000       6.27049000 </v>
    </varray>
    <i name="volume">    172.73090460 </i>
    <varray name="rec_basis" >
     <v>       0.18527488       0.06375146       0.00000000 </v>
     <v>       0.00000000       0.19593629       0.00000000 </v>
     <v>       0.09430702       0.13218402       0.15947717 </v>
    </varray>
   </crystal>
   <varray name="positions" >
    <v>       0.25000000       0.25000000       0.00000000 </v>
    <v>       0.75000000       0.75000000       0.00000000 </v>
    <v>       0.21596000       0.71596000       0.93191000 </v>
    <v>       0.00000000       0.00000000       0.00000000 </v>
    <v>       0.78404000       0.28404000       0.06809000 </v>
    <v>       0.71596000       0.78404000       0.50000000 </v>
    <v>       0.28404000       0.21596000       0.50000000 </v>
    <v>       0.50000000       0.50000000       0.00000000 </v>
    <v>       0.50000000       0.00000000       0.50000000 </v>
    <v>       0.00000000       0.50000000       0.50000000 </v>
   </varray>
  </structure>
  <varray name="forces" >
   <v>       0.00000000       0.00000000       0.00000000 </v>
   <v>       0.00000000       0.00000000       0.00000000 </v>
   <v>       0.00000000       0.00000000       0.00000000 </v>
   <v>       0.00000000       0.00000000       0.00000000 </v>
   <v>       0.00000000       0.00000000       0.00000000 </v>
   <v>       0.00000000       0.00000000       0.00000000 </v>
   <v>       0.00000000       0.00000000       0.00000000 </v>
   <v>       0.00000000       0.00000000       0.00000000 </v>
   <v>       0.00000000       0.00000000       0.00000000 </v>
   <v>       0.00000000       0.00000000       0.00000000 </v>
  </varray>
  <varray name="stress" >
   <v>       0.00000000       0.00000000       0.00000000 </v>
   <v>       0.00000000       0.00000000       0.00000000 </v>
   <v>       0.00000000       0.00000000       0.00000000 </v>
  </varray>
  <energy>
   <i name="e_fr_energy">   -155.98970315 </i>
   <i name="e_wo_entrp">   -155.98767868 </i>
   <i name="e_0_energy">   -155.98869092 </i>
  </energy>
  <time name="totalsc">  863.93  871.01</time>
  <eigenvalues>
   <array>
    <dimension dim="1">band</dimension>
    <dimension dim="2">kpoint</dimension>
    <dimension dim="3">spin</dimension>
    <field>eigene</field>
    <field>occ</field>
    <set>
     <set comment="spin 1">
      <set comment="kpoint 1">
       <r>  -55.5415    1.0000 </r>
       <r>  -55.0153    1.0000 </r>
       <r>  -54.6262    1.0000 </r>
       <r>  -54.6171    1.0000 </r>
       <r>  -54.5834    1.0000 </r>
       <r>  -54.0476    1.0000 </r>
       <r>  -31.1683    1.0000 </r>
       <r>  -31.1679    1.0000 </r>
       <r>  -29.1107    1.0000 </r>
       <r>  -29.1107    1.0000 </r>
       <r>  -28.7209    1.0000 </r>
       <r>  -28.6846    1.0000 </r>
       <r>  -28.6444    1.0000 </r>
       <r>  -28.5394    1.0000 </r>
       <r>  -28.2021    1.0000 </r>
       <r>  -28.1391    1.0000 </r>
       <r>  -28.1285    1.0000 </r>
       <r>  -28.1168    1.0000 </r>
       <r>  -27.8833    1.0000 </r>
       <r>  -27.8761    1.0000 </r>
       <r>  -27.8376    1.0000 </r>
       <r>  -27.4709    1.0000 </r>
       <r>  -26.1098    1.0000 </r>
       <r>  -26.1093    1.0000 </r>
       <r>   -2.0397    1.0000 </r>
       <r>    0.1474    1.0000 </r>
       <r>    0.8060    1.0000 </r>
       <r>    1.6086    1.0000 </r>
       <r>    1.6637    1.0000 </r>
       <r>    1.9793    1.0000 </r>
       <r>    2.1517    1.0000 </r>
       <r>    2.1519    1.0000 </r>
       <r>    3.1884    1.0000 </r>
       <r>    3.1892    1.0000 </r>
       <r>    3.2589    1.0000 </r>
       <r>    3.4707    1.0000 </r>
       <r>    3.9197    1.0000 </r>
       <r>    4.7076    1.0000 </r>
       <r>    4.7080    1.0000 </r>
       <r>    5.9059    1.0000 </r>
       <r>    6.2785    1.0000 </r>
       <r>    6.9952    1.0000 </r>
       <r>    6.9995    1.0000 </r>
       <r>    7.3522    1.0000 </r>
       <r>    7.3613    1.0000 </r>
       <r>    7.4339    1.0000 </r>
       <r>    7.4367    1.0000 </r>
       <r>    7.6571    0.0000 </r>
       <r>    7.8023    0.0000 </r>
       <r>    7.8277    0.0000 </r>
       <r>    7.8698    0.0000 </r>
       <r>    7.9677    0.0000 </r>
       <r>    8.1407    0.0000 </r>
       <r>    8.2470    0.0000 </r>
       <r>    8.2526    0.0000 </r>
       <r>    8.6197    0.0000 </r>
       <r>    9.4022    0.0000 </r>
       <r>   10.5860    0.0000 </r>
       <r>   10.5889    0.0000 </r>
       <r>   10.9891    0.0000 </r>
      </set>
      <set comment="kpoint 2">
       <r>  -55.5252    1.0000 </r>
       <r>  -55.0709    1.0000 </r>
       <r>  -54.6201    1.0000 </r>
       <r>  -54.5854    1.0000 </r>
       <r>  -54.5633    1.0000 </r>
       <r>  -54.0664    1.0000 </r>
       <r>  -31.1134    1.0000 </r>
       <r>  -31.1130    1.0000 </r>
       <r>  -29.4507    1.0000 </r>
       <r>  -29.4443    1.0000 </r>
       <r>  -28.6293    1.0000 </r>
       <r>  -28.5271    1.0000 </r>
       <r>  -28.4800    1.0000 </r>
       <r>  -28.4637    1.0000 </r>
       <r>  -28.2073    1.0000 </r>
       <r>  -28.1831    1.0000 </r>
       <r>  -28.0125    1.0000 </r>
       <r>  -27.9995    1.0000 </r>
       <r>  -27.8779    1.0000 </r>
       <r>  -27.8397    1.0000 </r>
       <r>  -27.8351    1.0000 </r>
       <r>  -27.4836    1.0000 </r>
       <r>  -26.1825    1.0000 </r>
       <r>  -26.1819    1.0000 </r>
       <r>   -1.9195    1.0000 </r>
       <r>    0.2064    1.0000 </r>
       <r>    0.8589    1.0000 </r>
       <r>    1.2213    1.0000 </r>
       <r>    1.5569    1.0000 </r>
       <r>    1.9104    1.0000 </r>
       <r>    2.3326    1.0000 </r>
       <r>    2.4245    1.0000 </r>
       <r>    3.1914    1.0000 </r>
       <r>    3.2366    1.0000 </r>
       <r>    3.2688    1.0000 </r>
       <r>    3.6021    1.0000 </r>
       <r>    3.9994    1.0000 </r>
       <r>    4.5665    1.0000 </r>
       <r>    4.7435    1.0000 </r>
       <r>    5.9961    1.0000 </r>
       <r>    6.0104    1.0000 </r>
       <r>    6.3012    1.0000 </r>
       <r>    6.7620    1.0000 </r>
       <r>    7.1037    1.0000 </r>
       <r>    7.2418    1.0000 </r>
       <r>    7.3634    1.0000 </r>
       <r>    7.4365    1.0000 </r>
       <r>    7.4851    1.0000 </r>
       <r>    7.6840    0.0000 </r>
       <r>    7.7801    0.0000 </r>
       <r>    7.9964    0.0000 </r>
       <r>    8.1339    0.0000 </r>
       <r>    8.1528    0.0000 </r>
       <r>    8.3834    0.0000 </r>
       <r>    8.7989    0.0000 </r>
       <r>    8.8497    0.0000 </r>
       <r>    9.1082    0.0000 </r>
       <r>   10.4020    0.0000 </r>
       <r>   10.4121    0.0000 </r>
       <r>   10.9085    0.0000 </r>
      </set>
      <set comment="kpoint 3">
       <r>  -55.4771    1.0000 </r>
       <r>  -55.1828    1.0000 </r>
       <r>  -54.6146    1.0000 </r>
       <r>  -54.5907    1.0000 </r>
       <r>  -54.4452    1.0000 </r>
       <r>  -54.1211    1.0000 </r>
       <r>  -30.9514    1.0000 </r>
       <r>  -30.9503    1.0000 </r>
       <r>  -29.9147    1.0000 </r>
       <r>  -29.9089    1.0000 </r>
       <r>  -28.5834    1.0000 </r>
       <r>  -28.4910    1.0000 </r>
       <r>  -28.4021    1.0000 </r>
       <r>  -28.3409    1.0000 </r>
       <r>  -28.2689    1.0000 </r>
       <r>  -28.2245    1.0000 </r>
       <r>  -27.8718    1.0000 </r>
       <r>  -27.8454    1.0000 </r>
       <r>  -27.7483    1.0000 </r>
       <r>  -27.6149    1.0000 </r>
       <r>  -27.6097    1.0000 </r>
       <r>  -27.5210    1.0000 </r>
       <r>  -26.3939    1.0000 </r>
       <r>  -26.3932    1.0000 </r>
       <r>   -1.5708    1.0000 </r>
       <r>    0.3766    1.0000 </r>
       <r>    0.4489    1.0000 </r>
       <r>    1.0408    1.0000 </r>
       <r>    1.2927    1.0000 </r>
       <r>    2.0193    1.0000 </r>
       <r>    2.6168    1.0000 </r>
       <r>    2.8215    1.0000 </r>
       <r>    3.1986    1.0000 </r>
       <r>    3.2714    1.0000 </r>
       <r>    3.3752    1.0000 </r>
       <r>    3.9878    1.0000 </r>
       <r>    4.1485    1.0000 </r>
       <r>    4.2617    1.0000 </r>
       <r>    5.0021    1.0000 </r>
       <r>    5.2174    1.0000 </r>
       <r>    5.4577    1.0000 </r>
       <r>    5.7873    1.0000 </r>
       <r>    6.2854    1.0000 </r>
       <r>    6.7197    1.0000 </r>
       <r>    6.8360    1.0000 </r>
       <r>    7.0092    1.0000 </r>
       <r>    7.3708    1.0000 </r>
       <r>    7.4226    1.0000 </r>
       <r>    7.4908    1.0000 </r>
       <r>    7.5796    0.7281 </r>
       <r>    7.8086    0.0000 </r>
       <r>    8.3424    0.0000 </r>
       <r>    8.6552    0.0000 </r>
       <r>    8.9733    0.0000 </r>
       <r>    9.0313    0.0000 </r>
       <r>    9.3648    0.0000 </r>
       <r>    9.4355    0.0000 </r>
       <r>   10.5485    0.0000 </r>
       <r>   10.6723    0.0000 </r>
       <r>   10.9287    0.0000 </r>
      </set>
      <set comment="kpoint 4">
       <r>  -55.4000    1.0000 </r>
       <r>  -55.2989    1.0000 </r>
       <r>  -54.6069    1.0000 </r>
       <r>  -54.5983    1.0000 </r>
       <r>  -54.3195    1.0000 </r>
       <r>  -54.2078    1.0000 </r>
       <r>  -30.6891    1.0000 </r>
       <r>  -30.6866    1.0000 </r>
       <r>  -30.3376    1.0000 </r>
       <r>  -30.3335    1.0000 </r>
       <r>  -28.5178    1.0000 </r>
       <r>  -28.4483    1.0000 </r>
       <r>  -28.4329    1.0000 </r>
       <r>  -28.3567    1.0000 </r>
       <r>  -28.2884    1.0000 </r>
       <r>  -28.2520    1.0000 </r>
       <r>  -27.8632    1.0000 </r>
       <r>  -27.8538    1.0000 </r>
       <r>  -27.6589    1.0000 </r>
       <r>  -27.5808    1.0000 </r>
       <r>  -27.1469    1.0000 </r>
       <r>  -27.1457    1.0000 </r>
       <r>  -26.7250    1.0000 </r>
       <r>  -26.7244    1.0000 </r>
       <r>   -1.0262    1.0000 </r>
       <r>   -0.3330    1.0000 </r>
       <r>    0.6395    1.0000 </r>
       <r>    0.9624    1.0000 </r>
       <r>    1.3631    1.0000 </r>
       <r>    1.7592    1.0000 </r>
       <r>    3.1376    1.0000 </r>
       <r>    3.2102    1.0000 </r>
       <r>    3.2427    1.0000 </r>
       <r>    3.4278    1.0000 </r>
       <r>    3.5864    1.0000 </r>
       <r>    3.9148    1.0000 </r>
       <r>    4.2590    1.0000 </r>
       <r>    4.3644    1.0000 </r>
       <r>    4.6902    1.0000 </r>
       <r>    4.7851    1.0000 </r>
       <r>    4.9390    1.0000 </r>
       <r>    5.4058    1.0000 </r>
       <r>    5.8820    1.0000 </r>
       <r>    6.3335    1.0000 </r>
       <r>    6.5971    1.0000 </r>
       <r>    6.7710    1.0000 </r>
       <r>    7.2193    1.0000 </r>
       <r>    7.2312    1.0000 </r>
       <r>    7.4981    1.0000 </r>
       <r>    7.5667    0.9351 </r>
       <r>    7.8815    0.0000 </r>
       <r>    8.1444    0.0000 </r>
       <r>    9.2890    0.0000 </r>
       <r>    9.4763    0.0000 </r>
       <r>    9.6349    0.0000 </r>
       <r>    9.8725    0.0000 </r>
       <r>   10.0257    0.0000 </r>
       <r>   10.2755    0.0000 </r>
       <r>   10.6718    0.0000 </r>
       <r>   10.7743    0.0000 </r>
      </set>
      <set comment="kpoint 5">
       <r>  -55.5101    1.0000 </r>
       <r>  -55.1103    1.0000 </r>
       <r>  -54.6278    1.0000 </r>
       <r>  -54.5869    1.0000 </r>
       <r>  -54.5127    1.0000 </r>
       <r>  -54.0835    1.0000 </r>
       <r>  -31.1611    1.0000 </r>
       <r>  -30.9582    1.0000 </r>
       <r>  -29.9000    1.0000 </r>
       <r>  -29.1440    1.0000 </r>
       <r>  -28.7057    1.0000 </r>
       <r>  -28.6051    1.0000 </r>
       <r>  -28.5162    1.0000 </r>
       <r>  -28.3461    1.0000 </r>
       <r>  -28.2162    1.0000 </r>
       <r>  -28.2131    1.0000 </r>
       <r>  -28.1212    1.0000 </r>
       <r>  -27.8829    1.0000 </r>
       <r>  -27.8418    1.0000 </r>
       <r>  -27.7970    1.0000 </r>
       <r>  -27.6214    1.0000 </r>
       <r>  -27.4954    1.0000 </r>
       <r>  -26.3897    1.0000 </r>
       <r>  -26.1127    1.0000 </r>
       <r>   -1.7707    1.0000 </r>
       <r>    0.3313    1.0000 </r>
       <r>    0.9013    1.0000 </r>
       <r>    0.9700    1.0000 </r>
       <r>    1.2934    1.0000 </r>
       <r>    1.9427    1.0000 </r>
       <r>    2.3938    1.0000 </r>
       <r>    2.5354    1.0000 </r>
       <r>    3.1238    1.0000 </r>
       <r>    3.2218    1.0000 </r>
       <r>    3.3498    1.0000 </r>
       <r>    3.7263    1.0000 </r>
       <r>    4.0963    1.0000 </r>
       <r>    4.5676    1.0000 </r>
       <r>    4.9385    1.0000 </r>
       <r>    5.5861    1.0000 </r>
       <r>    5.7016    1.0000 </r>
       <r>    6.1414    1.0000 </r>
       <r>    6.8259    1.0000 </r>
       <r>    7.0807    1.0000 </r>
       <r>    7.1812    1.0000 </r>
       <r>    7.2342    1.0000 </r>
       <r>    7.3557    1.0000 </r>
       <r>    7.3824    1.0000 </r>
       <r>    7.5378    0.9998 </r>
       <r>    7.9037    0.0000 </r>
       <r>    7.9695    0.0000 </r>
       <r>    8.0094    0.0000 </r>
       <r>    8.3023    0.0000 </r>
       <r>    8.4339    0.0000 </r>
       <r>    8.5750    0.0000 </r>
       <r>    8.9578    0.0000 </r>
       <r>    9.3260    0.0000 </r>
       <r>   10.1638    0.0000 </r>
       <r>   10.7384    0.0000 </r>
       <r>   10.9152    0.0000 </r>
      </set>
      <set comment="kpoint 6">
       <r>  -55.4656    1.0000 </r>
       <r>  -55.2007    1.0000 </r>
       <r>  -54.6243    1.0000 </r>
       <r>  -54.5927    1.0000 </r>
       <r>  -54.4151    1.0000 </r>
       <r>  -54.1331    1.0000 </r>
       <r>  -31.1006    1.0000 </r>
       <r>  -30.7021    1.0000 </r>
       <r>  -30.3190    1.0000 </r>
       <r>  -29.4789    1.0000 </r>
       <r>  -28.5768    1.0000 </r>
       <r>  -28.4934    1.0000 </r>
       <r>  -28.4830    1.0000 </r>
       <r>  -28.3339    1.0000 </r>
       <r>  -28.2817    1.0000 </r>
       <r>  -28.2379    1.0000 </r>
       <r>  -27.9843    1.0000 </r>
       <r>  -27.8782    1.0000 </r>
       <r>  -27.8479    1.0000 </r>
       <r>  -27.7261    1.0000 </r>
       <r>  -27.5294    1.0000 </r>
       <r>  -27.1573    1.0000 </r>
       <r>  -26.7162    1.0000 </r>
       <r>  -26.1879    1.0000 </r>
       <r>   -1.4082    1.0000 </r>
       <r>    0.3463    1.0000 </r>
       <r>    0.5601    1.0000 </r>
       <r>    0.9579    1.0000 </r>
       <r>    1.0956    1.0000 </r>
       <r>    1.9579    1.0000 </r>
       <r>    2.6252    1.0000 </r>
       <r>    2.8689    1.0000 </r>
       <r>    3.0899    1.0000 </r>
       <r>    3.2586    1.0000 </r>
       <r>    3.4490    1.0000 </r>
       <r>    3.9760    1.0000 </r>
       <r>    4.1043    1.0000 </r>
       <r>    4.4955    1.0000 </r>
       <r>    4.8069    1.0000 </r>
       <r>    5.1768    1.0000 </r>
       <r>    5.3479    1.0000 </r>
       <r>    6.0958    1.0000 </r>
       <r>    6.4844    1.0000 </r>
       <r>    6.5476    1.0000 </r>
       <r>    6.7196    1.0000 </r>
       <r>    7.0155    1.0000 </r>
       <r>    7.1396    1.0000 </r>
       <r>    7.3614    1.0000 </r>
       <r>    7.4031    1.0000 </r>
       <r>    7.5721    0.8721 </r>
       <r>    7.9245    0.0000 </r>
       <r>    8.2351    0.0000 </r>
       <r>    8.4849    0.0000 </r>
       <r>    8.6679    0.0000 </r>
       <r>    8.9385    0.0000 </r>
       <r>    9.5811    0.0000 </r>
       <r>    9.9708    0.0000 </r>
       <r>   10.3989    0.0000 </r>
       <r>   10.6081    0.0000 </r>
       <r>   11.1365    0.0000 </r>
      </set>
      <set comment="kpoint 7">
       <r>  -55.3948    1.0000 </r>
       <r>  -55.3022    1.0000 </r>
       <r>  -54.6153    1.0000 </r>
       <r>  -54.6012    1.0000 </r>
       <r>  -54.3070    1.0000 </r>
       <r>  -54.2111    1.0000 </r>
       <r>  -30.9343    1.0000 </r>
       <r>  -30.6701    1.0000 </r>
       <r>  -30.3561    1.0000 </r>
       <r>  -29.9376    1.0000 </r>
       <r>  -28.5081    1.0000 </r>
       <r>  -28.4508    1.0000 </r>
       <r>  -28.4298    1.0000 </r>
       <r>  -28.3582    1.0000 </r>
       <r>  -28.3087    1.0000 </r>
       <r>  -28.2706    1.0000 </r>
       <r>  -27.8689    1.0000 </r>
       <r>  -27.8567    1.0000 </r>
       <r>  -27.6495    1.0000 </r>
       <r>  -27.5898    1.0000 </r>
       <r>  -27.5833    1.0000 </r>
       <r>  -27.1313    1.0000 </r>
       <r>  -26.7345    1.0000 </r>
       <r>  -26.4017    1.0000 </r>
       <r>   -0.8730    1.0000 </r>
       <r>   -0.3748    1.0000 </r>
       <r>    0.6975    1.0000 </r>
       <r>    0.8692    1.0000 </r>
       <r>    1.3741    1.0000 </r>
       <r>    1.7217    1.0000 </r>
       <r>    2.9810    1.0000 </r>
       <r>    3.0955    1.0000 </r>
       <r>    3.2956    1.0000 </r>
       <r>    3.4526    1.0000 </r>
       <r>    3.5440    1.0000 </r>
       <r>    3.7623    1.0000 </r>
       <r>    4.0020    1.0000 </r>
       <r>    4.4279    1.0000 </r>
       <r>    4.7080    1.0000 </r>
       <r>    4.8474    1.0000 </r>
       <r>    5.3314    1.0000 </r>
       <r>    5.7172    1.0000 </r>
       <r>    5.9553    1.0000 </r>
       <r>    6.1073    1.0000 </r>
       <r>    6.6237    1.0000 </r>
       <r>    6.9009    1.0000 </r>
       <r>    7.0034    1.0000 </r>
       <r>    7.1602    1.0000 </r>
       <r>    7.4094    1.0000 </r>
       <r>    7.4894    1.0000 </r>
       <r>    7.9888    0.0000 </r>
       <r>    8.4755    0.0000 </r>
       <r>    8.8368    0.0000 </r>
       <r>    9.2228    0.0000 </r>
       <r>    9.4054    0.0000 </r>
       <r>    9.8283    0.0000 </r>
       <r>   10.2013    0.0000 </r>
       <r>   10.5410    0.0000 </r>
       <r>   10.7171    0.0000 </r>
       <r>   10.8406    0.0000 </r>
      </set>
      <set comment="kpoint 8">
       <r>  -55.3938    1.0000 </r>
       <r>  -55.3035    1.0000 </r>
       <r>  -54.6102    1.0000 </r>
       <r>  -54.6046    1.0000 </r>
       <r>  -54.3107    1.0000 </r>
       <r>  -54.2086    1.0000 </r>
       <r>  -30.9348    1.0000 </r>
       <r>  -30.6697    1.0000 </r>
       <r>  -30.3560    1.0000 </r>
       <r>  -29.9378    1.0000 </r>
       <r>  -28.5096    1.0000 </r>
       <r>  -28.4462    1.0000 </r>
       <r>  -28.4273    1.0000 </r>
       <r>  -28.3609    1.0000 </r>
       <r>  -28.3161    1.0000 </r>
       <r>  -28.2665    1.0000 </r>
       <r>  -27.8660    1.0000 </r>
       <r>  -27.8582    1.0000 </r>
       <r>  -27.6530    1.0000 </r>
       <r>  -27.5888    1.0000 </r>
       <r>  -27.5810    1.0000 </r>
       <r>  -27.1319    1.0000 </r>
       <r>  -26.7352    1.0000 </r>
       <r>  -26.4011    1.0000 </r>
       <r>   -1.0263    1.0000 </r>
       <r>   -0.2247    1.0000 </r>
       <r>    0.4578    1.0000 </r>
       <r>    1.2074    1.0000 </r>
       <r>    1.3707    1.0000 </r>
       <r>    1.7376    1.0000 </r>
       <r>    2.9872    1.0000 </r>
       <r>    3.1391    1.0000 </r>
       <r>    3.2983    1.0000 </r>
       <r>    3.4402    1.0000 </r>
       <r>    3.6941    1.0000 </r>
       <r>    3.7155    1.0000 </r>
       <r>    3.9246    1.0000 </r>
       <r>    4.2921    1.0000 </r>
       <r>    4.4692    1.0000 </r>
       <r>    5.1311    1.0000 </r>
       <r>    5.2661    1.0000 </r>
       <r>    5.3467    1.0000 </r>
       <r>    5.9766    1.0000 </r>
       <r>    6.3212    1.0000 </r>
       <r>    6.6714    1.0000 </r>
       <r>    6.8366    1.0000 </r>
       <r>    7.1026    1.0000 </r>
       <r>    7.3161    1.0000 </r>
       <r>    7.4189    1.0000 </r>
       <r>    7.6315    0.0011 </r>
       <r>    8.0809    0.0000 </r>
       <r>    8.5374    0.0000 </r>
       <r>    8.7952    0.0000 </r>
       <r>    9.0144    0.0000 </r>
       <r>    9.3129    0.0000 </r>
       <r>    9.9243    0.0000 </r>
       <r>   10.1332    0.0000 </r>
       <r>   10.3036    0.0000 </r>
       <r>   10.6754    0.0000 </r>
       <r>   10.8951    0.0000 </r>
      </set>
      <set comment="kpoint 9">
       <r>  -55.4650    1.0000 </r>
       <r>  -55.2023    1.0000 </r>
       <r>  -54.6171    1.0000 </r>
       <r>  -54.5948    1.0000 </r>
       <r>  -54.4207    1.0000 </r>
       <r>  -54.1316    1.0000 </r>
       <r>  -31.1011    1.0000 </r>
       <r>  -30.7019    1.0000 </r>
       <r>  -30.3187    1.0000 </r>
       <r>  -29.4792    1.0000 </r>
       <r>  -28.5777    1.0000 </r>
       <r>  -28.4840    1.0000 </r>
       <r>  -28.4810    1.0000 </r>
       <r>  -28.3482    1.0000 </r>
       <r>  -28.2842    1.0000 </r>
       <r>  -28.2340    1.0000 </r>
       <r>  -27.9808    1.0000 </r>
       <r>  -27.8735    1.0000 </r>
       <r>  -27.8487    1.0000 </r>
       <r>  -27.7311    1.0000 </r>
       <r>  -27.5279    1.0000 </r>
       <r>  -27.1583    1.0000 </r>
       <r>  -26.7168    1.0000 </r>
       <r>  -26.1874    1.0000 </r>
       <r>   -1.5297    1.0000 </r>
       <r>    0.2812    1.0000 </r>
       <r>    0.4545    1.0000 </r>
       <r>    1.0637    1.0000 </r>
       <r>    1.5159    1.0000 </r>
       <r>    1.9746    1.0000 </r>
       <r>    2.6349    1.0000 </r>
       <r>    2.8872    1.0000 </r>
       <r>    3.1886    1.0000 </r>
       <r>    3.2777    1.0000 </r>
       <r>    3.5521    1.0000 </r>
       <r>    3.8371    1.0000 </r>
       <r>    4.0617    1.0000 </r>
       <r>    4.1159    1.0000 </r>
       <r>    4.6290    1.0000 </r>
       <r>    5.0580    1.0000 </r>
       <r>    5.6126    1.0000 </r>
       <r>    5.8909    1.0000 </r>
       <r>    6.4003    1.0000 </r>
       <r>    6.5238    1.0000 </r>
       <r>    6.8802    1.0000 </r>
       <r>    7.1614    1.0000 </r>
       <r>    7.3233    1.0000 </r>
       <r>    7.3658    1.0000 </r>
       <r>    7.6812    0.0000 </r>
       <r>    7.8230    0.0000 </r>
       <r>    7.9909    0.0000 </r>
       <r>    8.2222    0.0000 </r>
       <r>    8.4132    0.0000 </r>
       <r>    8.7107    0.0000 </r>
       <r>    9.0178    0.0000 </r>
       <r>    9.1748    0.0000 </r>
       <r>    9.5924    0.0000 </r>
       <r>   10.4894    0.0000 </r>
       <r>   10.6856    0.0000 </r>
       <r>   11.1716    0.0000 </r>
      </set>
      <set comment="kpoint 10">
       <r>  -55.5098    1.0000 </r>
       <r>  -55.1117    1.0000 </r>
       <r>  -54.6188    1.0000 </r>
       <r>  -54.5879    1.0000 </r>
       <r>  -54.5203    1.0000 </r>
       <r>  -54.0828    1.0000 </r>
       <r>  -31.1616    1.0000 </r>
       <r>  -30.9579    1.0000 </r>
       <r>  -29.8999    1.0000 </r>
       <r>  -29.1447    1.0000 </r>
       <r>  -28.7021    1.0000 </r>
       <r>  -28.6037    1.0000 </r>
       <r>  -28.5151    1.0000 </r>
       <r>  -28.3593    1.0000 </r>
       <r>  -28.2149    1.0000 </r>
       <r>  -28.2132    1.0000 </r>
       <r>  -28.1130    1.0000 </r>
       <r>  -27.8762    1.0000 </r>
       <r>  -27.8421    1.0000 </r>
       <r>  -27.8034    1.0000 </r>
       <r>  -27.6235    1.0000 </r>
       <r>  -27.4947    1.0000 </r>
       <r>  -26.3903    1.0000 </r>
       <r>  -26.1121    1.0000 </r>
       <r>   -1.8370    1.0000 </r>
       <r>    0.1919    1.0000 </r>
       <r>    0.9017    1.0000 </r>
       <r>    1.0211    1.0000 </r>
       <r>    1.6469    1.0000 </r>
       <r>    1.9482    1.0000 </r>
       <r>    2.4009    1.0000 </r>
       <r>    2.5541    1.0000 </r>
       <r>    3.2195    1.0000 </r>
       <r>    3.2361    1.0000 </r>
       <r>    3.3680    1.0000 </r>
       <r>    3.7299    1.0000 </r>
       <r>    3.8757    1.0000 </r>
       <r>    4.2770    1.0000 </r>
       <r>    4.8909    1.0000 </r>
       <r>    5.5756    1.0000 </r>
       <r>    5.9881    1.0000 </r>
       <r>    6.1481    1.0000 </r>
       <r>    6.4801    1.0000 </r>
       <r>    7.0916    1.0000 </r>
       <r>    7.2237    1.0000 </r>
       <r>    7.3737    1.0000 </r>
       <r>    7.4455    1.0000 </r>
       <r>    7.5108    1.0000 </r>
       <r>    7.6875    0.0000 </r>
       <r>    7.8589    0.0000 </r>
       <r>    7.8998    0.0000 </r>
       <r>    8.1388    0.0000 </r>
       <r>    8.3910    0.0000 </r>
       <r>    8.4851    0.0000 </r>
       <r>    8.4986    0.0000 </r>
       <r>    8.8436    0.0000 </r>
       <r>    9.2431    0.0000 </r>
       <r>   10.3424    0.0000 </r>
       <r>   10.5077    0.0000 </r>
       <r>   11.3384    0.0000 </r>
      </set>
      <set comment="kpoint 11">
       <r>  -55.4317    1.0000 </r>
       <r>  -55.2494    1.0000 </r>
       <r>  -54.6312    1.0000 </r>
       <r>  -54.6004    1.0000 </r>
       <r>  -54.3520    1.0000 </r>
       <r>  -54.1667    1.0000 </r>
       <r>  -31.1457    1.0000 </r>
       <r>  -30.6620    1.0000 </r>
       <r>  -30.3651    1.0000 </r>
       <r>  -29.2080    1.0000 </r>
       <r>  -28.7070    1.0000 </r>
       <r>  -28.5181    1.0000 </r>
       <r>  -28.4580    1.0000 </r>
       <r>  -28.3266    1.0000 </r>
       <r>  -28.3179    1.0000 </r>
       <r>  -28.2755    1.0000 </r>
       <r>  -28.0983    1.0000 </r>
       <r>  -27.8819    1.0000 </r>
       <r>  -27.8551    1.0000 </r>
       <r>  -27.6809    1.0000 </r>
       <r>  -27.5526    1.0000 </r>
       <r>  -27.1247    1.0000 </r>
       <r>  -26.7390    1.0000 </r>
       <r>  -26.1191    1.0000 </r>
       <r>   -1.0686    1.0000 </r>
       <r>    0.1323    1.0000 </r>
       <r>    0.5826    1.0000 </r>
       <r>    0.8273    1.0000 </r>
       <r>    1.1943    1.0000 </r>
       <r>    1.8247    1.0000 </r>
       <r>    2.7108    1.0000 </r>
       <r>    3.0141    1.0000 </r>
       <r>    3.1009    1.0000 </r>
       <r>    3.2094    1.0000 </r>
       <r>    3.6601    1.0000 </r>
       <r>    3.7691    1.0000 </r>
       <r>    3.8034    1.0000 </r>
       <r>    4.3896    1.0000 </r>
       <r>    4.7954    1.0000 </r>
       <r>    5.2862    1.0000 </r>
       <r>    5.4880    1.0000 </r>
       <r>    6.0749    1.0000 </r>
       <r>    6.3085    1.0000 </r>
       <r>    6.3698    1.0000 </r>
       <r>    6.5343    1.0000 </r>
       <r>    6.8775    1.0000 </r>
       <r>    6.8994    1.0000 </r>
       <r>    7.2496    1.0000 </r>
       <r>    7.5396    0.9997 </r>
       <r>    7.7339    0.0000 </r>
       <r>    7.7416    0.0000 </r>
       <r>    8.2332    0.0000 </r>
       <r>    8.4907    0.0000 </r>
       <r>    8.9851    0.0000 </r>
       <r>    9.0465    0.0000 </r>
       <r>    9.7634    0.0000 </r>
       <r>    9.9762    0.0000 </r>
       <r>   10.4647    0.0000 </r>
       <r>   10.6821    0.0000 </r>
       <r>   11.2145    0.0000 </r>
      </set>
      <set comment="kpoint 12">
       <r>  -55.3794    1.0000 </r>
       <r>  -55.3134    1.0000 </r>
       <r>  -54.6278    1.0000 </r>
       <r>  -54.6108    1.0000 </r>
       <r>  -54.2805    1.0000 </r>
       <r>  -54.2195    1.0000 </r>
       <r>  -31.0848    1.0000 </r>
       <r>  -30.9216    1.0000 </r>
       <r>  -29.9579    1.0000 </r>
       <r>  -29.5155    1.0000 </r>
       <r>  -28.5437    1.0000 </r>
       <r>  -28.4762    1.0000 </r>
       <r>  -28.4187    1.0000 </r>
       <r>  -28.3658    1.0000 </r>
       <r>  -28.3437    1.0000 </r>
       <r>  -28.3210    1.0000 </r>
       <r>  -27.9526    1.0000 </r>
       <r>  -27.8774    1.0000 </r>
       <r>  -27.8648    1.0000 </r>
       <r>  -27.6305    1.0000 </r>
       <r>  -27.5892    1.0000 </r>
       <r>  -27.5707    1.0000 </r>
       <r>  -26.4074    1.0000 </r>
       <r>  -26.1947    1.0000 </r>
       <r>   -0.6099    1.0000 </r>
       <r>   -0.3390    1.0000 </r>
       <r>    0.3860    1.0000 </r>
       <r>    1.1490    1.0000 </r>
       <r>    1.3921    1.0000 </r>
       <r>    1.6250    1.0000 </r>
       <r>    2.8171    1.0000 </r>
       <r>    2.9977    1.0000 </r>
       <r>    3.1686    1.0000 </r>
       <r>    3.1887    1.0000 </r>
       <r>    3.6017    1.0000 </r>
       <r>    3.7507    1.0000 </r>
       <r>    3.9296    1.0000 </r>
       <r>    4.2663    1.0000 </r>
       <r>    4.4654    1.0000 </r>
       <r>    5.3697    1.0000 </r>
       <r>    5.6836    1.0000 </r>
       <r>    5.8415    1.0000 </r>
       <r>    5.9757    1.0000 </r>
       <r>    6.0619    1.0000 </r>
       <r>    6.5785    1.0000 </r>
       <r>    6.7305    1.0000 </r>
       <r>    7.0278    1.0000 </r>
       <r>    7.2613    1.0000 </r>
       <r>    7.2895    1.0000 </r>
       <r>    7.6224    0.0078 </r>
       <r>    7.9500    0.0000 </r>
       <r>    8.7223    0.0000 </r>
       <r>    8.9172    0.0000 </r>
       <r>    9.1342    0.0000 </r>
       <r>    9.2314    0.0000 </r>
       <r>    9.5166    0.0000 </r>
       <r>   10.1460    0.0000 </r>
       <r>   10.5045    0.0000 </r>
       <r>   10.5914    0.0000 </r>
       <r>   10.7895    0.0000 </r>
      </set>
      <set comment="kpoint 13">
       <r>  -55.3775    1.0000 </r>
       <r>  -55.3158    1.0000 </r>
       <r>  -54.6198    1.0000 </r>
       <r>  -54.6170    1.0000 </r>
       <r>  -54.2864    1.0000 </r>
       <r>  -54.2149    1.0000 </r>
       <r>  -31.0855    1.0000 </r>
       <r>  -30.9210    1.0000 </r>
       <r>  -29.9577    1.0000 </r>
       <r>  -29.5161    1.0000 </r>
       <r>  -28.5430    1.0000 </r>
       <r>  -28.4718    1.0000 </r>
       <r>  -28.4141    1.0000 </r>
       <r>  -28.3705    1.0000 </r>
       <r>  -28.3561    1.0000 </r>
       <r>  -28.3135    1.0000 </r>
       <r>  -27.9517    1.0000 </r>
       <r>  -27.8732    1.0000 </r>
       <r>  -27.8676    1.0000 </r>
       <r>  -27.6359    1.0000 </r>
       <r>  -27.5849    1.0000 </r>
       <r>  -27.5712    1.0000 </r>
       <r>  -26.4080    1.0000 </r>
       <r>  -26.1941    1.0000 </r>
       <r>   -0.8681    1.0000 </r>
       <r>   -0.1196    1.0000 </r>
       <r>    0.3004    1.0000 </r>
       <r>    1.3271    1.0000 </r>
       <r>    1.4977    1.0000 </r>
       <r>    1.6456    1.0000 </r>
       <r>    2.8166    1.0000 </r>
       <r>    3.0710    1.0000 </r>
       <r>    3.1582    1.0000 </r>
       <r>    3.1778    1.0000 </r>
       <r>    3.5817    1.0000 </r>
       <r>    3.7097    1.0000 </r>
       <r>    3.9638    1.0000 </r>
       <r>    4.0256    1.0000 </r>
       <r>    4.4170    1.0000 </r>
       <r>    5.4496    1.0000 </r>
       <r>    5.5470    1.0000 </r>
       <r>    5.7471    1.0000 </r>
       <r>    5.8657    1.0000 </r>
       <r>    6.1286    1.0000 </r>
       <r>    6.6915    1.0000 </r>
       <r>    6.7683    1.0000 </r>
       <r>    7.0239    1.0000 </r>
       <r>    7.3595    1.0000 </r>
       <r>    7.5419    0.9995 </r>
       <r>    7.8789    0.0000 </r>
       <r>    8.1408    0.0000 </r>
       <r>    8.2103    0.0000 </r>
       <r>    8.9190    0.0000 </r>
       <r>    9.0498    0.0000 </r>
       <r>    9.5503    0.0000 </r>
       <r>    9.6359    0.0000 </r>
       <r>   10.0170    0.0000 </r>
       <r>   10.3056    0.0000 </r>
       <r>   10.5051    0.0000 </r>
       <r>   10.5828    0.0000 </r>
      </set>
      <set comment="kpoint 14">
       <r>  -55.4304    1.0000 </r>
       <r>  -55.2518    1.0000 </r>
       <r>  -54.6222    1.0000 </r>
       <r>  -54.6046    1.0000 </r>
       <r>  -54.3587    1.0000 </r>
       <r>  -54.1637    1.0000 </r>
       <r>  -31.1463    1.0000 </r>
       <r>  -30.6615    1.0000 </r>
       <r>  -30.3650    1.0000 </r>
       <r>  -29.2095    1.0000 </r>
       <r>  -28.7033    1.0000 </r>
       <r>  -28.5151    1.0000 </r>
       <r>  -28.4544    1.0000 </r>
       <r>  -28.3414    1.0000 </r>
       <r>  -28.3219    1.0000 </r>
       <r>  -28.2677    1.0000 </r>
       <r>  -28.0954    1.0000 </r>
       <r>  -27.8766    1.0000 </r>
       <r>  -27.8569    1.0000 </r>
       <r>  -27.6870    1.0000 </r>
       <r>  -27.5497    1.0000 </r>
       <r>  -27.1253    1.0000 </r>
       <r>  -26.7398    1.0000 </r>
       <r>  -26.1185    1.0000 </r>
       <r>   -1.2861    1.0000 </r>
       <r>    0.2614    1.0000 </r>
       <r>    0.2753    1.0000 </r>
       <r>    1.1465    1.0000 </r>
       <r>    1.6204    1.0000 </r>
       <r>    1.8487    1.0000 </r>
       <r>    2.7145    1.0000 </r>
       <r>    3.0659    1.0000 </r>
       <r>    3.1403    1.0000 </r>
       <r>    3.2624    1.0000 </r>
       <r>    3.6711    1.0000 </r>
       <r>    3.6955    1.0000 </r>
       <r>    3.8077    1.0000 </r>
       <r>    3.9641    1.0000 </r>
       <r>    4.4309    1.0000 </r>
       <r>    5.4097    1.0000 </r>
       <r>    5.5903    1.0000 </r>
       <r>    5.6679    1.0000 </r>
       <r>    6.2478    1.0000 </r>
       <r>    6.4454    1.0000 </r>
       <r>    6.5841    1.0000 </r>
       <r>    6.9499    1.0000 </r>
       <r>    7.1985    1.0000 </r>
       <r>    7.5885    0.4894 </r>
       <r>    7.8156    0.0000 </r>
       <r>    7.8274    0.0000 </r>
       <r>    8.1033    0.0000 </r>
       <r>    8.2253    0.0000 </r>
       <r>    8.6904    0.0000 </r>
       <r>    8.7046    0.0000 </r>
       <r>    8.7795    0.0000 </r>
       <r>    9.6168    0.0000 </r>
       <r>    9.6505    0.0000 </r>
       <r>   10.2687    0.0000 </r>
       <r>   10.8286    0.0000 </r>
       <r>   11.2044    0.0000 </r>
      </set>
      <set comment="kpoint 15">
       <r>  -55.3577    1.0000 </r>
       <r>  -55.3321    1.0000 </r>
       <r>  -54.6338    1.0000 </r>
       <r>  -54.6208    1.0000 </r>
       <r>  -54.2519    1.0000 </r>
       <r>  -54.2350    1.0000 </r>
       <r>  -31.1332    1.0000 </r>
       <r>  -31.0785    1.0000 </r>
       <r>  -29.5318    1.0000 </r>
       <r>  -29.2524    1.0000 </r>
       <r>  -28.7081    1.0000 </r>
       <r>  -28.5447    1.0000 </r>
       <r>  -28.4024    1.0000 </r>
       <r>  -28.3793    1.0000 </r>
       <r>  -28.3638    1.0000 </r>
       <r>  -28.3356    1.0000 </r>
       <r>  -28.0786    1.0000 </r>
       <r>  -27.9386    1.0000 </r>
       <r>  -27.8811    1.0000 </r>
       <r>  -27.8733    1.0000 </r>
       <r>  -27.6103    1.0000 </r>
       <r>  -27.5999    1.0000 </r>
       <r>  -26.1970    1.0000 </r>
       <r>  -26.1242    1.0000 </r>
       <r>   -0.3541    1.0000 </r>
       <r>   -0.3059    1.0000 </r>
       <r>    0.1242    1.0000 </r>
       <r>    1.3953    1.0000 </r>
       <r>    1.4367    1.0000 </r>
       <r>    1.5366    1.0000 </r>
       <r>    2.7330    1.0000 </r>
       <r>    2.8344    1.0000 </r>
       <r>    2.9367    1.0000 </r>
       <r>    3.0996    1.0000 </r>
       <r>    3.6373    1.0000 </r>
       <r>    3.8256    1.0000 </r>
       <r>    4.1076    1.0000 </r>
       <r>    4.1242    1.0000 </r>
       <r>    4.4856    1.0000 </r>
       <r>    5.4533    1.0000 </r>
       <r>    5.5058    1.0000 </r>
       <r>    5.6607    1.0000 </r>
       <r>    5.6877    1.0000 </r>
       <r>    6.2007    1.0000 </r>
       <r>    6.6775    1.0000 </r>
       <r>    6.7018    1.0000 </r>
       <r>    7.1683    1.0000 </r>
       <r>    7.3459    1.0000 </r>
       <r>    7.8429    0.0000 </r>
       <r>    7.9667    0.0000 </r>
       <r>    8.0371    0.0000 </r>
       <r>    8.2353    0.0000 </r>
       <r>    8.9265    0.0000 </r>
       <r>    9.0166    0.0000 </r>
       <r>    9.3956    0.0000 </r>
       <r>    9.7096    0.0000 </r>
       <r>    9.8484    0.0000 </r>
       <r>   10.2703    0.0000 </r>
       <r>   10.5017    0.0000 </r>
       <r>   10.6107    0.0000 </r>
      </set>
      <set comment="kpoint 16">
       <r>  -55.3551    1.0000 </r>
       <r>  -55.3348    1.0000 </r>
       <r>  -54.6293    1.0000 </r>
       <r>  -54.6246    1.0000 </r>
       <r>  -54.2583    1.0000 </r>
       <r>  -54.2291    1.0000 </r>
       <r>  -31.1340    1.0000 </r>
       <r>  -31.0777    1.0000 </r>
       <r>  -29.5311    1.0000 </r>
       <r>  -29.2542    1.0000 </r>
       <r>  -28.7044    1.0000 </r>
       <r>  -28.5473    1.0000 </r>
       <r>  -28.3967    1.0000 </r>
       <r>  -28.3851    1.0000 </r>
       <r>  -28.3508    1.0000 </r>
       <r>  -28.3488    1.0000 </r>
       <r>  -28.0782    1.0000 </r>
       <r>  -27.9386    1.0000 </r>
       <r>  -27.8772    1.0000 </r>
       <r>  -27.8766    1.0000 </r>
       <r>  -27.6162    1.0000 </r>
       <r>  -27.5945    1.0000 </r>
       <r>  -26.1976    1.0000 </r>
       <r>  -26.1236    1.0000 </r>
       <r>   -0.5893    1.0000 </r>
       <r>   -0.1311    1.0000 </r>
       <r>    0.1559    1.0000 </r>
       <r>    1.3608    1.0000 </r>
       <r>    1.5263    1.0000 </r>
       <r>    1.6149    1.0000 </r>
       <r>    2.7300    1.0000 </r>
       <r>    2.8353    1.0000 </r>
       <r>    2.9800    1.0000 </r>
       <r>    3.0808    1.0000 </r>
       <r>    3.6067    1.0000 </r>
       <r>    3.6205    1.0000 </r>
       <r>    4.1891    1.0000 </r>
       <r>    4.2048    1.0000 </r>
       <r>    4.4360    1.0000 </r>
       <r>    5.3839    1.0000 </r>
       <r>    5.4590    1.0000 </r>
       <r>    5.6449    1.0000 </r>
       <r>    5.7075    1.0000 </r>
       <r>    6.2041    1.0000 </r>
       <r>    6.7154    1.0000 </r>
       <r>    6.7212    1.0000 </r>
       <r>    7.3034    1.0000 </r>
       <r>    7.3775    1.0000 </r>
       <r>    7.7972    0.0000 </r>
       <r>    7.8680    0.0000 </r>
       <r>    8.1310    0.0000 </r>
       <r>    8.3846    0.0000 </r>
       <r>    8.8406    0.0000 </r>
       <r>    8.8961    0.0000 </r>
       <r>    9.6396    0.0000 </r>
       <r>    9.7612    0.0000 </r>
       <r>    9.9260    0.0000 </r>
       <r>   10.1352    0.0000 </r>
       <r>   10.3206    0.0000 </r>
       <r>   10.5761    0.0000 </r>
      </set>
      <set comment="kpoint 17">
       <r>  -55.5172    1.0000 </r>
       <r>  -55.0923    1.0000 </r>
       <r>  -54.6275    1.0000 </r>
       <r>  -54.5860    1.0000 </r>
       <r>  -54.5328    1.0000 </r>
       <r>  -54.0755    1.0000 </r>
       <r>  -31.1627    1.0000 </r>
       <r>  -31.0070    1.0000 </r>
       <r>  -29.7876    1.0000 </r>
       <r>  -29.1369    1.0000 </r>
       <r>  -28.7055    1.0000 </r>
       <r>  -28.6136    1.0000 </r>
       <r>  -28.5208    1.0000 </r>
       <r>  -28.3599    1.0000 </r>
       <r>  -28.2125    1.0000 </r>
       <r>  -28.1997    1.0000 </r>
       <r>  -28.1231    1.0000 </r>
       <r>  -27.8835    1.0000 </r>
       <r>  -27.8404    1.0000 </r>
       <r>  -27.8123    1.0000 </r>
       <r>  -27.7333    1.0000 </r>
       <r>  -27.4898    1.0000 </r>
       <r>  -26.3256    1.0000 </r>
       <r>  -26.1121    1.0000 </r>
       <r>   -1.8835    1.0000 </r>
       <r>    0.1823    1.0000 </r>
       <r>    0.8794    1.0000 </r>
       <r>    1.1268    1.0000 </r>
       <r>    1.6504    1.0000 </r>
       <r>    1.9295    1.0000 </r>
       <r>    2.3438    1.0000 </r>
       <r>    2.5208    1.0000 </r>
       <r>    3.2267    1.0000 </r>
       <r>    3.2284    1.0000 </r>
       <r>    3.3266    1.0000 </r>
       <r>    3.6703    1.0000 </r>
       <r>    3.8853    1.0000 </r>
       <r>    4.3617    1.0000 </r>
       <r>    4.8479    1.0000 </r>
       <r>    5.8169    1.0000 </r>
       <r>    6.0389    1.0000 </r>
       <r>    6.0828    1.0000 </r>
       <r>    6.6198    1.0000 </r>
       <r>    7.1682    1.0000 </r>
       <r>    7.2596    1.0000 </r>
       <r>    7.3073    1.0000 </r>
       <r>    7.5123    1.0000 </r>
       <r>    7.5339    0.9999 </r>
       <r>    7.6566    0.0000 </r>
       <r>    7.8589    0.0000 </r>
       <r>    7.9540    0.0000 </r>
       <r>    8.1230    0.0000 </r>
       <r>    8.3674    0.0000 </r>
       <r>    8.3680    0.0000 </r>
       <r>    8.4688    0.0000 </r>
       <r>    8.9029    0.0000 </r>
       <r>    9.1709    0.0000 </r>
       <r>   10.3153    0.0000 </r>
       <r>   10.6313    0.0000 </r>
       <r>   11.1908    0.0000 </r>
      </set>
      <set comment="kpoint 18">
       <r>  -55.4755    1.0000 </r>
       <r>  -55.1835    1.0000 </r>
       <r>  -54.6238    1.0000 </r>
       <r>  -54.5912    1.0000 </r>
       <r>  -54.4351    1.0000 </r>
       <r>  -54.1223    1.0000 </r>
       <r>  -31.1027    1.0000 </r>
       <r>  -30.7744    1.0000 </r>
       <r>  -30.2207    1.0000 </r>
       <r>  -29.4739    1.0000 </r>
       <r>  -28.5847    1.0000 </r>
       <r>  -28.4915    1.0000 </r>
       <r>  -28.4891    1.0000 </r>
       <r>  -28.3355    1.0000 </r>
       <r>  -28.2696    1.0000 </r>
       <r>  -28.2317    1.0000 </r>
       <r>  -27.9884    1.0000 </r>
       <r>  -27.8792    1.0000 </r>
       <r>  -27.8456    1.0000 </r>
       <r>  -27.7411    1.0000 </r>
       <r>  -27.5218    1.0000 </r>
[...]
       <r>    1.1968    1.0000 </r>
       <r>    1.2946    1.0000 </r>
       <r>    1.8627    1.0000 </r>
       <r>    2.1078    1.0000 </r>
       <r>    2.2547    1.0000 </r>
       <r>    2.6443    1.0000 </r>
       <r>    2.6595    1.0000 </r>
       <r>    3.3350    1.0000 </r>
       <r>    3.8353    1.0000 </r>
       <r>    4.0219    1.0000 </r>
       <r>    5.0465    1.0000 </r>
       <r>    5.5121    1.0000 </r>
       <r>    5.5992    1.0000 </r>
       <r>    5.9405    1.0000 </r>
       <r>    6.0224    1.0000 </r>
       <r>    6.2193    1.0000 </r>
       <r>    6.4336    1.0000 </r>
       <r>    6.6219    1.0000 </r>
       <r>    7.2929    1.0000 </r>
       <r>    7.3171    1.0000 </r>
       <r>    7.4188    1.0000 </r>
       <r>    7.9111    0.0000 </r>
       <r>    8.1064    0.0000 </r>
       <r>    8.2193    0.0000 </r>
       <r>    8.2744    0.0000 </r>
       <r>    8.6847    0.0000 </r>
       <r>    8.7307    0.0000 </r>
       <r>    9.0531    0.0000 </r>
       <r>    9.4649    0.0000 </r>
       <r>    9.7773    0.0000 </r>
       <r>   10.2074    0.0000 </r>
       <r>   10.3527    0.0000 </r>
       <r>   10.6021    0.0000 </r>
      </set>
      <set comment="kpoint 116">
       <r>  -55.5333    1.0000 </r>
       <r>  -55.0451    1.0000 </r>
       <r>  -54.6176    1.0000 </r>
       <r>  -54.5940    1.0000 </r>
       <r>  -54.5844    1.0000 </r>
       <r>  -54.0568    1.0000 </r>
       <r>  -31.1659    1.0000 </r>
       <r>  -31.1142    1.0000 </r>
       <r>  -29.4433    1.0000 </r>
       <r>  -29.1205    1.0000 </r>
       <r>  -28.7024    1.0000 </r>
       <r>  -28.6338    1.0000 </r>
       <r>  -28.5378    1.0000 </r>
       <r>  -28.4715    1.0000 </r>
       <r>  -28.2044    1.0000 </r>
       <r>  -28.1610    1.0000 </r>
       <r>  -28.1162    1.0000 </r>
       <r>  -28.0128    1.0000 </r>
       <r>  -27.8729    1.0000 </r>
       <r>  -27.8556    1.0000 </r>
       <r>  -27.8411    1.0000 </r>
       <r>  -27.4776    1.0000 </r>
       <r>  -26.1815    1.0000 </r>
       <r>  -26.1099    1.0000 </r>
       <r>   -1.6523    1.0000 </r>
       <r>    0.4509    1.0000 </r>
       <r>    0.8458    1.0000 </r>
       <r>    1.1870    1.0000 </r>
       <r>    1.4251    1.0000 </r>
       <r>    1.8613    1.0000 </r>
       <r>    2.1027    1.0000 </r>
       <r>    2.2489    1.0000 </r>
       <r>    2.6182    1.0000 </r>
       <r>    2.6352    1.0000 </r>
       <r>    3.2429    1.0000 </r>
       <r>    3.8654    1.0000 </r>
       <r>    3.9118    1.0000 </r>
       <r>    5.1060    1.0000 </r>
       <r>    5.6583    1.0000 </r>
       <r>    5.7143    1.0000 </r>
       <r>    5.9191    1.0000 </r>
       <r>    5.9412    1.0000 </r>
       <r>    6.0761    1.0000 </r>
       <r>    6.3325    1.0000 </r>
       <r>    6.6011    1.0000 </r>
       <r>    7.2895    1.0000 </r>
       <r>    7.3052    1.0000 </r>
       <r>    7.4168    1.0000 </r>
       <r>    7.9096    0.0000 </r>
       <r>    8.1067    0.0000 </r>
       <r>    8.2372    0.0000 </r>
       <r>    8.2774    0.0000 </r>
       <r>    8.7459    0.0000 </r>
       <r>    8.7472    0.0000 </r>
       <r>    9.1456    0.0000 </r>
       <r>    9.4806    0.0000 </r>
       <r>    9.6673    0.0000 </r>
       <r>   10.2842    0.0000 </r>
       <r>   10.6426    0.0000 </r>
       <r>   10.6520    0.0000 </r>
      </set>
     </set>
    </set>
   </array>
  </eigenvalues>
  <separator name="orbital magnetization" >
   <v name="MAGDIPOLOUT">      0.00000000      0.00000000      0.00000000</v>
  </separator>
  <dos>
   <i name="efermi">      7.58816099 </i>
   <total>
    <array>
     <dimension dim="1">gridpoints</dimension>
     <dimension dim="2">spin</dimension>
     <field>energy</field>
     <field>total</field>
     <field>integrated</field>
     <set>
      <set comment="spin 1">
       <r>   -58.8904     0.0000     0.0000 </r>
       <r>   -58.6448     0.0000     0.0000 </r>
       <r>   -58.3992     0.0000     0.0000 </r>
       <r>   -58.1536     0.0000     0.0000 </r>
       <r>   -57.9081     0.0000     0.0000 </r>
       <r>   -57.6625     0.0000     0.0000 </r>
       <r>   -57.4169     0.0000     0.0000 </r>
       <r>   -57.1713     0.0000     0.0000 </r>
       <r>   -56.9257     0.0000     0.0000 </r>
       <r>   -56.6801     0.0000     0.0000 </r>
       <r>   -56.4345     0.0000     0.0000 </r>
       <r>   -56.1890     0.0000     0.0000 </r>
       <r>   -55.9434     0.0000     0.0000 </r>
       <r>   -55.6978     0.0000     0.0000 </r>
       <r>   -55.4522     3.0838     0.7573 </r>
       <r>   -55.2066     6.7659     3.3300 </r>
       <r>   -54.9610     1.1842     4.0000 </r>
       <r>   -54.7154     0.0000     4.0000 </r>
       <r>   -54.4698    17.3605     8.4217 </r>
       <r>   -54.2243     6.4997    10.4075 </r>
       <r>   -53.9787     2.8462    12.0000 </r>
       <r>   -53.7331     0.0000    12.0000 </r>
       <r>   -53.4875     0.0000    12.0000 </r>
       <r>   -53.2419     0.0000    12.0000 </r>
       <r>   -52.9963     0.0000    12.0000 </r>
       <r>   -52.7507     0.0000    12.0000 </r>
       <r>   -52.5052     0.0000    12.0000 </r>
       <r>   -52.2596     0.0000    12.0000 </r>
       <r>   -52.0140     0.0000    12.0000 </r>
       <r>   -51.7684     0.0000    12.0000 </r>
       <r>   -51.5228     0.0000    12.0000 </r>
       <r>   -51.2772     0.0000    12.0000 </r>
       <r>   -51.0316     0.0000    12.0000 </r>
       <r>   -50.7861     0.0000    12.0000 </r>
       <r>   -50.5405     0.0000    12.0000 </r>
       <r>   -50.2949     0.0000    12.0000 </r>
       <r>   -50.0493     0.0000    12.0000 </r>
       <r>   -49.8037     0.0000    12.0000 </r>
       <r>   -49.5581     0.0000    12.0000 </r>
       <r>   -49.3125     0.0000    12.0000 </r>
       <r>   -49.0669     0.0000    12.0000 </r>
       <r>   -48.8214     0.0000    12.0000 </r>
       <r>   -48.5758     0.0000    12.0000 </r>
       <r>   -48.3302     0.0000    12.0000 </r>
       <r>   -48.0846     0.0000    12.0000 </r>
       <r>   -47.8390     0.0000    12.0000 </r>
       <r>   -47.5934     0.0000    12.0000 </r>
       <r>   -47.3478     0.0000    12.0000 </r>
       <r>   -47.1023     0.0000    12.0000 </r>
       <r>   -46.8567     0.0000    12.0000 </r>
       <r>   -46.6111     0.0000    12.0000 </r>
       <r>   -46.3655     0.0000    12.0000 </r>
       <r>   -46.1199     0.0000    12.0000 </r>
       <r>   -45.8743     0.0000    12.0000 </r>
       <r>   -45.6287     0.0000    12.0000 </r>
       <r>   -45.3832     0.0000    12.0000 </r>
       <r>   -45.1376     0.0000    12.0000 </r>
       <r>   -44.8920     0.0000    12.0000 </r>
       <r>   -44.6464     0.0000    12.0000 </r>
       <r>   -44.4008     0.0000    12.0000 </r>
       <r>   -44.1552     0.0000    12.0000 </r>
       <r>   -43.9096     0.0000    12.0000 </r>
       <r>   -43.6640     0.0000    12.0000 </r>
       <r>   -43.4185     0.0000    12.0000 </r>
       <r>   -43.1729     0.0000    12.0000 </r>
       <r>   -42.9273     0.0000    12.0000 </r>
       <r>   -42.6817     0.0000    12.0000 </r>
       <r>   -42.4361     0.0000    12.0000 </r>
       <r>   -42.1905     0.0000    12.0000 </r>
       <r>   -41.9449     0.0000    12.0000 </r>
       <r>   -41.6994     0.0000    12.0000 </r>
       <r>   -41.4538     0.0000    12.0000 </r>
       <r>   -41.2082     0.0000    12.0000 </r>
       <r>   -40.9626     0.0000    12.0000 </r>
       <r>   -40.7170     0.0000    12.0000 </r>
       <r>   -40.4714     0.0000    12.0000 </r>
       <r>   -40.2258     0.0000    12.0000 </r>
       <r>   -39.9803     0.0000    12.0000 </r>
       <r>   -39.7347     0.0000    12.0000 </r>
       <r>   -39.4891     0.0000    12.0000 </r>
       <r>   -39.2435     0.0000    12.0000 </r>
       <r>   -38.9979     0.0000    12.0000 </r>
       <r>   -38.7523     0.0000    12.0000 </r>
       <r>   -38.5067     0.0000    12.0000 </r>
       <r>   -38.2612     0.0000    12.0000 </r>
       <r>   -38.0156     0.0000    12.0000 </r>
       <r>   -37.7700     0.0000    12.0000 </r>
       <r>   -37.5244     0.0000    12.0000 </r>
       <r>   -37.2788     0.0000    12.0000 </r>
       <r>   -37.0332     0.0000    12.0000 </r>
       <r>   -36.7876     0.0000    12.0000 </r>
       <r>   -36.5420     0.0000    12.0000 </r>
       <r>   -36.2965     0.0000    12.0000 </r>
       <r>   -36.0509     0.0000    12.0000 </r>
       <r>   -35.8053     0.0000    12.0000 </r>
       <r>   -35.5597     0.0000    12.0000 </r>
       <r>   -35.3141     0.0000    12.0000 </r>
       <r>   -35.0685     0.0000    12.0000 </r>
       <r>   -34.8229     0.0000    12.0000 </r>
       <r>   -34.5774     0.0000    12.0000 </r>
       <r>   -34.3318     0.0000    12.0000 </r>
       <r>   -34.0862     0.0000    12.0000 </r>
       <r>   -33.8406     0.0000    12.0000 </r>
       <r>   -33.5950     0.0000    12.0000 </r>
       <r>   -33.3494     0.0000    12.0000 </r>
       <r>   -33.1038     0.0000    12.0000 </r>
       <r>   -32.8583     0.0000    12.0000 </r>
       <r>   -32.6127     0.0000    12.0000 </r>
       <r>   -32.3671     0.0000    12.0000 </r>
       <r>   -32.1215     0.0000    12.0000 </r>
       <r>   -31.8759     0.0000    12.0000 </r>
       <r>   -31.6303     0.0000    12.0000 </r>
       <r>   -31.3847     0.0000    12.0000 </r>
       <r>   -31.1391     1.7820    12.4376 </r>
       <r>   -30.8936     4.3616    14.6834 </r>
       <r>   -30.6480     3.5031    15.7583 </r>
       <r>   -30.4024     1.1216    16.2040 </r>
       <r>   -30.1568     0.8016    17.1152 </r>
       <r>   -29.9112     2.7427    17.8878 </r>
       <r>   -29.6656     0.8400    18.3491 </r>
       <r>   -29.4200     3.2229    19.2405 </r>
       <r>   -29.1745     1.7658    19.8112 </r>
       <r>   -28.9289     0.0000    20.0000 </r>
       <r>   -28.6833     1.6307    20.4005 </r>
       <r>   -28.4377    16.3981    25.0424 </r>
       <r>   -28.1921    17.9813    31.7884 </r>
       <r>   -27.9465     4.6716    33.3616 </r>
       <r>   -27.7009    10.6199    38.7000 </r>
       <r>   -27.4554    11.4629    42.7590 </r>
       <r>   -27.2098     0.8678    43.0703 </r>
       <r>   -26.9642     0.5897    43.9305 </r>
       <r>   -26.7186     2.6259    44.7163 </r>
       <r>   -26.4730     1.0504    45.2784 </r>
       <r>   -26.2274     1.4989    46.4395 </r>
       <r>   -25.9818     2.5761    48.0000 </r>
       <r>   -25.7362     0.0000    48.0000 </r>
       <r>   -25.4907     0.0000    48.0000 </r>
       <r>   -25.2451     0.0000    48.0000 </r>
       <r>   -24.9995     0.0000    48.0000 </r>
       <r>   -24.7539     0.0000    48.0000 </r>
       <r>   -24.5083     0.0000    48.0000 </r>
       <r>   -24.2627     0.0000    48.0000 </r>
       <r>   -24.0171     0.0000    48.0000 </r>
       <r>   -23.7716     0.0000    48.0000 </r>
       <r>   -23.5260     0.0000    48.0000 </r>
       <r>   -23.2804     0.0000    48.0000 </r>
       <r>   -23.0348     0.0000    48.0000 </r>
       <r>   -22.7892     0.0000    48.0000 </r>
       <r>   -22.5436     0.0000    48.0000 </r>
       <r>   -22.2980     0.0000    48.0000 </r>
       <r>   -22.0525     0.0000    48.0000 </r>
       <r>   -21.8069     0.0000    48.0000 </r>
       <r>   -21.5613     0.0000    48.0000 </r>
       <r>   -21.3157     0.0000    48.0000 </r>
       <r>   -21.0701     0.0000    48.0000 </r>
       <r>   -20.8245     0.0000    48.0000 </r>
       <r>   -20.5789     0.0000    48.0000 </r>
       <r>   -20.3333     0.0000    48.0000 </r>
       <r>   -20.0878     0.0000    48.0000 </r>
       <r>   -19.8422     0.0000    48.0000 </r>
       <r>   -19.5966     0.0000    48.0000 </r>
       <r>   -19.3510     0.0000    48.0000 </r>
       <r>   -19.1054     0.0000    48.0000 </r>
       <r>   -18.8598     0.0000    48.0000 </r>
       <r>   -18.6142     0.0000    48.0000 </r>
       <r>   -18.3687     0.0000    48.0000 </r>
       <r>   -18.1231     0.0000    48.0000 </r>
       <r>   -17.8775     0.0000    48.0000 </r>
       <r>   -17.6319     0.0000    48.0000 </r>
       <r>   -17.3863     0.0000    48.0000 </r>
       <r>   -17.1407     0.0000    48.0000 </r>
       <r>   -16.8951     0.0000    48.0000 </r>
       <r>   -16.6496     0.0000    48.0000 </r>
       <r>   -16.4040     0.0000    48.0000 </r>
       <r>   -16.1584     0.0000    48.0000 </r>
       <r>   -15.9128     0.0000    48.0000 </r>
       <r>   -15.6672     0.0000    48.0000 </r>
       <r>   -15.4216     0.0000    48.0000 </r>
       <r>   -15.1760     0.0000    48.0000 </r>
       <r>   -14.9304     0.0000    48.0000 </r>
       <r>   -14.6849     0.0000    48.0000 </r>
       <r>   -14.4393     0.0000    48.0000 </r>
       <r>   -14.1937     0.0000    48.0000 </r>
       <r>   -13.9481     0.0000    48.0000 </r>
       <r>   -13.7025     0.0000    48.0000 </r>
       <r>   -13.4569     0.0000    48.0000 </r>
       <r>   -13.2113     0.0000    48.0000 </r>
       <r>   -12.9658     0.0000    48.0000 </r>
       <r>   -12.7202     0.0000    48.0000 </r>
       <r>   -12.4746     0.0000    48.0000 </r>
       <r>   -12.2290     0.0000    48.0000 </r>
       <r>   -11.9834     0.0000    48.0000 </r>
       <r>   -11.7378     0.0000    48.0000 </r>
       <r>   -11.4922     0.0000    48.0000 </r>
       <r>   -11.2467     0.0000    48.0000 </r>
       <r>   -11.0011     0.0000    48.0000 </r>
       <r>   -10.7555     0.0000    48.0000 </r>
       <r>   -10.5099     0.0000    48.0000 </r>
       <r>   -10.2643     0.0000    48.0000 </r>
       <r>   -10.0187     0.0000    48.0000 </r>
       <r>    -9.7731     0.0000    48.0000 </r>
       <r>    -9.5275     0.0000    48.0000 </r>
       <r>    -9.2820     0.0000    48.0000 </r>
       <r>    -9.0364     0.0000    48.0000 </r>
       <r>    -8.7908     0.0000    48.0000 </r>
       <r>    -8.5452     0.0000    48.0000 </r>
       <r>    -8.2996     0.0000    48.0000 </r>
       <r>    -8.0540     0.0000    48.0000 </r>
       <r>    -7.8084     0.0000    48.0000 </r>
       <r>    -7.5629     0.0000    48.0000 </r>
       <r>    -7.3173     0.0000    48.0000 </r>
       <r>    -7.0717     0.0000    48.0000 </r>
       <r>    -6.8261     0.0000    48.0000 </r>
       <r>    -6.5805     0.0000    48.0000 </r>
       <r>    -6.3349     0.0000    48.0000 </r>
       <r>    -6.0893     0.0000    48.0000 </r>
       <r>    -5.8438     0.0000    48.0000 </r>
       <r>    -5.5982     0.0000    48.0000 </r>
       <r>    -5.3526     0.0000    48.0000 </r>
       <r>    -5.1070     0.0000    48.0000 </r>
       <r>    -4.8614     0.0000    48.0000 </r>
       <r>    -4.6158     0.0000    48.0000 </r>
       <r>    -4.3702     0.0000    48.0000 </r>
       <r>    -4.1247     0.0000    48.0000 </r>
       <r>    -3.8791     0.0000    48.0000 </r>
       <r>    -3.6335     0.0000    48.0000 </r>
       <r>    -3.3879     0.0000    48.0000 </r>
       <r>    -3.1423     0.0000    48.0000 </r>
       <r>    -2.8967     0.0000    48.0000 </r>
       <r>    -2.6511     0.0000    48.0000 </r>
       <r>    -2.4055     0.0000    48.0000 </r>
       <r>    -2.1600     0.0000    48.0000 </r>
       <r>    -1.9144     0.1973    48.0485 </r>
       <r>    -1.6688     0.5478    48.2417 </r>
       <r>    -1.4232     0.8803    48.5886 </r>
       <r>    -1.1776     1.0217    48.9193 </r>
       <r>    -0.9320     0.6580    49.2585 </r>
       <r>    -0.6864     0.9776    49.6125 </r>
       <r>    -0.4409     1.3774    50.1903 </r>
       <r>    -0.1953     1.0035    50.5526 </r>
       <r>     0.0503     1.5696    51.1865 </r>
       <r>     0.2959     1.7293    51.7104 </r>
       <r>     0.5415     3.0802    52.9350 </r>
       <r>     0.7871     1.5546    53.7338 </r>
       <r>     1.0327     2.8739    54.8997 </r>
       <r>     1.2782     3.3873    56.1482 </r>
       <r>     1.5238     4.5677    57.7544 </r>
       <r>     1.7694     2.0411    58.7717 </r>
       <r>     2.0150     3.6595    59.9548 </r>
       <r>     2.2606     0.5804    60.1629 </r>
       <r>     2.5062     1.4197    60.6548 </r>
       <r>     2.7518     4.1172    61.8989 </r>
       <r>     2.9974     4.8781    63.9429 </r>
       <r>     3.2429     7.5808    66.5964 </r>
       <r>     3.4885     4.6558    68.6485 </r>
       <r>     3.7341     5.0407    70.3196 </r>
       <r>     3.9797     5.2938    72.5144 </r>
       <r>     4.2253     4.0280    74.0964 </r>
       <r>     4.4709     4.9632    75.7801 </r>
       <r>     4.7165     2.4699    76.9025 </r>
       <r>     4.9620     2.5527    77.9534 </r>
       <r>     5.2076     3.0091    78.9839 </r>
       <r>     5.4532     4.3770    80.4831 </r>
       <r>     5.6988     4.5451    82.2540 </r>
       <r>     5.9444     4.5490    83.9539 </r>
       <r>     6.1900     4.5586    85.7879 </r>
       <r>     6.4356     3.0851    87.0995 </r>
       <r>     6.6811     6.1475    89.0863 </r>
       <r>     6.9267     5.1245    90.9575 </r>
       <r>     7.1723     5.1253    92.8556 </r>
       <r>     7.4179     8.4095    95.7693 </r>
       <r>     7.6635     6.8819    98.6901 </r>
       <r>     7.9091     3.7381   100.0762 </r>
       <r>     8.1547     3.8353   101.6766 </r>
       <r>     8.4003     3.4290   103.2197 </r>
       <r>     8.6458     3.7724   104.7887 </r>
       <r>     8.8914     4.4115   106.5324 </r>
       <r>     9.1370     3.9641   108.1776 </r>
       <r>     9.3826     4.6586   109.8124 </r>
       <r>     9.6282     3.9982   111.3186 </r>
       <r>     9.8738     3.1291   112.4827 </r>
       <r>    10.1194     3.1998   113.5307 </r>
       <r>    10.3649     4.6110   115.1018 </r>
       <r>    10.6105     6.3071   117.2275 </r>
       <r>    10.8561     4.2305   118.9522 </r>
       <r>    11.1017     1.4592   119.6798 </r>
       <r>    11.3473     0.5706   119.9769 </r>
       <r>    11.5929     0.0831   120.0000 </r>
       <r>    11.8385     0.0000   120.0000 </r>
       <r>    12.0840     0.0000   120.0000 </r>
       <r>    12.3296     0.0000   120.0000 </r>
       <r>    12.5752     0.0000   120.0000 </r>
       <r>    12.8208     0.0000   120.0000 </r>
       <r>    13.0664     0.0000   120.0000 </r>
       <r>    13.3120     0.0000   120.0000 </r>
       <r>    13.5576     0.0000   120.0000 </r>
       <r>    13.8032     0.0000   120.0000 </r>
       <r>    14.0487     0.0000   120.0000 </r>
       <r>    14.2943     0.0000   120.0000 </r>
       <r>    14.5399     0.0000   120.0000 </r>
       <r>    14.7855     0.0000   120.0000 </r>
      </set>
     </set>
    </array>
   </total>
  </dos>
 </calculation>
 <structure name="finalpos" >
  <crystal>
   <varray name="basis" >
    <v>       5.39738569       0.00000000      -3.19175070 </v>
    <v>      -1.75613821       5.10369972      -3.19175070 </v>
    <v>       0.00000000       0.00000000       6.27049000 </v>
   </varray>
   <i name="volume">    172.73090460 </i>
   <varray name="rec_basis" >
    <v>       0.18527488       0.06375146       0.00000000 </v>
    <v>       0.00000000       0.19593629       0.00000000 </v>
    <v>       0.09430702       0.13218402       0.15947717 </v>
   </varray>
  </crystal>
  <varray name="positions" >
   <v>       0.25000000       0.25000000       0.00000000 </v>
   <v>       0.75000000       0.75000000       0.00000000 </v>
   <v>       0.21596000       0.71596000       0.93191000 </v>
   <v>       0.00000000       0.00000000       0.00000000 </v>
   <v>       0.78404000       0.28404000       0.06809000 </v>
   <v>       0.71596000       0.78404000       0.50000000 </v>
   <v>       0.28404000       0.21596000       0.50000000 </v>
   <v>       0.50000000       0.50000000       0.00000000 </v>
   <v>       0.50000000       0.00000000       0.50000000 </v>
   <v>       0.00000000       0.50000000       0.50000000 </v>
  </varray>
 </structure>
</modeling>
