<?xml version="1.0" encoding="ISO-8859-1"?>
<modeling>
 <generator>
  <i name="program" type="string">vasp </i>
  <i name="version" type="string">6.2.0  </i>
  <i name="subversion" type="string">18Jan21 (build Jan 05 2022 15:41:44) complex                          parallel </i>
  <i name="platform" type="string">LinuxIFC </i>
  <i name="date" type="string">2025 05 07 </i>
  <i name="time" type="string">17:46:19 </i>
 </generator>
 <incar>
  <i type="string" name="SYSTEM">routine with relax: pwdword</i>
  <i type="string" name="PREC">Acc</i>
  <i type="int" name="IALGO">    38</i>
  <i type="string" name="ALGO">A</i>
  <i type="logical" name="ADDGRID"> T  </i>
  <i type="int" name="ICHARG">     2</i>
  <i type="int" name="NELM">   100</i>
  <i type="int" name="NELMIN">     6</i>
  <i name="EDIFF">      0.00000000</i>
  <i type="int" name="NSW">     0</i>
  <i type="int" name="ISIF">    -1</i>
  <i name="ENCUT">    600.00000000</i>
  <i type="logical" name="LREAL"> F  </i>
  <i type="int" name="ISMEAR">     0</i>
  <i name="SIGMA">      0.02000000</i>
  <i type="logical" name="LASPH"> T  </i>
  <i type="string" name="METAGGA">R2SCAN</i>
  <i type="logical" name="LMIXTAU"> F  </i>
 </incar>
 <primitive_cell>
  <structure name="primitive_cell" >
   <crystal>
    <varray name="basis" >
     <v>       5.00588195       0.00000000      -2.68345546 </v>
     <v>      -1.79345634       4.67358197      -2.68345546 </v>
     <v>       0.00000000       0.00000000       5.67977000 </v>
    </varray>
    <i name="volume">    132.88048880 </i>
    <varray name="rec_basis" >
     <v>       0.19976500       0.07665850       0.00000000 </v>
     <v>       0.00000000       0.21396864       0.00000000 </v>
     <v>       0.09438067       0.13730926       0.17606347 </v>
    </varray>
   </crystal>
   <varray name="positions" >
    <v>       0.50000000       0.00000000       0.50000000 </v>
    <v>       0.00000000       0.50000000       0.50000000 </v>
    <v>       0.25000000       0.75000000       0.50000000 </v>
    <v>       0.74574000       0.24574000       0.99148000 </v>
    <v>       0.75000000       0.25000000       0.50000000 </v>
    <v>       0.25426000       0.75426000       0.00852000 </v>
    <v>       0.24574000       0.25426000       0.50000000 </v>
    <v>       0.75426000       0.74574000       0.50000000 </v>
    <v>       0.25000000       0.25000000       1.00000000 </v>
    <v>       0.75000000       0.75000000       1.00000000 </v>
   </varray>
  </structure>
  <varray name="primitive_index" >
   <v type="int" >        1 </v>
   <v type="int" >        2 </v>
   <v type="int" >        3 </v>
   <v type="int" >        4 </v>
   <v type="int" >        5 </v>
   <v type="int" >        6 </v>
   <v type="int" >        7 </v>
   <v type="int" >        8 </v>
   <v type="int" >        9 </v>
   <v type="int" >       10 </v>
  </varray>
 </primitive_cell>
 <kpoints>
  <generation param="Gamma">
   <v type="int" name="divisions">       8        8        9 </v>
   <v name="usershift">      0.00000000       0.00000000       0.00000000 </v>
   <v name="genvec1">      0.12500000       0.00000000       0.00000000 </v>
   <v name="genvec2">      0.00000000       0.12500000       0.00000000 </v>
   <v name="genvec3">      0.00000000       0.00000000       0.11111111 </v>
   <v name="shift">      0.00000000       0.00000000       0.00000000 </v>
  </generation>
  <varray name="kpointlist" >
   <v>       0.00000000       0.00000000       0.00000000 </v>
   <v>       0.12500000       0.00000000       0.00000000 </v>
   <v>       0.25000000       0.00000000       0.00000000 </v>
   <v>       0.37500000       0.00000000       0.00000000 </v>
   <v>       0.50000000       0.00000000       0.00000000 </v>
   <v>       0.12500000       0.12500000       0.00000000 </v>
   <v>       0.25000000       0.12500000       0.00000000 </v>
   <v>       0.37500000       0.12500000       0.00000000 </v>
   <v>       0.50000000       0.12500000       0.00000000 </v>
   <v>      -0.37500000       0.12500000       0.00000000 </v>
   <v>      -0.25000000       0.12500000       0.00000000 </v>
   <v>      -0.12500000       0.12500000       0.00000000 </v>
   <v>       0.25000000       0.25000000       0.00000000 </v>
   <v>       0.37500000       0.25000000       0.00000000 </v>
   <v>       0.50000000       0.25000000       0.00000000 </v>
   <v>      -0.37500000       0.25000000       0.00000000 </v>
   <v>      -0.25000000       0.25000000       0.00000000 </v>
   <v>       0.37500000       0.37500000       0.00000000 </v>
   <v>       0.50000000       0.37500000       0.00000000 </v>
   <v>      -0.37500000       0.37500000       0.00000000 </v>
   <v>       0.50000000       0.50000000       0.00000000 </v>
   <v>       0.00000000       0.00000000       0.11111111 </v>
   <v>       0.12500000       0.00000000       0.11111111 </v>
   <v>       0.25000000      -0.00000000       0.11111111 </v>
   <v>       0.37500000       0.00000000       0.11111111 </v>
   <v>       0.50000000       0.00000000       0.11111111 </v>
   <v>      -0.37500000       0.00000000       0.11111111 </v>
   <v>      -0.25000000       0.00000000       0.11111111 </v>
   <v>      -0.12500000       0.00000000       0.11111111 </v>
   <v>       0.12500000       0.12500000       0.11111111 </v>
   <v>       0.25000000       0.12500000       0.11111111 </v>
   <v>       0.37500000       0.12500000       0.11111111 </v>
   <v>       0.50000000       0.12500000       0.11111111 </v>
   <v>      -0.37500000       0.12500000       0.11111111 </v>
   <v>      -0.25000000       0.12500000       0.11111111 </v>
   <v>      -0.12500000       0.12500000       0.11111111 </v>
   <v>       0.25000000       0.25000000       0.11111111 </v>
   <v>       0.37500000       0.25000000       0.11111111 </v>
   <v>       0.50000000       0.25000000       0.11111111 </v>
   <v>      -0.37500000       0.25000000       0.11111111 </v>
   <v>      -0.25000000       0.25000000       0.11111111 </v>
   <v>      -0.12500000       0.25000000       0.11111111 </v>
   <v>       0.37500000       0.37500000       0.11111111 </v>
   <v>       0.50000000       0.37500000       0.11111111 </v>
   <v>      -0.37500000       0.37500000       0.11111111 </v>
   <v>      -0.25000000       0.37500000       0.11111111 </v>
   <v>      -0.12500000       0.37500000       0.11111111 </v>
   <v>       0.50000000       0.50000000       0.11111111 </v>
   <v>      -0.37500000       0.50000000       0.11111111 </v>
   <v>      -0.25000000       0.50000000       0.11111111 </v>
   <v>      -0.12500000       0.50000000       0.11111111 </v>
   <v>      -0.37500000      -0.37500000       0.11111111 </v>
   <v>      -0.25000000      -0.37500000       0.11111111 </v>
   <v>      -0.12500000      -0.37500000       0.11111111 </v>
   <v>      -0.25000000      -0.25000000       0.11111111 </v>
   <v>      -0.12500000      -0.25000000       0.11111111 </v>
   <v>      -0.12500000      -0.12500000       0.11111111 </v>
   <v>       0.00000000       0.00000000       0.22222222 </v>
   <v>       0.12500000       0.00000000       0.22222222 </v>
   <v>       0.25000000       0.00000000       0.22222222 </v>
   <v>       0.37500000      -0.00000000       0.22222222 </v>
   <v>       0.50000000       0.00000000       0.22222222 </v>
   <v>      -0.37500000      -0.00000000       0.22222222 </v>
   <v>      -0.25000000       0.00000000       0.22222222 </v>
   <v>      -0.12500000       0.00000000       0.22222222 </v>
   <v>       0.12500000       0.12500000       0.22222222 </v>
   <v>       0.25000000       0.12500000       0.22222222 </v>
   <v>       0.37500000       0.12500000       0.22222222 </v>
   <v>       0.50000000       0.12500000       0.22222222 </v>
   <v>      -0.37500000       0.12500000       0.22222222 </v>
   <v>      -0.25000000       0.12500000       0.22222222 </v>
   <v>      -0.12500000       0.12500000       0.22222222 </v>
   <v>       0.25000000       0.25000000       0.22222222 </v>
   <v>       0.37500000       0.25000000       0.22222222 </v>
   <v>       0.50000000       0.25000000       0.22222222 </v>
   <v>      -0.37500000       0.25000000       0.22222222 </v>
   <v>      -0.25000000       0.25000000       0.22222222 </v>
   <v>      -0.12500000       0.25000000       0.22222222 </v>
   <v>       0.37500000       0.37500000       0.22222222 </v>
   <v>       0.50000000       0.37500000       0.22222222 </v>
   <v>      -0.37500000       0.37500000       0.22222222 </v>
   <v>      -0.25000000       0.37500000       0.22222222 </v>
   <v>      -0.12500000       0.37500000       0.22222222 </v>
   <v>       0.50000000       0.50000000       0.22222222 </v>
   <v>      -0.37500000       0.50000000       0.22222222 </v>
   <v>      -0.25000000       0.50000000       0.22222222 </v>
   <v>      -0.12500000       0.50000000       0.22222222 </v>
   <v>      -0.37500000      -0.37500000       0.22222222 </v>
   <v>      -0.25000000      -0.37500000       0.22222222 </v>
   <v>      -0.12500000      -0.37500000       0.22222222 </v>
   <v>      -0.25000000      -0.25000000       0.22222222 </v>
   <v>      -0.12500000      -0.25000000       0.22222222 </v>
   <v>      -0.12500000      -0.12500000       0.22222222 </v>
   <v>      -0.00000000       0.00000000       0.33333333 </v>
   <v>       0.12500000       0.00000000       0.33333333 </v>
   <v>       0.25000000       0.00000000       0.33333333 </v>
   <v>       0.37500000       0.00000000       0.33333333 </v>
   <v>       0.50000000       0.00000000       0.33333333 </v>
   <v>      -0.37500000       0.00000000       0.33333333 </v>
   <v>      -0.25000000       0.00000000       0.33333333 </v>
   <v>      -0.12500000       0.00000000       0.33333333 </v>
   <v>       0.12500000       0.12500000       0.33333333 </v>
   <v>       0.25000000       0.12500000       0.33333333 </v>
   <v>       0.37500000       0.12500000       0.33333333 </v>
   <v>       0.50000000       0.12500000       0.33333333 </v>
   <v>      -0.37500000       0.12500000       0.33333333 </v>
   <v>      -0.25000000       0.12500000       0.33333333 </v>
   <v>      -0.12500000       0.12500000       0.33333333 </v>
   <v>       0.25000000       0.25000000       0.33333333 </v>
   <v>       0.37500000       0.25000000       0.33333333 </v>
   <v>       0.50000000       0.25000000       0.33333333 </v>
   <v>      -0.37500000       0.25000000       0.33333333 </v>
   <v>      -0.25000000       0.25000000       0.33333333 </v>
   <v>      -0.12500000       0.25000000       0.33333333 </v>
   <v>       0.37500000       0.37500000       0.33333333 </v>
   <v>       0.50000000       0.37500000       0.33333333 </v>
   <v>      -0.37500000       0.37500000       0.33333333 </v>
   <v>      -0.25000000       0.37500000       0.33333333 </v>
   <v>      -0.12500000       0.37500000       0.33333333 </v>
   <v>       0.50000000       0.50000000       0.33333333 </v>
   <v>      -0.37500000       0.50000000       0.33333333 </v>
   <v>      -0.25000000       0.50000000       0.33333333 </v>
   <v>      -0.12500000       0.50000000       0.33333333 </v>
   <v>      -0.37500000      -0.37500000       0.33333333 </v>
   <v>      -0.25000000      -0.37500000       0.33333333 </v>
   <v>      -0.12500000      -0.37500000       0.33333333 </v>
   <v>      -0.25000000      -0.25000000       0.33333333 </v>
   <v>      -0.12500000      -0.25000000       0.33333333 </v>
   <v>      -0.12500000      -0.12500000       0.33333333 </v>
   <v>       0.00000000       0.00000000       0.44444444 </v>
   <v>       0.12500000       0.00000000       0.44444444 </v>
   <v>       0.25000000       0.00000000       0.44444444 </v>
   <v>       0.37500000       0.00000000       0.44444444 </v>
   <v>       0.50000000       0.00000000       0.44444444 </v>
   <v>      -0.37500000       0.00000000       0.44444444 </v>
   <v>      -0.25000000       0.00000000       0.44444444 </v>
   <v>      -0.12500000       0.00000000       0.44444444 </v>
   <v>       0.12500000       0.12500000       0.44444444 </v>
   <v>       0.25000000       0.12500000       0.44444444 </v>
   <v>       0.37500000       0.12500000       0.44444444 </v>
   <v>       0.50000000       0.12500000       0.44444444 </v>
   <v>      -0.37500000       0.12500000       0.44444444 </v>
   <v>      -0.25000000       0.12500000       0.44444444 </v>
   <v>      -0.12500000       0.12500000       0.44444444 </v>
   <v>       0.25000000       0.25000000       0.44444444 </v>
   <v>       0.37500000       0.25000000       0.44444444 </v>
   <v>       0.50000000       0.25000000       0.44444444 </v>
   <v>      -0.37500000       0.25000000       0.44444444 </v>
   <v>      -0.25000000       0.25000000       0.44444444 </v>
   <v>      -0.12500000       0.25000000       0.44444444 </v>
   <v>       0.37500000       0.37500000       0.44444444 </v>
   <v>       0.50000000       0.37500000       0.44444444 </v>
   <v>      -0.37500000       0.37500000       0.44444444 </v>
   <v>      -0.25000000       0.37500000       0.44444444 </v>
   <v>      -0.12500000       0.37500000       0.44444444 </v>
   <v>       0.50000000       0.50000000       0.44444444 </v>
   <v>      -0.37500000       0.50000000       0.44444444 </v>
   <v>      -0.25000000       0.50000000       0.44444444 </v>
   <v>      -0.12500000       0.50000000       0.44444444 </v>
   <v>      -0.37500000      -0.37500000       0.44444444 </v>
   <v>      -0.25000000      -0.37500000       0.44444444 </v>
   <v>      -0.12500000      -0.37500000       0.44444444 </v>
   <v>      -0.25000000      -0.25000000       0.44444444 </v>
   <v>      -0.12500000      -0.25000000       0.44444444 </v>
   <v>      -0.12500000      -0.12500000       0.44444444 </v>
  </varray>
  <varray name="weights" >
   <v>       0.00173611 </v>
   <v>       0.00694444 </v>
   <v>       0.00694444 </v>
   <v>       0.00694444 </v>
   <v>       0.00347222 </v>
   <v>       0.00347222 </v>
   <v>       0.00694444 </v>
   <v>       0.00694444 </v>
   <v>       0.00694444 </v>
   <v>       0.00694444 </v>
   <v>       0.00694444 </v>
   <v>       0.00347222 </v>
   <v>       0.00347222 </v>
   <v>       0.00694444 </v>
   <v>       0.00694444 </v>
   <v>       0.00694444 </v>
   <v>       0.00347222 </v>
   <v>       0.00347222 </v>
   <v>       0.00694444 </v>
   <v>       0.00347222 </v>
   <v>       0.00173611 </v>
   <v>       0.00347222 </v>
   <v>       0.00694444 </v>
   <v>       0.00694444 </v>
   <v>       0.00694444 </v>
   <v>       0.00694444 </v>
   <v>       0.00694444 </v>
   <v>       0.00694444 </v>
   <v>       0.00694444 </v>
   <v>       0.00347222 </v>
   <v>       0.00694444 </v>
   <v>       0.00694444 </v>
   <v>       0.00694444 </v>
   <v>       0.00694444 </v>
   <v>       0.00694444 </v>
   <v>       0.00694444 </v>
   <v>       0.00347222 </v>
   <v>       0.00694444 </v>
   <v>       0.00694444 </v>
   <v>       0.00694444 </v>
   <v>       0.00694444 </v>
   <v>       0.00694444 </v>
   <v>       0.00347222 </v>
   <v>       0.00694444 </v>
   <v>       0.00694444 </v>
   <v>       0.00694444 </v>
   <v>       0.00694444 </v>
   <v>       0.00347222 </v>
   <v>       0.00694444 </v>
   <v>       0.00694444 </v>
   <v>       0.00694444 </v>
   <v>       0.00347222 </v>
   <v>       0.00694444 </v>
   <v>       0.00694444 </v>
   <v>       0.00347222 </v>
   <v>       0.00694444 </v>
   <v>       0.00347222 </v>
   <v>       0.00347222 </v>
   <v>       0.00694444 </v>
   <v>       0.00694444 </v>
   <v>       0.00694444 </v>
   <v>       0.00694444 </v>
   <v>       0.00694444 </v>
   <v>       0.00694444 </v>
   <v>       0.00694444 </v>
   <v>       0.00347222 </v>
   <v>       0.00694444 </v>
   <v>       0.00694444 </v>
   <v>       0.00694444 </v>
   <v>       0.00694444 </v>
   <v>       0.00694444 </v>
   <v>       0.00694444 </v>
   <v>       0.00347222 </v>
   <v>       0.00694444 </v>
   <v>       0.00694444 </v>
   <v>       0.00694444 </v>
   <v>       0.00694444 </v>
   <v>       0.00694444 </v>
   <v>       0.00347222 </v>
   <v>       0.00694444 </v>
   <v>       0.00694444 </v>
   <v>       0.00694444 </v>
   <v>       0.00694444 </v>
   <v>       0.00347222 </v>
   <v>       0.00694444 </v>
   <v>       0.00694444 </v>
   <v>       0.00694444 </v>
   <v>       0.00347222 </v>
   <v>       0.00694444 </v>
   <v>       0.00694444 </v>
   <v>       0.00347222 </v>
   <v>       0.00694444 </v>
   <v>       0.00347222 </v>
   <v>       0.00347222 </v>
   <v>       0.00694444 </v>
   <v>       0.00694444 </v>
   <v>       0.00694444 </v>
   <v>       0.00694444 </v>
   <v>       0.00694444 </v>
   <v>       0.00694444 </v>
   <v>       0.00694444 </v>
   <v>       0.00347222 </v>
   <v>       0.00694444 </v>
   <v>       0.00694444 </v>
   <v>       0.00694444 </v>
   <v>       0.00694444 </v>
   <v>       0.00694444 </v>
   <v>       0.00694444 </v>
   <v>       0.00347222 </v>
   <v>       0.00694444 </v>
   <v>       0.00694444 </v>
   <v>       0.00694444 </v>
   <v>       0.00694444 </v>
   <v>       0.00694444 </v>
   <v>       0.00347222 </v>
   <v>       0.00694444 </v>
   <v>       0.00694444 </v>
   <v>       0.00694444 </v>
   <v>       0.00694444 </v>
   <v>       0.00347222 </v>
   <v>       0.00694444 </v>
   <v>       0.00694444 </v>
   <v>       0.00694444 </v>
   <v>       0.00347222 </v>
   <v>       0.00694444 </v>
   <v>       0.00694444 </v>
   <v>       0.00347222 </v>
   <v>       0.00694444 </v>
   <v>       0.00347222 </v>
   <v>       0.00347222 </v>
   <v>       0.00694444 </v>
   <v>       0.00694444 </v>
   <v>       0.00694444 </v>
   <v>       0.00694444 </v>
   <v>       0.00694444 </v>
   <v>       0.00694444 </v>
   <v>       0.00694444 </v>
   <v>       0.00347222 </v>
   <v>       0.00694444 </v>
   <v>       0.00694444 </v>
   <v>       0.00694444 </v>
   <v>       0.00694444 </v>
   <v>       0.00694444 </v>
   <v>       0.00694444 </v>
   <v>       0.00347222 </v>
   <v>       0.00694444 </v>
   <v>       0.00694444 </v>
   <v>       0.00694444 </v>
   <v>       0.00694444 </v>
   <v>       0.00694444 </v>
   <v>       0.00347222 </v>
   <v>       0.00694444 </v>
   <v>       0.00694444 </v>
   <v>       0.00694444 </v>
   <v>       0.00694444 </v>
   <v>       0.00347222 </v>
   <v>       0.00694444 </v>
   <v>       0.00694444 </v>
   <v>       0.00694444 </v>
   <v>       0.00347222 </v>
   <v>       0.00694444 </v>
   <v>       0.00694444 </v>
   <v>       0.00347222 </v>
   <v>       0.00694444 </v>
   <v>       0.00347222 </v>
  </varray>
 </kpoints>
 <parameters>
  <separator name="general" >
   <i type="string" name="SYSTEM">routine with relax: pwdword</i>
   <i type="logical" name="LCOMPAT"> F  </i>
  </separator>
  <separator name="electronic" >
   <i type="string" name="PREC">acc</i>
   <i name="ENMAX">    600.00000000</i>
   <i name="ENAUG">    535.51400000</i>
   <i name="EDIFF">      0.00000000</i>
   <i type="int" name="IALGO">    58</i>
   <i type="int" name="IWAVPR">    10</i>
   <i type="int" name="NBANDS">    60</i>
   <i type="int" name="NBANDSLOW">    -1</i>
   <i type="int" name="NBANDSHIGH">    -1</i>
   <i name="NELECT">     98.00000000</i>
   <i type="int" name="TURBO">     0</i>
   <i type="int" name="IRESTART">     0</i>
   <i type="int" name="NREBOOT">     0</i>
   <i type="int" name="NMIN">     0</i>
   <i name="EREF">      0.00000000</i>
   <separator name="electronic smearing" >
    <i type="int" name="ISMEAR">     0</i>
    <i name="SIGMA">      0.02000000</i>
    <i name="KSPACING">      0.50000000</i>
    <i type="logical" name="KGAMMA"> T  </i>
    <i type="logical" name="KBLOWUP"> F  </i>
   </separator>
   <separator name="electronic projectors" >
    <i type="logical" name="LREAL"> F  </i>
    <v name="ROPT">      0.00000000      0.00000000      0.00000000</v>
    <i type="int" name="LMAXPAW">  -100</i>
    <i type="int" name="LMAXMIX">     2</i>
    <i type="logical" name="NLSPLINE"> F  </i>
   </separator>
   <separator name="electronic startup" >
    <i type="int" name="ISTART">     0</i>
    <i type="int" name="ICHARG">     2</i>
    <i type="int" name="INIWAV">     1</i>
   </separator>
   <separator name="electronic spin" >
    <i type="int" name="ISPIN">     1</i>
    <i type="logical" name="LNONCOLLINEAR"> F  </i>
    <v name="MAGMOM">      1.00000000      1.00000000      1.00000000      1.00000000      1.00000000      1.00000000      1.00000000      1.00000000      1.00000000      1.00000000</v>
    <i name="NUPDOWN">     -1.00000000</i>
    <i type="logical" name="LSORBIT"> F  </i>
    <v name="SAXIS">      0.00000000      0.00000000      1.00000000</v>
    <i type="logical" name="LSPIRAL"> F  </i>
    <v name="QSPIRAL">      0.00000000      0.00000000      0.00000000</v>
    <i type="logical" name="LZEROZ"> F  </i>
   </separator>
   <separator name="electronic exchange-correlation" >
    <i type="logical" name="LASPH"> T  </i>
    <i type="logical" name="LMETAGGA"> F  </i>
   </separator>
   <separator name="electronic convergence" >
    <i type="int" name="NELM">   100</i>
    <i type="int" name="NELMDL">    -5</i>
    <i type="int" name="NELMIN">     6</i>
    <i name="ENINI">    600.00000000</i>
    <separator name="electronic convergence detail" >
     <i type="logical" name="LDIAG"> T  </i>
     <i type="logical" name="LSUBROT"> F  </i>
     <i name="WEIMIN">      0.00000000</i>
     <i name="EBREAK">      0.00000000</i>
     <i name="DEPER">      0.30000000</i>
     <i type="int" name="NRMM">     4</i>
     <i name="TIME">      0.40000000</i>
    </separator>
   </separator>
   <separator name="electronic mixer" >
    <i name="AMIX">      0.40000000</i>
    <i name="BMIX">      1.00000000</i>
    <i name="AMIN">      0.10000000</i>
    <i name="AMIX_MAG">      1.60000000</i>
    <i name="BMIX_MAG">      1.00000000</i>
    <separator name="electronic mixer details" >
     <i type="int" name="IMIX">     4</i>
     <i type="logical" name="MIXFIRST"> F  </i>
     <i type="int" name="MAXMIX">   -45</i>
     <i name="WC">    100.00000000</i>
     <i type="int" name="INIMIX">     1</i>
     <i type="int" name="MIXPRE">     1</i>
     <i type="int" name="MREMOVE">     5</i>
    </separator>
   </separator>
   <separator name="electronic dipolcorrection" >
    <i type="logical" name="LDIPOL"> F  </i>
    <i type="logical" name="LMONO"> F  </i>
    <i type="int" name="IDIPOL">     0</i>
    <i name="EPSILON">      1.00000000</i>
    <v name="DIPOL">   -100.00000000   -100.00000000   -100.00000000</v>
    <i name="EFIELD">      0.00000000</i>
   </separator>
  </separator>
  <separator name="grids" >
   <i type="int" name="NGX">    48</i>
   <i type="int" name="NGY">    48</i>
   <i type="int" name="NGZ">    48</i>
   <i type="int" name="NGXF">    96</i>
   <i type="int" name="NGYF">    96</i>
   <i type="int" name="NGZF">    96</i>
   <i type="logical" name="ADDGRID"> T  </i>
  </separator>
  <separator name="ionic" >
   <i type="int" name="NSW">     0</i>
   <i type="int" name="IBRION">    -1</i>
   <i type="int" name="MDALGO">     0</i>
   <i type="int" name="ISIF">    -1</i>
   <i name="PSTRESS">      0.00000000</i>
   <i name="EDIFFG">      0.00000001</i>
   <i type="int" name="NFREE">     0</i>
   <i name="POTIM">      0.50000000</i>
   <i name="SMASS">     -3.00000000</i>
   <i name="SCALEE">      1.00000000</i>
  </separator>
  <separator name="ionic md" >
   <i name="TEBEG">      0.00010000</i>
   <i name="TEEND">      0.00010000</i>
   <i type="int" name="NBLOCK">     1</i>
   <i type="int" name="KBLOCK">     1</i>
   <i type="int" name="NPACO">   256</i>
   <i name="APACO">     16.00000000</i>
  </separator>
  <separator name="symmetry" >
   <i type="int" name="ISYM">     2</i>
   <i name="SYMPREC">      0.00001000</i>
  </separator>
  <separator name="dos" >
   <i type="int" name="LORBIT">     0</i>
   <v name="RWIGS">     -1.00000000     -1.00000000     -1.00000000</v>
   <i type="int" name="NEDOS">   301</i>
   <i name="EMIN">     10.00000000</i>
   <i name="EMAX">    -10.00000000</i>
   <i name="EFERMI">      0.00000000</i>
  </separator>
  <separator name="writing" >
   <i type="int" name="NWRITE">     2</i>
   <i type="logical" name="LWAVE"> T  </i>
   <i type="logical" name="LDOWNSAMPLE"> F  </i>
   <i type="logical" name="LCHARG"> T  </i>
   <i type="logical" name="LPARD"> F  </i>
   <i type="logical" name="LVTOT"> F  </i>
   <i type="logical" name="LVHAR"> F  </i>
   <i type="logical" name="LELF"> F  </i>
   <i type="logical" name="LOPTICS"> F  </i>
   <v name="STM">      0.00000000      0.00000000      0.00000000      0.00000000      0.00000000      0.00000000      0.00000000</v>
  </separator>
  <separator name="performance" >
   <i type="int" name="NPAR">     6</i>
   <i type="int" name="NSIM">     4</i>
   <i type="int" name="NBLK">    -1</i>
   <i type="logical" name="LPLANE"> T  </i>
   <i type="logical" name="LSCALAPACK"> T  </i>
   <i type="logical" name="LSCAAWARE"> F  </i>
   <i type="logical" name="LSCALU"> F  </i>
   <i type="logical" name="LASYNC"> F  </i>
   <i type="logical" name="LORBITALREAL"> F  </i>
  </separator>
  <separator name="miscellaneous" >
   <i type="int" name="IDIOT">     3</i>
   <i type="int" name="PHON_NSTRUCT">    -1</i>
   <i type="logical" name="LMUSIC"> F  </i>
   <v name="POMASS">     10.81100000     95.94000000     28.08500000</v>
   <v name="DARWINR">      0.00000000      0.00000000      0.00000000</v>
   <v name="DARWINV">      1.00000000      1.00000000      1.00000000</v>
   <i type="logical" name="LCORR"> T  </i>
  </separator>
  <i type="logical" name="GGA_COMPAT"> T  </i>
  <i type="logical" name="LBERRY"> F  </i>
  <i type="int" name="ICORELEVEL">     0</i>
  <i type="logical" name="LDAU"> F  </i>
  <i type="int" name="I_CONSTRAINED_M">     0</i>
  <separator name="electronic exchange-correlation" >
   <i type="string" name="GGA">--</i>
   <i type="int" name="VOSKOWN">     0</i>
   <i type="logical" name="LHFCALC"> F  </i>
   <i type="string" name="PRECFOCK"></i>
   <i type="logical" name="LSYMGRAD"> F  </i>
   <i type="logical" name="LHFONE"> F  </i>
   <i type="logical" name="LRHFCALC"> F  </i>
   <i type="logical" name="LTHOMAS"> F  </i>
   <i type="logical" name="LMODELHF"> F  </i>
   <i type="logical" name="LFOCKACE"> F  </i>
   <i name="ENCUT4O">     -1.00000000</i>
   <i type="int" name="EXXOEP">     0</i>
   <i type="int" name="FOURORBIT">     0</i>
   <i name="AEXX">      0.00000000</i>
   <i name="HFALPHA">      0.00000000</i>
   <i name="MCALPHA">      0.00000000</i>
   <i name="ALDAX">      1.00000000</i>
   <i name="AGGAX">      1.00000000</i>
   <i name="ALDAC">      1.00000000</i>
   <i name="AGGAC">      1.00000000</i>
   <i type="int" name="NKREDX">     1</i>
   <i type="int" name="NKREDY">     1</i>
   <i type="int" name="NKREDZ">     1</i>
   <i type="logical" name="SHIFTRED"> F  </i>
   <i type="logical" name="ODDONLY"> F  </i>
   <i type="logical" name="EVENONLY"> F  </i>
   <i type="int" name="LMAXFOCK">     0</i>
   <i type="int" name="NMAXFOCKAE">     0</i>
   <i type="logical" name="LFOCKAEDFT"> F  </i>
   <i name="HFSCREEN">      0.00000000</i>
   <i name="HFSCREENC">      0.00000000</i>
   <i type="int" name="NBANDSGWLOW">     0</i>
  </separator>
  <separator name="vdW DFT" >
   <i type="logical" name="LUSE_VDW"> F  </i>
   <i name="Zab_VDW">     -0.84910000</i>
   <i name="PARAM1">      0.12340000</i>
   <i name="PARAM2">      1.00000000</i>
   <i name="PARAM3">      0.00000000</i>
  </separator>
  <separator name="model GW" >
   <i type="int" name="MODEL_GW">     0</i>
   <i name="MODEL_EPS0">      7.97282933</i>
   <i name="MODEL_ALPHA">      1.00000000</i>
  </separator>
  <separator name="linear response parameters" >
   <i type="logical" name="LEPSILON"> F  </i>
   <i type="logical" name="LRPA"> F  </i>
   <i type="logical" name="LNABLA"> F  </i>
   <i type="logical" name="LVEL"> F  </i>
   <i type="int" name="KINTER">     0</i>
   <i name="CSHIFT">      0.10000000</i>
   <i name="OMEGAMAX">     -1.00000000</i>
   <i name="DEG_THRESHOLD">      0.00200000</i>
   <i name="RTIME">     -0.10000000</i>
   <i name="WPLASMAI">      0.00000000</i>
   <v name="DFIELD">      0.00000000      0.00000000      0.00000000</v>
   <v name="WPLASMA">      0.00000000      0.00000000      0.00000000      0.00000000      0.00000000      0.00000000      0.00000000      0.00000000      0.00000000</v>
  </separator>
  <separator name="orbital magnetization" >
   <i type="logical" name="NUCIND"> F  </i>
   <v name="MAGPOS">      0.00000000      0.00000000      0.00000000</v>
   <i type="logical" name="LNICSALL"> T  </i>
   <i type="logical" name="ORBITALMAG"> F  </i>
   <i type="logical" name="LMAGBLOCH"> F  </i>
   <i type="logical" name="LCHIMAG"> F  </i>
   <i type="logical" name="LGAUGE"> T  </i>
   <i type="int" name="MAGATOM">     0</i>
   <v name="MAGDIPOL">      0.00000000      0.00000000      0.00000000</v>
   <v name="AVECCONST">      0.00000000      0.00000000      0.00000000</v>
  </separator>
  <separator name="response functions" >
   <i type="logical" name="LFINITE_TEMPERATURE"> F  </i>
   <i type="logical" name="LADDER"> F  </i>
   <i type="logical" name="LRPAFORCE"> F  </i>
   <i type="logical" name="LFXC"> F  </i>
   <i type="logical" name="LHARTREE"> T  </i>
   <i type="int" name="IBSE">     0</i>
   <v type="int" name="KPOINT">    -1     0     0     0</v>
   <i type="logical" name="LTCTC"> F  </i>
   <i type="logical" name="LTCTE"> F  </i>
   <i type="logical" name="LTETE"> F  </i>
   <i type="logical" name="LTRIPLET"> F  </i>
   <i type="logical" name="LFXCEPS"> F  </i>
   <i type="logical" name="LFXHEG"> F  </i>
   <i type="int" name="NATURALO">     2</i>
   <i type="logical" name="LHOLEGF"> F  </i>
   <i type="logical" name="L2ORDER"> F  </i>
   <i type="logical" name="LDMP1"> F  </i>
   <i type="logical" name="LMP2LT"> F  </i>
   <i type="logical" name="LSMP2LT"> F  </i>
   <i type="logical" name="LGWLF"> F  </i>
   <i name="ENCUTGW">     -2.00000000</i>
   <i name="ENCUTGWSOFT">     -2.00000000</i>
   <i name="ENCUTLF">     -1.00000000</i>
   <i type="logical" name="LESF_SPLINES"> F  </i>
   <i type="int" name="LMAXMP2">    -1</i>
   <i name="SCISSOR">      0.00000000</i>
   <i type="int" name="NOMEGA">     0</i>
   <i type="int" name="NOMEGAR">     0</i>
   <i type="int" name="NBANDSGW">    -1</i>
   <i type="int" name="NBANDSO">    -1</i>
   <i type="int" name="NBANDSV">    -1</i>
   <i type="int" name="NELM">   100</i>
   <i type="int" name="NELMHF">     1</i>
   <i type="int" name="DIM">     3</i>
   <i type="int" name="IESPILON">     4</i>
   <i type="int" name="ANTIRES">     0</i>
   <i name="OMEGAMAX">    -30.00000000</i>
   <i name="OMEGAMIN">    -30.00000000</i>
   <i name="OMEGATL">   -200.00000000</i>
   <i type="int" name="OMEGAGRID">     0</i>
   <i name="CSHIFT">     -0.10000000</i>
   <i type="logical" name="LSELFENERGY"> F  </i>
   <i type="logical" name="LSPECTRAL"> F  </i>
   <i type="logical" name="LSPECTRALGW"> F  </i>
   <i type="logical" name="LSINGLES"> F  </i>
   <i type="logical" name="LFERMIGW"> F  </i>
   <i type="logical" name="ODDONLYGW"> F  </i>
   <i type="logical" name="EVENONLYGW"> F  </i>
   <i type="int" name="NKREDLFX">     1</i>
   <i type="int" name="NKREDLFY">     1</i>
   <i type="int" name="NKREDLFZ">     1</i>
   <i type="int" name="MAXMEM">  2800</i>
   <i type="int" name="TELESCOPE">     0</i>
   <i type="int" name="NTAUPAR">    -1</i>
   <i type="int" name="NOMEGAPAR">    -1</i>
   <i name="DAMP_NEWTON">      0.80000001</i>
   <i name="LAMBDA">      1.00000000</i>
  </separator>
  <separator name="External order field" >
   <i name="OFIELD_KAPPA">      0.00000000</i>
   <v name="OFIELD_K">      0.00000000      0.00000000      0.00000000</v>
   <i name="OFIELD_Q6_NEAR">      0.00000000</i>
   <i name="OFIELD_Q6_FAR">      0.00000000</i>
   <i name="OFIELD_A">      0.00000000</i>
  </separator>
 </parameters>
 <atominfo>
  <atoms>      10 </atoms>
  <types>       3 </types>
  <array name="atoms" >
   <dimension dim="1">ion</dimension>
   <field type="string">element</field>
   <field type="int">atomtype</field>
   <set>
    <rc><c>B </c><c>   1</c></rc>
    <rc><c>B </c><c>   1</c></rc>
    <rc><c>Mo</c><c>   2</c></rc>
    <rc><c>Mo</c><c>   2</c></rc>
    <rc><c>Mo</c><c>   2</c></rc>
    <rc><c>Mo</c><c>   2</c></rc>
    <rc><c>Mo</c><c>   2</c></rc>
    <rc><c>Mo</c><c>   2</c></rc>
    <rc><c>Si</c><c>   3</c></rc>
    <rc><c>Si</c><c>   3</c></rc>
   </set>
  </array>
  <array name="atomtypes" >
   <dimension dim="1">type</dimension>
   <field type="int">atomspertype</field>
   <field type="string">element</field>
   <field>mass</field>
   <field>valence</field>
   <field type="string">pseudopotential</field>
   <set>
    <rc><c>   2</c><c>B </c><c>     10.81100000</c><c>      3.00000000</c><c>  PAW_PBE B 06Sep2000                   </c></rc>
    <rc><c>   6</c><c>Mo</c><c>     95.94000000</c><c>     14.00000000</c><c>  PAW_PBE Mo_sv 02Feb2006               </c></rc>
    <rc><c>   2</c><c>Si</c><c>     28.08500000</c><c>      4.00000000</c><c>  PAW_PBE Si 05Jan2001                  </c></rc>
   </set>
  </array>
 </atominfo>
 <structure name="initialpos" >
  <crystal>
   <varray name="basis" >
    <v>       5.00588195       0.00000000      -2.68345546 </v>
    <v>      -1.79345634       4.67358197      -2.68345546 </v>
    <v>       0.00000000       0.00000000       5.67977000 </v>
   </varray>
   <i name="volume">    132.88048880 </i>
   <varray name="rec_basis" >
    <v>       0.19976500       0.07665850       0.00000000 </v>
    <v>       0.00000000       0.21396864       0.00000000 </v>
    <v>       0.09438067       0.13730926       0.17606347 </v>
   </varray>
  </crystal>
  <varray name="positions" >
   <v>       0.50000000       0.00000000       0.50000000 </v>
   <v>       0.00000000       0.50000000       0.50000000 </v>
   <v>       0.25000000       0.75000000       0.50000000 </v>
   <v>       0.74574000       0.24574000       0.99148000 </v>
   <v>       0.75000000       0.25000000       0.50000000 </v>
   <v>       0.25426000       0.75426000       0.00852000 </v>
   <v>       0.24574000       0.25426000       0.50000000 </v>
   <v>       0.75426000       0.74574000       0.50000000 </v>
   <v>       0.25000000       0.25000000       0.00000000 </v>
   <v>       0.75000000       0.75000000       0.00000000 </v>
  </varray>
 </structure>
 <calculation>
  <scstep>
   <time name="total">   22.40   22.63</time>
   <energy>
    <i name="alphaZ">    628.71868105 </i>
    <i name="ewald">  -9464.38610732 </i>
    <i name="hartreedc">  -2381.40949142 </i>
    <i name="XCdc">    470.27930475 </i>
    <i name="pawpsdc">   9166.97638771 </i>
    <i name="pawaedc">  -9126.13493418 </i>
    <i name="eentropy">     -0.00072655 </i>
    <i name="bandstr">    280.57074089 </i>
    <i name="atom">  11522.16744521 </i>
    <i name="e_fr_energy">   1096.78130015 </i>
    <i name="e_wo_entrp">   1096.78202670 </i>
    <i name="e_0_energy">   1096.78166342 </i>
   </energy>
  </scstep>
  <scstep>
   <time name="total">   22.73   22.95</time>
   <energy>
    <i name="e_fr_energy">   -180.91459765 </i>
    <i name="e_wo_entrp">   -180.91312250 </i>
    <i name="e_0_energy">   -180.91386008 </i>
   </energy>
  </scstep>
  <scstep>
   <time name="total">   25.49   25.74</time>
   <energy>
    <i name="e_fr_energy">   -232.52454522 </i>
    <i name="e_wo_entrp">   -232.52317941 </i>
    <i name="e_0_energy">   -232.52386231 </i>
   </energy>
  </scstep>
  <scstep>
   <time name="total">   23.89   24.12</time>
   <energy>
    <i name="e_fr_energy">   -233.37071673 </i>
    <i name="e_wo_entrp">   -233.36932680 </i>
    <i name="e_0_energy">   -233.37002176 </i>
   </energy>
  </scstep>
  <scstep>
   <time name="total">   26.70   26.96</time>
   <energy>
    <i name="e_fr_energy">   -233.38885872 </i>
    <i name="e_wo_entrp">   -233.38748373 </i>
    <i name="e_0_energy">   -233.38817122 </i>
   </energy>
  </scstep>
  <scstep>
   <time name="total">   25.81   26.05</time>
   <energy>
    <i name="e_fr_energy">   -158.01541987 </i>
    <i name="e_wo_entrp">   -158.01377505 </i>
    <i name="e_0_energy">   -158.01459746 </i>
   </energy>
  </scstep>
  <scstep>
   <time name="total">   25.74   25.97</time>
   <energy>
    <i name="e_fr_energy">   -179.59966631 </i>
    <i name="e_wo_entrp">   -179.59809637 </i>
    <i name="e_0_energy">   -179.59888134 </i>
   </energy>
  </scstep>
  <scstep>
   <time name="total">   25.63   25.86</time>
   <energy>
    <i name="e_fr_energy">   -183.57699931 </i>
    <i name="e_wo_entrp">   -183.57527921 </i>
    <i name="e_0_energy">   -183.57613926 </i>
   </energy>
  </scstep>
  <scstep>
   <time name="total">   25.89   26.12</time>
   <energy>
    <i name="e_fr_energy">   -184.57571156 </i>
    <i name="e_wo_entrp">   -184.57378513 </i>
    <i name="e_0_energy">   -184.57474834 </i>
   </energy>
  </scstep>
  <scstep>
   <time name="total">   25.91   26.15</time>
   <energy>
    <i name="e_fr_energy">   -184.94013786 </i>
    <i name="e_wo_entrp">   -184.93831405 </i>
    <i name="e_0_energy">   -184.93922595 </i>
   </energy>
  </scstep>
  <scstep>
   <time name="total">   26.46   26.70</time>
   <energy>
    <i name="e_fr_energy">   -185.05677936 </i>
    <i name="e_wo_entrp">   -185.05503794 </i>
    <i name="e_0_energy">   -185.05590865 </i>
   </energy>
  </scstep>
  <scstep>
   <time name="total">   25.95   26.17</time>
   <energy>
    <i name="e_fr_energy">   -185.10737590 </i>
    <i name="e_wo_entrp">   -185.10552345 </i>
    <i name="e_0_energy">   -185.10644968 </i>
   </energy>
  </scstep>
  <scstep>
   <time name="total">   26.10   26.34</time>
   <energy>
    <i name="e_fr_energy">   -185.12716633 </i>
    <i name="e_wo_entrp">   -185.12527925 </i>
    <i name="e_0_energy">   -185.12622279 </i>
   </energy>
  </scstep>
  <scstep>
   <time name="total">   26.04   26.27</time>
   <energy>
    <i name="e_fr_energy">   -185.13747635 </i>
    <i name="e_wo_entrp">   -185.13554711 </i>
    <i name="e_0_energy">   -185.13651173 </i>
   </energy>
  </scstep>
  <scstep>
   <time name="total">   26.12   26.36</time>
   <energy>
    <i name="e_fr_energy">   -185.14193784 </i>
    <i name="e_wo_entrp">   -185.14003465 </i>
    <i name="e_0_energy">   -185.14098625 </i>
   </energy>
  </scstep>
  <scstep>
   <time name="total">   26.14   26.37</time>
   <energy>
    <i name="e_fr_energy">   -185.14366292 </i>
    <i name="e_wo_entrp">   -185.14173788 </i>
    <i name="e_0_energy">   -185.14270040 </i>
   </energy>
  </scstep>
  <scstep>
   <time name="total">   26.16   26.39</time>
   <energy>
    <i name="e_fr_energy">   -185.14428772 </i>
    <i name="e_wo_entrp">   -185.14237352 </i>
    <i name="e_0_energy">   -185.14333062 </i>
   </energy>
  </scstep>
  <scstep>
   <time name="total">   26.20   26.44</time>
   <energy>
    <i name="e_fr_energy">   -185.14461523 </i>
    <i name="e_wo_entrp">   -185.14269710 </i>
    <i name="e_0_energy">   -185.14365617 </i>
   </energy>
  </scstep>
  <scstep>
   <time name="total">   26.26   26.49</time>
   <energy>
    <i name="e_fr_energy">   -185.14475175 </i>
    <i name="e_wo_entrp">   -185.14283912 </i>
    <i name="e_0_energy">   -185.14379544 </i>
   </energy>
  </scstep>
  <scstep>
   <time name="total">   25.99   26.23</time>
   <energy>
    <i name="e_fr_energy">   -185.14480601 </i>
    <i name="e_wo_entrp">   -185.14288961 </i>
    <i name="e_0_energy">   -185.14384781 </i>
   </energy>
  </scstep>
  <scstep>
   <time name="total">   26.28   26.50</time>
   <energy>
    <i name="e_fr_energy">   -185.14482519 </i>
    <i name="e_wo_entrp">   -185.14291135 </i>
    <i name="e_0_energy">   -185.14386827 </i>
   </energy>
  </scstep>
  <scstep>
   <time name="total">   26.19   26.41</time>
   <energy>
    <i name="e_fr_energy">   -185.14483466 </i>
    <i name="e_wo_entrp">   -185.14291973 </i>
    <i name="e_0_energy">   -185.14387720 </i>
   </energy>
  </scstep>
  <scstep>
   <time name="total">   26.26   26.50</time>
   <energy>
    <i name="e_fr_energy">   -185.14483919 </i>
    <i name="e_wo_entrp">   -185.14292474 </i>
    <i name="e_0_energy">   -185.14388196 </i>
   </energy>
  </scstep>
  <scstep>
   <time name="total">   26.27   26.50</time>
   <energy>
    <i name="e_fr_energy">   -185.14484117 </i>
    <i name="e_wo_entrp">   -185.14292627 </i>
    <i name="e_0_energy">   -185.14388372 </i>
   </energy>
  </scstep>
  <scstep>
   <time name="total">   26.19   26.42</time>
   <energy>
    <i name="e_fr_energy">   -185.14484182 </i>
    <i name="e_wo_entrp">   -185.14292730 </i>
    <i name="e_0_energy">   -185.14388456 </i>
   </energy>
  </scstep>
  <scstep>
   <time name="total">   26.34   26.58</time>
   <energy>
    <i name="e_fr_energy">   -185.14484201 </i>
    <i name="e_wo_entrp">   -185.14292731 </i>
    <i name="e_0_energy">   -185.14388466 </i>
   </energy>
  </scstep>
  <scstep>
   <time name="total">   26.09   26.32</time>
   <energy>
    <i name="e_fr_energy">   -185.14484213 </i>
    <i name="e_wo_entrp">   -185.14292721 </i>
    <i name="e_0_energy">   -185.14388467 </i>
   </energy>
  </scstep>
  <scstep>
   <time name="total">   25.44   25.67</time>
   <energy>
    <i name="e_fr_energy">   -185.14484218 </i>
    <i name="e_wo_entrp">   -185.14292744 </i>
    <i name="e_0_energy">   -185.14388481 </i>
   </energy>
  </scstep>
  <scstep>
   <time name="total">   26.03   26.26</time>
   <energy>
    <i name="e_fr_energy">   -185.14484220 </i>
    <i name="e_wo_entrp">   -185.14292748 </i>
    <i name="e_0_energy">   -185.14388484 </i>
   </energy>
  </scstep>
  <scstep>
   <time name="total">   45.49   45.88</time>
   <energy>
    <i name="e_fr_energy">   -185.14484220 </i>
    <i name="e_wo_entrp">   -185.14292674 </i>
    <i name="e_0_energy">   -185.14388447 </i>
   </energy>
  </scstep>
  <scstep>
   <time name="total">   26.43   26.66</time>
   <energy>
    <i name="e_fr_energy">   -185.14484200 </i>
    <i name="e_wo_entrp">   -185.14292729 </i>
    <i name="e_0_energy">   -185.14388465 </i>
   </energy>
  </scstep>
  <scstep>
   <time name="total">   25.95   26.18</time>
   <energy>
    <i name="e_fr_energy">   -185.14484221 </i>
    <i name="e_wo_entrp">   -185.14292749 </i>
    <i name="e_0_energy">   -185.14388485 </i>
   </energy>
  </scstep>
  <scstep>
   <time name="total">   26.40   26.63</time>
   <energy>
    <i name="e_fr_energy">   -185.14484222 </i>
    <i name="e_wo_entrp">   -185.14292743 </i>
    <i name="e_0_energy">   -185.14388482 </i>
   </energy>
  </scstep>
  <scstep>
   <time name="total">   26.28   26.51</time>
   <energy>
    <i name="e_fr_energy">   -185.14484223 </i>
    <i name="e_wo_entrp">   -185.14292751 </i>
    <i name="e_0_energy">   -185.14388487 </i>
   </energy>
  </scstep>
  <scstep>
   <time name="total">   26.30   26.53</time>
   <energy>
    <i name="e_fr_energy">   -185.14484223 </i>
    <i name="e_wo_entrp">   -185.14292748 </i>
    <i name="e_0_energy">   -185.14388485 </i>
   </energy>
  </scstep>
  <scstep>
   <time name="total">   30.14   30.41</time>
   <energy>
    <i name="alphaZ">    628.71868105 </i>
    <i name="ewald">  -9464.38610732 </i>
    <i name="hartreedc">  -2254.42207052 </i>
    <i name="XCdc">    479.19897722 </i>
    <i name="pawpsdc">  12691.52185861 </i>
    <i name="pawaedc"> -12671.72500756 </i>
    <i name="eentropy">     -0.00191477 </i>
    <i name="bandstr">  -1116.21670416 </i>
    <i name="atom">  11522.16744521 </i>
    <i name="e_fr_energy">   -185.14484223 </i>
    <i name="e_wo_entrp">   -185.14292747 </i>
    <i name="e_0_energy">   -185.14388485 </i>
   </energy>
  </scstep>
  <structure>
   <crystal>
    <varray name="basis" >
     <v>       5.00588195       0.00000000      -2.68345546 </v>
     <v>      -1.79345634       4.67358197      -2.68345546 </v>
     <v>       0.00000000       0.00000000       5.67977000 </v>
    </varray>
    <i name="volume">    132.88048880 </i>
    <varray name="rec_basis" >
     <v>       0.19976500       0.07665850       0.00000000 </v>
     <v>       0.00000000       0.21396864       0.00000000 </v>
     <v>       0.09438067       0.13730926       0.17606347 </v>
    </varray>
   </crystal>
   <varray name="positions" >
    <v>       0.50000000       0.00000000       0.50000000 </v>
    <v>       0.00000000       0.50000000       0.50000000 </v>
    <v>       0.25000000       0.75000000       0.50000000 </v>
    <v>       0.74574000       0.24574000       0.99148000 </v>
    <v>       0.75000000       0.25000000       0.50000000 </v>
    <v>       0.25426000       0.75426000       0.00852000 </v>
    <v>       0.24574000       0.25426000       0.50000000 </v>
    <v>       0.75426000       0.74574000       0.50000000 </v>
    <v>       0.25000000       0.25000000       0.00000000 </v>
    <v>       0.75000000       0.75000000       0.00000000 </v>
   </varray>
  </structure>
  <varray name="forces" >
   <v>       0.00000000       0.00000000       0.00000000 </v>
   <v>       0.00000000       0.00000000       0.00000000 </v>
   <v>       0.00000000       0.00000000       0.00000000 </v>
   <v>       0.00000000       0.00000000       0.00000000 </v>
   <v>       0.00000000       0.00000000       0.00000000 </v>
   <v>       0.00000000       0.00000000       0.00000000 </v>
   <v>       0.00000000       0.00000000       0.00000000 </v>
   <v>       0.00000000       0.00000000       0.00000000 </v>
   <v>       0.00000000       0.00000000       0.00000000 </v>
   <v>       0.00000000       0.00000000       0.00000000 </v>
  </varray>
  <varray name="stress" >
   <v>       0.00000000       0.00000000       0.00000000 </v>
   <v>       0.00000000       0.00000000       0.00000000 </v>
   <v>       0.00000000       0.00000000       0.00000000 </v>
  </varray>
  <energy>
   <i name="e_fr_energy">   -185.14484223 </i>
   <i name="e_wo_entrp">   -185.14292747 </i>
   <i name="e_0_energy">   -185.14388485 </i>
  </energy>
  <time name="totalsc">  957.12  965.73</time>
  <eigenvalues>
   <array>
    <dimension dim="1">band</dimension>
    <dimension dim="2">kpoint</dimension>
    <dimension dim="3">spin</dimension>
    <field>eigene</field>
    <field>occ</field>
    <set>
     <set comment="spin 1">
      <set comment="kpoint 1">
       <r>  -51.2171    1.0000 </r>
       <r>  -51.0664    1.0000 </r>
       <r>  -51.0556    1.0000 </r>
       <r>  -51.0555    1.0000 </r>
       <r>  -50.9941    1.0000 </r>
       <r>  -50.9674    1.0000 </r>
       <r>  -25.5684    1.0000 </r>
       <r>  -25.1247    1.0000 </r>
       <r>  -25.0533    1.0000 </r>
       <r>  -25.0532    1.0000 </r>
       <r>  -24.8973    1.0000 </r>
       <r>  -24.8972    1.0000 </r>
       <r>  -24.7782    1.0000 </r>
       <r>  -24.4022    1.0000 </r>
       <r>  -24.3760    1.0000 </r>
       <r>  -24.3760    1.0000 </r>
       <r>  -24.2457    1.0000 </r>
       <r>  -24.1772    1.0000 </r>
       <r>  -24.1739    1.0000 </r>
       <r>  -24.1372    1.0000 </r>
       <r>  -24.1251    1.0000 </r>
       <r>  -24.1250    1.0000 </r>
       <r>  -24.0788    1.0000 </r>
       <r>  -24.0788    1.0000 </r>
       <r>    0.1288    1.0000 </r>
       <r>    1.6891    1.0000 </r>
       <r>    2.5357    1.0000 </r>
       <r>    4.4959    1.0000 </r>
       <r>    4.4959    1.0000 </r>
       <r>    4.7419    1.0000 </r>
       <r>    6.8051    1.0000 </r>
       <r>    7.3912    1.0000 </r>
       <r>    7.3912    1.0000 </r>
       <r>    7.4165    1.0000 </r>
       <r>    7.5416    1.0000 </r>
       <r>    7.7343    1.0000 </r>
       <r>    8.7793    1.0000 </r>
       <r>    8.9298    1.0000 </r>
       <r>    8.9298    1.0000 </r>
       <r>    9.7907    1.0000 </r>
       <r>    9.8968    1.0000 </r>
       <r>    9.9042    1.0000 </r>
       <r>    9.9042    1.0000 </r>
       <r>   10.2534    1.0000 </r>
       <r>   10.2534    1.0000 </r>
       <r>   10.7694    1.0000 </r>
       <r>   10.8718    1.0000 </r>
       <r>   10.8718    1.0000 </r>
       <r>   11.9311    0.0000 </r>
       <r>   11.9311    0.0000 </r>
       <r>   12.3036    0.0000 </r>
       <r>   12.6575    0.0000 </r>
       <r>   12.8389    0.0000 </r>
       <r>   13.1106    0.0000 </r>
       <r>   13.2635    0.0000 </r>
       <r>   13.4554    0.0000 </r>
       <r>   13.4554    0.0000 </r>
       <r>   14.1212    0.0000 </r>
       <r>   14.3795    0.0000 </r>
       <r>   15.7922    0.0000 </r>
      </set>
      <set comment="kpoint 2">
       <r>  -51.2112    1.0000 </r>
       <r>  -51.0686    1.0000 </r>
       <r>  -51.0560    1.0000 </r>
       <r>  -51.0533    1.0000 </r>
       <r>  -50.9964    1.0000 </r>
       <r>  -50.9710    1.0000 </r>
       <r>  -25.5374    1.0000 </r>
       <r>  -25.1141    1.0000 </r>
       <r>  -25.0395    1.0000 </r>
       <r>  -25.0261    1.0000 </r>
       <r>  -24.8830    1.0000 </r>
       <r>  -24.8807    1.0000 </r>
       <r>  -24.7662    1.0000 </r>
       <r>  -24.4086    1.0000 </r>
       <r>  -24.3886    1.0000 </r>
       <r>  -24.3696    1.0000 </r>
       <r>  -24.2634    1.0000 </r>
       <r>  -24.2011    1.0000 </r>
       <r>  -24.1979    1.0000 </r>
       <r>  -24.1484    1.0000 </r>
       <r>  -24.1428    1.0000 </r>
       <r>  -24.1320    1.0000 </r>
       <r>  -24.0929    1.0000 </r>
       <r>  -24.0922    1.0000 </r>
       <r>    0.2654    1.0000 </r>
       <r>    1.7893    1.0000 </r>
       <r>    2.5980    1.0000 </r>
       <r>    4.3382    1.0000 </r>
       <r>    4.6404    1.0000 </r>
       <r>    4.8230    1.0000 </r>
       <r>    6.8473    1.0000 </r>
       <r>    7.3463    1.0000 </r>
       <r>    7.4608    1.0000 </r>
       <r>    7.4933    1.0000 </r>
       <r>    7.5367    1.0000 </r>
       <r>    7.7197    1.0000 </r>
       <r>    8.3921    1.0000 </r>
       <r>    8.6534    1.0000 </r>
       <r>    8.7338    1.0000 </r>
       <r>    9.6082    1.0000 </r>
       <r>    9.7329    1.0000 </r>
       <r>    9.9160    1.0000 </r>
       <r>   10.0564    1.0000 </r>
       <r>   10.3629    1.0000 </r>
       <r>   10.3853    1.0000 </r>
       <r>   10.4307    1.0000 </r>
       <r>   10.9622    1.0000 </r>
       <r>   11.0528    1.0000 </r>
       <r>   11.9195    0.0000 </r>
       <r>   12.1238    0.0000 </r>
       <r>   12.2207    0.0000 </r>
       <r>   12.3022    0.0000 </r>
       <r>   12.5312    0.0000 </r>
       <r>   12.7102    0.0000 </r>
       <r>   13.1320    0.0000 </r>
       <r>   13.6390    0.0000 </r>
       <r>   14.1917    0.0000 </r>
       <r>   14.5328    0.0000 </r>
       <r>   14.5652    0.0000 </r>
       <r>   14.9938    0.0000 </r>
      </set>
      <set comment="kpoint 3">
       <r>  -51.1944    1.0000 </r>
       <r>  -51.0839    1.0000 </r>
       <r>  -51.0480    1.0000 </r>
       <r>  -51.0468    1.0000 </r>
       <r>  -51.0028    1.0000 </r>
       <r>  -50.9812    1.0000 </r>
       <r>  -25.4533    1.0000 </r>
       <r>  -25.1233    1.0000 </r>
       <r>  -24.9636    1.0000 </r>
       <r>  -24.9501    1.0000 </r>
       <r>  -24.8384    1.0000 </r>
       <r>  -24.8359    1.0000 </r>
       <r>  -24.7319    1.0000 </r>
       <r>  -24.4371    1.0000 </r>
       <r>  -24.4263    1.0000 </r>
       <r>  -24.3459    1.0000 </r>
       <r>  -24.3275    1.0000 </r>
       <r>  -24.2978    1.0000 </r>
       <r>  -24.2818    1.0000 </r>
       <r>  -24.1711    1.0000 </r>
       <r>  -24.1527    1.0000 </r>
       <r>  -24.1483    1.0000 </r>
       <r>  -24.1238    1.0000 </r>
       <r>  -24.1143    1.0000 </r>
       <r>    0.6592    1.0000 </r>
       <r>    2.0737    1.0000 </r>
       <r>    2.7261    1.0000 </r>
       <r>    3.7932    1.0000 </r>
       <r>    5.0607    1.0000 </r>
       <r>    5.2544    1.0000 </r>
       <r>    6.7689    1.0000 </r>
       <r>    7.1416    1.0000 </r>
       <r>    7.4815    1.0000 </r>
       <r>    7.6270    1.0000 </r>
       <r>    7.6669    1.0000 </r>
       <r>    7.7250    1.0000 </r>
       <r>    7.8530    1.0000 </r>
       <r>    8.3427    1.0000 </r>
       <r>    8.3713    1.0000 </r>
       <r>    8.9233    1.0000 </r>
       <r>    9.3019    1.0000 </r>
       <r>    9.7460    1.0000 </r>
       <r>    9.8599    1.0000 </r>
       <r>   10.0776    1.0000 </r>
       <r>   10.6399    1.0000 </r>
       <r>   10.7599    1.0000 </r>
       <r>   11.1356    1.0000 </r>
       <r>   11.3340    1.0000 </r>
       <r>   11.5290    1.0000 </r>
       <r>   11.7092    0.9999 </r>
       <r>   12.3016    0.0000 </r>
       <r>   12.3398    0.0000 </r>
       <r>   12.6175    0.0000 </r>
       <r>   12.8081    0.0000 </r>
       <r>   13.1412    0.0000 </r>
       <r>   13.6223    0.0000 </r>
       <r>   14.2253    0.0000 </r>
       <r>   14.6732    0.0000 </r>
       <r>   14.8510    0.0000 </r>
       <r>   14.8890    0.0000 </r>
      </set>
      <set comment="kpoint 4">
       <r>  -51.1692    1.0000 </r>
       <r>  -51.1092    1.0000 </r>
       <r>  -51.0372    1.0000 </r>
       <r>  -51.0339    1.0000 </r>
       <r>  -51.0121    1.0000 </r>
       <r>  -50.9963    1.0000 </r>
       <r>  -25.3423    1.0000 </r>
       <r>  -25.1657    1.0000 </r>
       <r>  -24.8458    1.0000 </r>
       <r>  -24.8335    1.0000 </r>
       <r>  -24.7809    1.0000 </r>
       <r>  -24.7572    1.0000 </r>
       <r>  -24.6872    1.0000 </r>
       <r>  -24.4918    1.0000 </r>
       <r>  -24.4843    1.0000 </r>
       <r>  -24.4523    1.0000 </r>
       <r>  -24.4140    1.0000 </r>
       <r>  -24.4136    1.0000 </r>
       <r>  -24.2960    1.0000 </r>
       <r>  -24.2004    1.0000 </r>
       <r>  -24.1623    1.0000 </r>
       <r>  -24.1576    1.0000 </r>
       <r>  -24.1473    1.0000 </r>
       <r>  -24.1295    1.0000 </r>
       <r>    1.2629    1.0000 </r>
       <r>    2.4839    1.0000 </r>
       <r>    2.6313    1.0000 </r>
       <r>    3.2209    1.0000 </r>
       <r>    5.7125    1.0000 </r>
       <r>    5.9314    1.0000 </r>
       <r>    6.4735    1.0000 </r>
       <r>    6.7470    1.0000 </r>
       <r>    7.1954    1.0000 </r>
       <r>    7.4973    1.0000 </r>
       <r>    7.7560    1.0000 </r>
       <r>    7.8216    1.0000 </r>
       <r>    7.9145    1.0000 </r>
       <r>    8.0674    1.0000 </r>
       <r>    8.0978    1.0000 </r>
       <r>    8.3363    1.0000 </r>
       <r>    8.9896    1.0000 </r>
       <r>    9.1320    1.0000 </r>
       <r>    9.5749    1.0000 </r>
       <r>    9.6890    1.0000 </r>
       <r>   11.0474    1.0000 </r>
       <r>   11.1531    1.0000 </r>
       <r>   11.2925    1.0000 </r>
       <r>   11.5223    1.0000 </r>
       <r>   11.5876    1.0000 </r>
       <r>   11.8837    0.0000 </r>
       <r>   12.2813    0.0000 </r>
       <r>   12.2817    0.0000 </r>
       <r>   12.6185    0.0000 </r>
       <r>   12.6589    0.0000 </r>
       <r>   12.9479    0.0000 </r>
       <r>   13.2707    0.0000 </r>
       <r>   13.7744    0.0000 </r>
       <r>   14.5015    0.0000 </r>
       <r>   14.9369    0.0000 </r>
       <r>   15.0080    0.0000 </r>
      </set>
      <set comment="kpoint 5">
       <r>  -51.1393    1.0000 </r>
       <r>  -51.1393    1.0000 </r>
       <r>  -51.0270    1.0000 </r>
       <r>  -51.0270    1.0000 </r>
       <r>  -51.0129    1.0000 </r>
       <r>  -51.0129    1.0000 </r>
       <r>  -25.2393    1.0000 </r>
       <r>  -25.2393    1.0000 </r>
       <r>  -24.7676    1.0000 </r>
       <r>  -24.7676    1.0000 </r>
       <r>  -24.7053    1.0000 </r>
       <r>  -24.7053    1.0000 </r>
       <r>  -24.6275    1.0000 </r>
       <r>  -24.6275    1.0000 </r>
       <r>  -24.5183    1.0000 </r>
       <r>  -24.5183    1.0000 </r>
       <r>  -24.4767    1.0000 </r>
       <r>  -24.4767    1.0000 </r>
       <r>  -24.2466    1.0000 </r>
       <r>  -24.2465    1.0000 </r>
       <r>  -24.1664    1.0000 </r>
       <r>  -24.1664    1.0000 </r>
       <r>  -24.1411    1.0000 </r>
       <r>  -24.1411    1.0000 </r>
       <r>    1.9918    1.0000 </r>
       <r>    1.9918    1.0000 </r>
       <r>    2.8931    1.0000 </r>
       <r>    2.8931    1.0000 </r>
       <r>    6.3507    1.0000 </r>
       <r>    6.3507    1.0000 </r>
       <r>    6.5112    1.0000 </r>
       <r>    6.5112    1.0000 </r>
       <r>    6.8768    1.0000 </r>
       <r>    6.8768    1.0000 </r>
       <r>    7.8516    1.0000 </r>
       <r>    7.8516    1.0000 </r>
       <r>    7.9337    1.0000 </r>
       <r>    7.9337    1.0000 </r>
       <r>    8.0543    1.0000 </r>
       <r>    8.0543    1.0000 </r>
       <r>    9.1807    1.0000 </r>
       <r>    9.1807    1.0000 </r>
       <r>    9.2348    1.0000 </r>
       <r>    9.2348    1.0000 </r>
       <r>   11.2818    1.0000 </r>
       <r>   11.2818    1.0000 </r>
       <r>   11.5055    1.0000 </r>
       <r>   11.5055    1.0000 </r>
       <r>   12.1240    0.0000 </r>
       <r>   12.1240    0.0000 </r>
       <r>   12.2575    0.0000 </r>
       <r>   12.2575    0.0000 </r>
       <r>   12.3642    0.0000 </r>
       <r>   12.3642    0.0000 </r>
       <r>   12.6866    0.0000 </r>
       <r>   12.6866    0.0000 </r>
       <r>   14.1205    0.0000 </r>
       <r>   14.1206    0.0000 </r>
       <r>   15.0715    0.0000 </r>
       <r>   15.0824    0.0000 </r>
      </set>
      <set comment="kpoint 6">
       <r>  -51.2012    1.0000 </r>
       <r>  -51.0751    1.0000 </r>
       <r>  -51.0559    1.0000 </r>
       <r>  -51.0475    1.0000 </r>
       <r>  -50.9989    1.0000 </r>
       <r>  -50.9783    1.0000 </r>
       <r>  -25.4860    1.0000 </r>
       <r>  -25.1061    1.0000 </r>
       <r>  -25.0147    1.0000 </r>
       <r>  -24.9726    1.0000 </r>
       <r>  -24.8669    1.0000 </r>
       <r>  -24.8364    1.0000 </r>
       <r>  -24.7543    1.0000 </r>
       <r>  -24.4322    1.0000 </r>
       <r>  -24.3886    1.0000 </r>
       <r>  -24.3719    1.0000 </r>
       <r>  -24.2984    1.0000 </r>
       <r>  -24.2567    1.0000 </r>
       <r>  -24.2353    1.0000 </r>
       <r>  -24.1627    1.0000 </r>
       <r>  -24.1544    1.0000 </r>
       <r>  -24.1451    1.0000 </r>
       <r>  -24.1185    1.0000 </r>
       <r>  -24.1084    1.0000 </r>
       <r>    0.4976    1.0000 </r>
       <r>    1.9595    1.0000 </r>
       <r>    2.6854    1.0000 </r>
       <r>    4.1004    1.0000 </r>
       <r>    4.6830    1.0000 </r>
       <r>    5.1247    1.0000 </r>
       <r>    6.9130    1.0000 </r>
       <r>    7.3204    1.0000 </r>
       <r>    7.4145    1.0000 </r>
       <r>    7.4644    1.0000 </r>
       <r>    7.6827    1.0000 </r>
       <r>    7.7704    1.0000 </r>
       <r>    8.0519    1.0000 </r>
       <r>    8.2219    1.0000 </r>
       <r>    8.6490    1.0000 </r>
       <r>    9.3173    1.0000 </r>
       <r>    9.3365    1.0000 </r>
       <r>    9.9170    1.0000 </r>
       <r>    9.9704    1.0000 </r>
       <r>   10.2368    1.0000 </r>
       <r>   10.3405    1.0000 </r>
       <r>   10.6568    1.0000 </r>
       <r>   11.0752    1.0000 </r>
       <r>   11.2708    1.0000 </r>
       <r>   11.6275    1.0000 </r>
       <r>   11.9296    0.0000 </r>
       <r>   12.0275    0.0000 </r>
       <r>   12.3307    0.0000 </r>
       <r>   12.6334    0.0000 </r>
       <r>   12.8043    0.0000 </r>
       <r>   13.1138    0.0000 </r>
       <r>   13.8778    0.0000 </r>
       <r>   14.3153    0.0000 </r>
       <r>   14.5980    0.0000 </r>
       <r>   14.7352    0.0000 </r>
       <r>   14.8750    0.0000 </r>
      </set>
      <set comment="kpoint 7">
       <r>  -51.1812    1.0000 </r>
       <r>  -51.0925    1.0000 </r>
       <r>  -51.0526    1.0000 </r>
       <r>  -51.0347    1.0000 </r>
       <r>  -51.0067    1.0000 </r>
       <r>  -50.9899    1.0000 </r>
       <r>  -25.3898    1.0000 </r>
       <r>  -25.1201    1.0000 </r>
       <r>  -24.9470    1.0000 </r>
       <r>  -24.8621    1.0000 </r>
       <r>  -24.8237    1.0000 </r>
       <r>  -24.7677    1.0000 </r>
       <r>  -24.7197    1.0000 </r>
       <r>  -24.4965    1.0000 </r>
       <r>  -24.4299    1.0000 </r>
       <r>  -24.4078    1.0000 </r>
       <r>  -24.3543    1.0000 </r>
       <r>  -24.3328    1.0000 </r>
       <r>  -24.2940    1.0000 </r>
       <r>  -24.1899    1.0000 </r>
       <r>  -24.1812    1.0000 </r>
       <r>  -24.1519    1.0000 </r>
       <r>  -24.1439    1.0000 </r>
       <r>  -24.1351    1.0000 </r>
       <r>    0.9704    1.0000 </r>
       <r>    2.2929    1.0000 </r>
       <r>    2.7845    1.0000 </r>
       <r>    3.5303    1.0000 </r>
       <r>    5.0491    1.0000 </r>
       <r>    5.7274    1.0000 </r>
       <r>    6.7604    1.0000 </r>
       <r>    7.0761    1.0000 </r>
       <r>    7.2619    1.0000 </r>
       <r>    7.4625    1.0000 </r>
       <r>    7.6890    1.0000 </r>
       <r>    7.7622    1.0000 </r>
       <r>    7.9208    1.0000 </r>
       <r>    8.0067    1.0000 </r>
       <r>    8.4186    1.0000 </r>
       <r>    8.6601    1.0000 </r>
       <r>    8.9104    1.0000 </r>
       <r>    9.3473    1.0000 </r>
       <r>    9.8380    1.0000 </r>
       <r>   10.0463    1.0000 </r>
       <r>   10.6894    1.0000 </r>
       <r>   10.9997    1.0000 </r>
       <r>   11.2075    1.0000 </r>
       <r>   11.2922    1.0000 </r>
       <r>   11.5570    1.0000 </r>
       <r>   11.6565    1.0000 </r>
       <r>   11.8911    0.0000 </r>
       <r>   12.4628    0.0000 </r>
       <r>   12.8148    0.0000 </r>
       <r>   12.8904    0.0000 </r>
       <r>   13.0815    0.0000 </r>
       <r>   13.8290    0.0000 </r>
       <r>   14.0957    0.0000 </r>
       <r>   14.7078    0.0000 </r>
       <r>   14.9157    0.0000 </r>
       <r>   15.0194    0.0000 </r>
      </set>
      <set comment="kpoint 8">
       <r>  -51.1543    1.0000 </r>
       <r>  -51.1186    1.0000 </r>
       <r>  -51.0437    1.0000 </r>
       <r>  -51.0243    1.0000 </r>
       <r>  -51.0134    1.0000 </r>
       <r>  -51.0039    1.0000 </r>
       <r>  -25.2785    1.0000 </r>
       <r>  -25.1695    1.0000 </r>
       <r>  -24.8389    1.0000 </r>
       <r>  -24.7658    1.0000 </r>
       <r>  -24.7363    1.0000 </r>
       <r>  -24.6881    1.0000 </r>
       <r>  -24.6830    1.0000 </r>
       <r>  -24.5992    1.0000 </r>
       <r>  -24.5485    1.0000 </r>
       <r>  -24.4607    1.0000 </r>
       <r>  -24.4488    1.0000 </r>
       <r>  -24.3856    1.0000 </r>
       <r>  -24.2875    1.0000 </r>
       <r>  -24.2184    1.0000 </r>
       <r>  -24.1962    1.0000 </r>
       <r>  -24.1765    1.0000 </r>
       <r>  -24.1539    1.0000 </r>
       <r>  -24.1423    1.0000 </r>
       <r>    1.6263    1.0000 </r>
       <r>    2.5055    1.0000 </r>
       <r>    2.7104    1.0000 </r>
       <r>    3.0660    1.0000 </r>
       <r>    5.6839    1.0000 </r>
       <r>    6.3038    1.0000 </r>
       <r>    6.6354    1.0000 </r>
       <r>    6.6839    1.0000 </r>
       <r>    6.8471    1.0000 </r>
       <r>    7.3333    1.0000 </r>
       <r>    7.6588    1.0000 </r>
       <r>    7.6747    1.0000 </r>
       <r>    7.8852    1.0000 </r>
       <r>    7.9002    1.0000 </r>
       <r>    8.1775    1.0000 </r>
       <r>    8.2085    1.0000 </r>
       <r>    8.8275    1.0000 </r>
       <r>    9.2147    1.0000 </r>
       <r>    9.4963    1.0000 </r>
       <r>    9.6253    1.0000 </r>
       <r>   11.0115    1.0000 </r>
       <r>   11.1581    1.0000 </r>
       <r>   11.2931    1.0000 </r>
       <r>   11.5309    1.0000 </r>
       <r>   11.6205    1.0000 </r>
       <r>   11.7651    0.4495 </r>
       <r>   12.0391    0.0000 </r>
       <r>   12.5449    0.0000 </r>
       <r>   12.6805    0.0000 </r>
       <r>   12.8558    0.0000 </r>
       <r>   12.9308    0.0000 </r>
       <r>   12.9929    0.0000 </r>
       <r>   14.2129    0.0000 </r>
       <r>   14.4983    0.0000 </r>
       <r>   14.8211    0.0000 </r>
       <r>   14.9108    0.0000 </r>
      </set>
      <set comment="kpoint 9">
       <r>  -51.1479    1.0000 </r>
       <r>  -51.1244    1.0000 </r>
       <r>  -51.0357    1.0000 </r>
       <r>  -51.0320    1.0000 </r>
       <r>  -51.0190    1.0000 </r>
       <r>  -50.9992    1.0000 </r>
       <r>  -25.2530    1.0000 </r>
       <r>  -25.1845    1.0000 </r>
       <r>  -24.7962    1.0000 </r>
       <r>  -24.7818    1.0000 </r>
       <r>  -24.7385    1.0000 </r>
       <r>  -24.6915    1.0000 </r>
       <r>  -24.6574    1.0000 </r>
       <r>  -24.5843    1.0000 </r>
       <r>  -24.5413    1.0000 </r>
       <r>  -24.5203    1.0000 </r>
       <r>  -24.4389    1.0000 </r>
       <r>  -24.4172    1.0000 </r>
       <r>  -24.2660    1.0000 </r>
       <r>  -24.2388    1.0000 </r>
       <r>  -24.1939    1.0000 </r>
       <r>  -24.1776    1.0000 </r>
       <r>  -24.1657    1.0000 </r>
       <r>  -24.1344    1.0000 </r>
       <r>    1.7995    1.0000 </r>
       <r>    2.3560    1.0000 </r>
       <r>    2.7636    1.0000 </r>
       <r>    3.0733    1.0000 </r>
       <r>    6.0498    1.0000 </r>
       <r>    6.4092    1.0000 </r>
       <r>    6.4443    1.0000 </r>
       <r>    6.4472    1.0000 </r>
       <r>    6.6477    1.0000 </r>
       <r>    7.3823    1.0000 </r>
       <r>    7.6924    1.0000 </r>
       <r>    7.7109    1.0000 </r>
       <r>    7.7967    1.0000 </r>
       <r>    7.9732    1.0000 </r>
       <r>    7.9983    1.0000 </r>
       <r>    8.1696    1.0000 </r>
       <r>    9.0472    1.0000 </r>
       <r>    9.2895    1.0000 </r>
       <r>    9.3220    1.0000 </r>
       <r>    9.4576    1.0000 </r>
       <r>   10.9438    1.0000 </r>
       <r>   11.0534    1.0000 </r>
       <r>   11.3710    1.0000 </r>
       <r>   11.6458    1.0000 </r>
       <r>   11.7547    0.7274 </r>
       <r>   11.8637    0.0000 </r>
       <r>   12.2028    0.0000 </r>
       <r>   12.4281    0.0000 </r>
       <r>   12.6243    0.0000 </r>
       <r>   12.7992    0.0000 </r>
       <r>   12.8291    0.0000 </r>
       <r>   12.9474    0.0000 </r>
       <r>   14.1595    0.0000 </r>
       <r>   14.4891    0.0000 </r>
       <r>   14.6902    0.0000 </r>
       <r>   15.1045    0.0000 </r>
      </set>
      <set comment="kpoint 10">
       <r>  -51.1756    1.0000 </r>
       <r>  -51.0961    1.0000 </r>
       <r>  -51.0479    1.0000 </r>
       <r>  -51.0356    1.0000 </r>
       <r>  -51.0178    1.0000 </r>
       <r>  -50.9848    1.0000 </r>
       <r>  -25.3615    1.0000 </r>
       <r>  -25.1229    1.0000 </r>
       <r>  -24.9202    1.0000 </r>
       <r>  -24.8422    1.0000 </r>
       <r>  -24.8380    1.0000 </r>
       <r>  -24.7568    1.0000 </r>
       <r>  -24.6711    1.0000 </r>
       <r>  -24.4897    1.0000 </r>
       <r>  -24.4655    1.0000 </r>
       <r>  -24.4479    1.0000 </r>
       <r>  -24.3726    1.0000 </r>
       <r>  -24.3292    1.0000 </r>
       <r>  -24.3061    1.0000 </r>
       <r>  -24.2073    1.0000 </r>
       <r>  -24.1780    1.0000 </r>
       <r>  -24.1691    1.0000 </r>
       <r>  -24.1606    1.0000 </r>
       <r>  -24.1182    1.0000 </r>
       <r>    1.1181    1.0000 </r>
       <r>    2.3709    1.0000 </r>
       <r>    2.8028    1.0000 </r>
       <r>    3.4743    1.0000 </r>
       <r>    5.3560    1.0000 </r>
       <r>    5.7830    1.0000 </r>
       <r>    6.5965    1.0000 </r>
       <r>    6.7619    1.0000 </r>
       <r>    7.0690    1.0000 </r>
       <r>    7.6482    1.0000 </r>
       <r>    7.6952    1.0000 </r>
       <r>    7.8041    1.0000 </r>
       <r>    7.8632    1.0000 </r>
       <r>    8.0003    1.0000 </r>
       <r>    8.1662    1.0000 </r>
       <r>    8.5971    1.0000 </r>
       <r>    8.8519    1.0000 </r>
       <r>    9.3842    1.0000 </r>
       <r>    9.6944    1.0000 </r>
       <r>    9.9217    1.0000 </r>
       <r>   10.7697    1.0000 </r>
       <r>   10.8528    1.0000 </r>
       <r>   11.1113    1.0000 </r>
       <r>   11.3467    1.0000 </r>
       <r>   11.7555    0.7098 </r>
       <r>   11.8032    0.0024 </r>
       <r>   11.8753    0.0000 </r>
       <r>   12.7121    0.0000 </r>
       <r>   12.7535    0.0000 </r>
       <r>   12.8018    0.0000 </r>
       <r>   13.1529    0.0000 </r>
       <r>   13.5976    0.0000 </r>
       <r>   13.9830    0.0000 </r>
       <r>   14.4873    0.0000 </r>
       <r>   14.8843    0.0000 </r>
       <r>   15.1812    0.0000 </r>
      </set>
      <set comment="kpoint 11">
       <r>  -51.1973    1.0000 </r>
       <r>  -51.0743    1.0000 </r>
       <r>  -51.0563    1.0000 </r>
       <r>  -51.0477    1.0000 </r>
       <r>  -51.0071    1.0000 </r>
       <r>  -50.9743    1.0000 </r>
       <r>  -25.4646    1.0000 </r>
       <r>  -25.0959    1.0000 </r>
       <r>  -25.0109    1.0000 </r>
       <r>  -24.9525    1.0000 </r>
       <r>  -24.8831    1.0000 </r>
       <r>  -24.8226    1.0000 </r>
       <r>  -24.7191    1.0000 </r>
       <r>  -24.4297    1.0000 </r>
       <r>  -24.4131    1.0000 </r>
       <r>  -24.3629    1.0000 </r>
       <r>  -24.3402    1.0000 </r>
       <r>  -24.2578    1.0000 </r>
       <r>  -24.2236    1.0000 </r>
       <r>  -24.1861    1.0000 </r>
       <r>  -24.1773    1.0000 </r>
       <r>  -24.1465    1.0000 </r>
       <r>  -24.1397    1.0000 </r>
       <r>  -24.0926    1.0000 </r>
       <r>    0.5959    1.0000 </r>
       <r>    2.0194    1.0000 </r>
       <r>    2.7461    1.0000 </r>
       <r>    4.0907    1.0000 </r>
       <r>    4.8486    1.0000 </r>
       <r>    5.1317    1.0000 </r>
       <r>    6.8353    1.0000 </r>
       <r>    7.0833    1.0000 </r>
       <r>    7.3335    1.0000 </r>
       <r>    7.5755    1.0000 </r>
       <r>    7.6524    1.0000 </r>
       <r>    7.8792    1.0000 </r>
       <r>    8.0018    1.0000 </r>
       <r>    8.0927    1.0000 </r>
       <r>    8.4449    1.0000 </r>
       <r>    9.2208    1.0000 </r>
       <r>    9.2828    1.0000 </r>
       <r>    9.8296    1.0000 </r>
       <r>    9.8607    1.0000 </r>
       <r>   10.2727    1.0000 </r>
       <r>   10.4920    1.0000 </r>
       <r>   10.7299    1.0000 </r>
       <r>   10.9015    1.0000 </r>
       <r>   11.1034    1.0000 </r>
       <r>   11.4426    1.0000 </r>
       <r>   11.7776    0.1549 </r>
       <r>   12.1654    0.0000 </r>
       <r>   12.5585    0.0000 </r>
       <r>   12.7762    0.0000 </r>
       <r>   12.9222    0.0000 </r>
       <r>   13.2349    0.0000 </r>
       <r>   13.9443    0.0000 </r>
       <r>   14.4099    0.0000 </r>
       <r>   14.6237    0.0000 </r>
       <r>   14.7411    0.0000 </r>
       <r>   14.9890    0.0000 </r>
      </set>
      <set comment="kpoint 12">
       <r>  -51.2098    1.0000 </r>
       <r>  -51.0665    1.0000 </r>
       <r>  -51.0556    1.0000 </r>
       <r>  -51.0556    1.0000 </r>
       <r>  -50.9993    1.0000 </r>
       <r>  -50.9695    1.0000 </r>
       <r>  -25.5296    1.0000 </r>
       <r>  -25.1074    1.0000 </r>
       <r>  -25.0388    1.0000 </r>
       <r>  -25.0210    1.0000 </r>
       <r>  -24.8978    1.0000 </r>
       <r>  -24.8668    1.0000 </r>
       <r>  -24.7537    1.0000 </r>
       <r>  -24.4078    1.0000 </r>
       <r>  -24.3839    1.0000 </r>
       <r>  -24.3790    1.0000 </r>
       <r>  -24.2811    1.0000 </r>
       <r>  -24.1890    1.0000 </r>
       <r>  -24.1876    1.0000 </r>
       <r>  -24.1615    1.0000 </r>
       <r>  -24.1613    1.0000 </r>
       <r>  -24.1329    1.0000 </r>
       <r>  -24.1101    1.0000 </r>
       <r>  -24.0789    1.0000 </r>
       <r>    0.2998    1.0000 </r>
       <r>    1.8112    1.0000 </r>
       <r>    2.6233    1.0000 </r>
       <r>    4.4611    1.0000 </r>
       <r>    4.5716    1.0000 </r>
       <r>    4.8219    1.0000 </r>
       <r>    6.8310    1.0000 </r>
       <r>    7.3397    1.0000 </r>
       <r>    7.4398    1.0000 </r>
       <r>    7.4500    1.0000 </r>
       <r>    7.4677    1.0000 </r>
       <r>    7.8688    1.0000 </r>
       <r>    8.3848    1.0000 </r>
       <r>    8.4338    1.0000 </r>
       <r>    8.6627    1.0000 </r>
       <r>    9.6581    1.0000 </r>
       <r>    9.6823    1.0000 </r>
       <r>    9.8834    1.0000 </r>
       <r>   10.2184    1.0000 </r>
       <r>   10.3185    1.0000 </r>
       <r>   10.4008    1.0000 </r>
       <r>   10.4077    1.0000 </r>
       <r>   10.9961    1.0000 </r>
       <r>   11.0462    1.0000 </r>
       <r>   11.4212    1.0000 </r>
       <r>   11.7914    0.0233 </r>
       <r>   12.3456    0.0000 </r>
       <r>   12.4684    0.0000 </r>
       <r>   12.6975    0.0000 </r>
       <r>   13.1495    0.0000 </r>
       <r>   13.1876    0.0000 </r>
       <r>   13.6229    0.0000 </r>
       <r>   14.1173    0.0000 </r>
       <r>   14.5908    0.0000 </r>
       <r>   14.7052    0.0000 </r>
       <r>   14.8994    0.0000 </r>
      </set>
      <set comment="kpoint 13">
       <r>  -51.1597    1.0000 </r>
       <r>  -51.1053    1.0000 </r>
       <r>  -51.0566    1.0000 </r>
       <r>  -51.0242    1.0000 </r>
       <r>  -51.0134    1.0000 </r>
       <r>  -50.9990    1.0000 </r>
       <r>  -25.2896    1.0000 </r>
       <r>  -25.1152    1.0000 </r>
       <r>  -24.9075    1.0000 </r>
       <r>  -24.7850    1.0000 </r>
       <r>  -24.7443    1.0000 </r>
       <r>  -24.6941    1.0000 </r>
       <r>  -24.6821    1.0000 </r>
       <r>  -24.6036    1.0000 </r>
       <r>  -24.5611    1.0000 </r>
       <r>  -24.4189    1.0000 </r>
       <r>  -24.3927    1.0000 </r>
       <r>  -24.3143    1.0000 </r>
       <r>  -24.2954    1.0000 </r>
       <r>  -24.2441    1.0000 </r>
       <r>  -24.2370    1.0000 </r>
       <r>  -24.1839    1.0000 </r>
       <r>  -24.1660    1.0000 </r>
       <r>  -24.1426    1.0000 </r>
       <r>    1.4981    1.0000 </r>
       <r>    2.6358    1.0000 </r>
       <r>    2.8413    1.0000 </r>
       <r>    3.0994    1.0000 </r>
       <r>    5.2526    1.0000 </r>
       <r>    6.3133    1.0000 </r>
       <r>    6.6911    1.0000 </r>
       <r>    6.8650    1.0000 </r>
       <r>    6.9683    1.0000 </r>
       <r>    7.2003    1.0000 </r>
       <r>    7.4659    1.0000 </r>
       <r>    7.6591    1.0000 </r>
       <r>    7.7985    1.0000 </r>
       <r>    8.1375    1.0000 </r>
       <r>    8.2323    1.0000 </r>
       <r>    8.3042    1.0000 </r>
       <r>    8.5297    1.0000 </r>
       <r>    9.3533    1.0000 </r>
       <r>    9.7144    1.0000 </r>
       <r>    9.9360    1.0000 </r>
       <r>   10.8988    1.0000 </r>
       <r>   10.9845    1.0000 </r>
       <r>   11.1035    1.0000 </r>
       <r>   11.2368    1.0000 </r>
       <r>   11.2651    1.0000 </r>
       <r>   11.7756    0.1923 </r>
       <r>   12.0280    0.0000 </r>
       <r>   12.6791    0.0000 </r>
       <r>   12.8459    0.0000 </r>
       <r>   12.9630    0.0000 </r>
       <r>   13.1478    0.0000 </r>
       <r>   13.3234    0.0000 </r>
       <r>   14.5733    0.0000 </r>
       <r>   14.7777    0.0000 </r>
       <r>   14.8536    0.0000 </r>
       <r>   14.9017    0.0000 </r>
      </set>
      <set comment="kpoint 14">
       <r>  -51.1329    1.0000 </r>
       <r>  -51.1261    1.0000 </r>
       <r>  -51.0528    1.0000 </r>
       <r>  -51.0354    1.0000 </r>
       <r>  -51.0120    1.0000 </r>
       <r>  -50.9994    1.0000 </r>
       <r>  -25.1816    1.0000 </r>
       <r>  -25.1527    1.0000 </r>
       <r>  -24.8188    1.0000 </r>
       <r>  -24.7481    1.0000 </r>
       <r>  -24.7370    1.0000 </r>
       <r>  -24.7167    1.0000 </r>
       <r>  -24.6290    1.0000 </r>
       <r>  -24.6201    1.0000 </r>
       <r>  -24.6000    1.0000 </r>
       <r>  -24.4559    1.0000 </r>
       <r>  -24.4341    1.0000 </r>
       <r>  -24.3498    1.0000 </r>
       <r>  -24.2782    1.0000 </r>
       <r>  -24.2697    1.0000 </r>
       <r>  -24.2590    1.0000 </r>
       <r>  -24.2294    1.0000 </r>
       <r>  -24.1796    1.0000 </r>
       <r>  -24.1359    1.0000 </r>
       <r>    2.1751    1.0000 </r>
       <r>    2.4295    1.0000 </r>
       <r>    2.8568    1.0000 </r>
       <r>    3.0097    1.0000 </r>
       <r>    5.7954    1.0000 </r>
       <r>    6.1847    1.0000 </r>
       <r>    6.2434    1.0000 </r>
       <r>    6.5915    1.0000 </r>
       <r>    7.1466    1.0000 </r>
       <r>    7.2647    1.0000 </r>
       <r>    7.4450    1.0000 </r>
       <r>    7.5509    1.0000 </r>
       <r>    7.6404    1.0000 </r>
       <r>    7.8657    1.0000 </r>
       <r>    7.8964    1.0000 </r>
       <r>    8.1473    1.0000 </r>
       <r>    9.0476    1.0000 </r>
       <r>    9.3982    1.0000 </r>
       <r>    9.5479    1.0000 </r>
       <r>    9.6245    1.0000 </r>
       <r>   10.8351    1.0000 </r>
       <r>   10.8787    1.0000 </r>
       <r>   10.9795    1.0000 </r>
       <r>   11.1214    1.0000 </r>
       <r>   11.5194    1.0000 </r>
       <r>   12.0546    0.0000 </r>
       <r>   12.4876    0.0000 </r>
       <r>   12.7094    0.0000 </r>
       <r>   12.7586    0.0000 </r>
       <r>   12.8534    0.0000 </r>
       <r>   12.9879    0.0000 </r>
       <r>   13.0606    0.0000 </r>
       <r>   14.1789    0.0000 </r>
       <r>   14.6068    0.0000 </r>
       <r>   14.8490    0.0000 </r>
       <r>   15.0127    0.0000 </r>
      </set>
      <set comment="kpoint 15">
       <r>  -51.1506    1.0000 </r>
       <r>  -51.1047    1.0000 </r>
       <r>  -51.0482    1.0000 </r>
       <r>  -51.0429    1.0000 </r>
       <r>  -51.0261    1.0000 </r>
       <r>  -50.9860    1.0000 </r>
       <r>  -25.2353    1.0000 </r>
       <r>  -25.0971    1.0000 </r>
       <r>  -24.8710    1.0000 </r>
       <r>  -24.8378    1.0000 </r>
       <r>  -24.7292    1.0000 </r>
       <r>  -24.6930    1.0000 </r>
       <r>  -24.6118    1.0000 </r>
       <r>  -24.5629    1.0000 </r>
       <r>  -24.5338    1.0000 </r>
       <r>  -24.5243    1.0000 </r>
       <r>  -24.3890    1.0000 </r>
       <r>  -24.3735    1.0000 </r>
       <r>  -24.2994    1.0000 </r>
       <r>  -24.2779    1.0000 </r>
       <r>  -24.2364    1.0000 </r>
       <r>  -24.2186    1.0000 </r>
       <r>  -24.1805    1.0000 </r>
       <r>  -24.1190    1.0000 </r>
       <r>    1.7705    1.0000 </r>
       <r>    2.6596    1.0000 </r>
       <r>    2.8203    1.0000 </r>
       <r>    3.3482    1.0000 </r>
       <r>    5.5817    1.0000 </r>
       <r>    6.0650    1.0000 </r>
       <r>    6.1507    1.0000 </r>
       <r>    6.6214    1.0000 </r>
       <r>    6.8234    1.0000 </r>
       <r>    7.4409    1.0000 </r>
       <r>    7.5285    1.0000 </r>
       <r>    7.5892    1.0000 </r>
       <r>    7.6719    1.0000 </r>
       <r>    7.9062    1.0000 </r>
       <r>    8.0332    1.0000 </r>
       <r>    8.3069    1.0000 </r>
       <r>    9.0215    1.0000 </r>
       <r>    9.3707    1.0000 </r>
       <r>    9.6002    1.0000 </r>
       <r>    9.8202    1.0000 </r>
       <r>   10.6521    1.0000 </r>
       <r>   10.6924    1.0000 </r>
       <r>   10.9562    1.0000 </r>
       <r>   11.1484    1.0000 </r>
       <r>   11.7735    0.2350 </r>
       <r>   12.0795    0.0000 </r>
       <r>   12.2658    0.0000 </r>
       <r>   12.3801    0.0000 </r>
       <r>   12.8067    0.0000 </r>
       <r>   12.8708    0.0000 </r>
       <r>   13.1624    0.0000 </r>
       <r>   13.3022    0.0000 </r>
       <r>   13.9630    0.0000 </r>
       <r>   14.5157    0.0000 </r>
       <r>   15.0677    0.0000 </r>
       <r>   15.1467    0.0000 </r>
      </set>
      <set comment="kpoint 16">
       <r>  -51.1733    1.0000 </r>
       <r>  -51.0797    1.0000 </r>
       <r>  -51.0566    1.0000 </r>
       <r>  -51.0429    1.0000 </r>
       <r>  -51.0291    1.0000 </r>
       <r>  -50.9763    1.0000 </r>
       <r>  -25.3370    1.0000 </r>
       <r>  -25.0529    1.0000 </r>
       <r>  -24.9656    1.0000 </r>
       <r>  -24.8846    1.0000 </r>
       <r>  -24.8336    1.0000 </r>
       <r>  -24.7160    1.0000 </r>
[...]
       <r>    3.3315    1.0000 </r>
       <r>    5.1963    1.0000 </r>
       <r>    6.1550    1.0000 </r>
       <r>    6.6001    1.0000 </r>
       <r>    6.7925    1.0000 </r>
       <r>    7.0445    1.0000 </r>
       <r>    7.4021    1.0000 </r>
       <r>    7.5647    1.0000 </r>
       <r>    7.7772    1.0000 </r>
       <r>    7.9047    1.0000 </r>
       <r>    8.0846    1.0000 </r>
       <r>    8.2611    1.0000 </r>
       <r>    8.3831    1.0000 </r>
       <r>    8.7179    1.0000 </r>
       <r>    9.3578    1.0000 </r>
       <r>    9.7291    1.0000 </r>
       <r>    9.9706    1.0000 </r>
       <r>   10.7703    1.0000 </r>
       <r>   10.9742    1.0000 </r>
       <r>   11.0124    1.0000 </r>
       <r>   11.3045    1.0000 </r>
       <r>   11.4516    1.0000 </r>
       <r>   11.8478    0.0000 </r>
       <r>   11.9451    0.0000 </r>
       <r>   12.6344    0.0000 </r>
       <r>   12.9311    0.0000 </r>
       <r>   12.9398    0.0000 </r>
       <r>   13.1133    0.0000 </r>
       <r>   13.5021    0.0000 </r>
       <r>   14.3620    0.0000 </r>
       <r>   14.5557    0.0000 </r>
       <r>   14.8277    0.0000 </r>
       <r>   15.0199    0.0000 </r>
      </set>
      <set comment="kpoint 165">
       <r>  -51.1680    1.0000 </r>
       <r>  -51.0900    1.0000 </r>
       <r>  -51.0562    1.0000 </r>
       <r>  -51.0353    1.0000 </r>
       <r>  -51.0283    1.0000 </r>
       <r>  -50.9802    1.0000 </r>
       <r>  -25.3152    1.0000 </r>
       <r>  -25.0728    1.0000 </r>
       <r>  -24.9511    1.0000 </r>
       <r>  -24.8697    1.0000 </r>
       <r>  -24.7921    1.0000 </r>
       <r>  -24.7014    1.0000 </r>
       <r>  -24.6297    1.0000 </r>
       <r>  -24.5310    1.0000 </r>
       <r>  -24.5219    1.0000 </r>
       <r>  -24.4247    1.0000 </r>
       <r>  -24.3879    1.0000 </r>
       <r>  -24.3292    1.0000 </r>
       <r>  -24.2861    1.0000 </r>
       <r>  -24.2771    1.0000 </r>
       <r>  -24.1995    1.0000 </r>
       <r>  -24.1873    1.0000 </r>
       <r>  -24.1871    1.0000 </r>
       <r>  -24.1081    1.0000 </r>
       <r>    1.3254    1.0000 </r>
       <r>    2.4608    1.0000 </r>
       <r>    2.9604    1.0000 </r>
       <r>    3.6385    1.0000 </r>
       <r>    5.0379    1.0000 </r>
       <r>    5.9181    1.0000 </r>
       <r>    6.2926    1.0000 </r>
       <r>    6.8162    1.0000 </r>
       <r>    7.3033    1.0000 </r>
       <r>    7.3473    1.0000 </r>
       <r>    7.4132    1.0000 </r>
       <r>    7.5877    1.0000 </r>
       <r>    7.9221    1.0000 </r>
       <r>    7.9929    1.0000 </r>
       <r>    8.2130    1.0000 </r>
       <r>    8.4781    1.0000 </r>
       <r>    8.8164    1.0000 </r>
       <r>    9.4393    1.0000 </r>
       <r>    9.8205    1.0000 </r>
       <r>   10.2230    1.0000 </r>
       <r>   10.4921    1.0000 </r>
       <r>   10.5986    1.0000 </r>
       <r>   10.9267    1.0000 </r>
       <r>   11.1717    1.0000 </r>
       <r>   11.2516    1.0000 </r>
       <r>   12.0681    0.0000 </r>
       <r>   12.1477    0.0000 </r>
       <r>   12.5848    0.0000 </r>
       <r>   12.8387    0.0000 </r>
       <r>   12.9631    0.0000 </r>
       <r>   13.2871    0.0000 </r>
       <r>   13.7155    0.0000 </r>
       <r>   14.0087    0.0000 </r>
       <r>   14.7221    0.0000 </r>
       <r>   15.1989    0.0000 </r>
       <r>   15.2681    0.0000 </r>
      </set>
     </set>
    </set>
   </array>
  </eigenvalues>
  <separator name="orbital magnetization" >
   <v name="MAGDIPOLOUT">      0.00000000      0.00000000      0.00000000</v>
  </separator>
  <dos>
   <i name="efermi">     11.76328803 </i>
   <total>
    <array>
     <dimension dim="1">gridpoints</dimension>
     <dimension dim="2">spin</dimension>
     <field>energy</field>
     <field>total</field>
     <field>integrated</field>
     <set>
      <set comment="spin 1">
       <r>   -54.6057     0.0000     0.0000 </r>
       <r>   -54.3572     0.0000     0.0000 </r>
       <r>   -54.1087     0.0000     0.0000 </r>
       <r>   -53.8602     0.0000     0.0000 </r>
       <r>   -53.6117     0.0000     0.0000 </r>
       <r>   -53.3632     0.0000     0.0000 </r>
       <r>   -53.1147     0.0000     0.0000 </r>
       <r>   -52.8662     0.0000     0.0000 </r>
       <r>   -52.6177     0.0000     0.0000 </r>
       <r>   -52.3692     0.0000     0.0000 </r>
       <r>   -52.1207     0.0000     0.0000 </r>
       <r>   -51.8722     0.0000     0.0000 </r>
       <r>   -51.6237     0.0000     0.0000 </r>
       <r>   -51.3752     0.0000     0.0000 </r>
       <r>   -51.1267     7.8943     1.9618 </r>
       <r>   -50.8782    19.2962    12.0000 </r>
       <r>   -50.6297     0.0000    12.0000 </r>
       <r>   -50.3812     0.0000    12.0000 </r>
       <r>   -50.1327     0.0000    12.0000 </r>
       <r>   -49.8842     0.0000    12.0000 </r>
       <r>   -49.6357     0.0000    12.0000 </r>
       <r>   -49.3872     0.0000    12.0000 </r>
       <r>   -49.1387     0.0000    12.0000 </r>
       <r>   -48.8902     0.0000    12.0000 </r>
       <r>   -48.6417     0.0000    12.0000 </r>
       <r>   -48.3932     0.0000    12.0000 </r>
       <r>   -48.1447     0.0000    12.0000 </r>
       <r>   -47.8962     0.0000    12.0000 </r>
       <r>   -47.6477     0.0000    12.0000 </r>
       <r>   -47.3992     0.0000    12.0000 </r>
       <r>   -47.1507     0.0000    12.0000 </r>
       <r>   -46.9022     0.0000    12.0000 </r>
       <r>   -46.6537     0.0000    12.0000 </r>
       <r>   -46.4052     0.0000    12.0000 </r>
       <r>   -46.1567     0.0000    12.0000 </r>
       <r>   -45.9082     0.0000    12.0000 </r>
       <r>   -45.6597     0.0000    12.0000 </r>
       <r>   -45.4112     0.0000    12.0000 </r>
       <r>   -45.1627     0.0000    12.0000 </r>
       <r>   -44.9142     0.0000    12.0000 </r>
       <r>   -44.6656     0.0000    12.0000 </r>
       <r>   -44.4171     0.0000    12.0000 </r>
       <r>   -44.1686     0.0000    12.0000 </r>
       <r>   -43.9201     0.0000    12.0000 </r>
       <r>   -43.6716     0.0000    12.0000 </r>
       <r>   -43.4231     0.0000    12.0000 </r>
       <r>   -43.1746     0.0000    12.0000 </r>
       <r>   -42.9261     0.0000    12.0000 </r>
       <r>   -42.6776     0.0000    12.0000 </r>
       <r>   -42.4291     0.0000    12.0000 </r>
       <r>   -42.1806     0.0000    12.0000 </r>
       <r>   -41.9321     0.0000    12.0000 </r>
       <r>   -41.6836     0.0000    12.0000 </r>
       <r>   -41.4351     0.0000    12.0000 </r>
       <r>   -41.1866     0.0000    12.0000 </r>
       <r>   -40.9381     0.0000    12.0000 </r>
       <r>   -40.6896     0.0000    12.0000 </r>
       <r>   -40.4411     0.0000    12.0000 </r>
       <r>   -40.1926     0.0000    12.0000 </r>
       <r>   -39.9441     0.0000    12.0000 </r>
       <r>   -39.6956     0.0000    12.0000 </r>
       <r>   -39.4471     0.0000    12.0000 </r>
       <r>   -39.1986     0.0000    12.0000 </r>
       <r>   -38.9501     0.0000    12.0000 </r>
       <r>   -38.7016     0.0000    12.0000 </r>
       <r>   -38.4531     0.0000    12.0000 </r>
       <r>   -38.2046     0.0000    12.0000 </r>
       <r>   -37.9561     0.0000    12.0000 </r>
       <r>   -37.7076     0.0000    12.0000 </r>
       <r>   -37.4591     0.0000    12.0000 </r>
       <r>   -37.2106     0.0000    12.0000 </r>
       <r>   -36.9621     0.0000    12.0000 </r>
       <r>   -36.7136     0.0000    12.0000 </r>
       <r>   -36.4651     0.0000    12.0000 </r>
       <r>   -36.2166     0.0000    12.0000 </r>
       <r>   -35.9681     0.0000    12.0000 </r>
       <r>   -35.7196     0.0000    12.0000 </r>
       <r>   -35.4711     0.0000    12.0000 </r>
       <r>   -35.2226     0.0000    12.0000 </r>
       <r>   -34.9741     0.0000    12.0000 </r>
       <r>   -34.7256     0.0000    12.0000 </r>
       <r>   -34.4771     0.0000    12.0000 </r>
       <r>   -34.2286     0.0000    12.0000 </r>
       <r>   -33.9801     0.0000    12.0000 </r>
       <r>   -33.7316     0.0000    12.0000 </r>
       <r>   -33.4831     0.0000    12.0000 </r>
       <r>   -33.2346     0.0000    12.0000 </r>
       <r>   -32.9861     0.0000    12.0000 </r>
       <r>   -32.7376     0.0000    12.0000 </r>
       <r>   -32.4891     0.0000    12.0000 </r>
       <r>   -32.2406     0.0000    12.0000 </r>
       <r>   -31.9921     0.0000    12.0000 </r>
       <r>   -31.7436     0.0000    12.0000 </r>
       <r>   -31.4950     0.0000    12.0000 </r>
       <r>   -31.2465     0.0000    12.0000 </r>
       <r>   -30.9980     0.0000    12.0000 </r>
       <r>   -30.7495     0.0000    12.0000 </r>
       <r>   -30.5010     0.0000    12.0000 </r>
       <r>   -30.2525     0.0000    12.0000 </r>
       <r>   -30.0040     0.0000    12.0000 </r>
       <r>   -29.7555     0.0000    12.0000 </r>
       <r>   -29.5070     0.0000    12.0000 </r>
       <r>   -29.2585     0.0000    12.0000 </r>
       <r>   -29.0100     0.0000    12.0000 </r>
       <r>   -28.7615     0.0000    12.0000 </r>
       <r>   -28.5130     0.0000    12.0000 </r>
       <r>   -28.2645     0.0000    12.0000 </r>
       <r>   -28.0160     0.0000    12.0000 </r>
       <r>   -27.7675     0.0000    12.0000 </r>
       <r>   -27.5190     0.0000    12.0000 </r>
       <r>   -27.2705     0.0000    12.0000 </r>
       <r>   -27.0220     0.0000    12.0000 </r>
       <r>   -26.7735     0.0000    12.0000 </r>
       <r>   -26.5250     0.0000    12.0000 </r>
       <r>   -26.2765     0.0000    12.0000 </r>
       <r>   -26.0280     0.0000    12.0000 </r>
       <r>   -25.7795     0.0000    12.0000 </r>
       <r>   -25.5310     0.1339    12.0333 </r>
       <r>   -25.2825     2.4407    12.8183 </r>
       <r>   -25.0340     8.9909    15.6718 </r>
       <r>   -24.7855    14.2982    20.2684 </r>
       <r>   -24.5370    18.2872    28.1243 </r>
       <r>   -24.2885    26.3146    37.4455 </r>
       <r>   -24.0400    23.4173    47.9998 </r>
       <r>   -23.7915     0.0000    48.0000 </r>
       <r>   -23.5430     0.0000    48.0000 </r>
       <r>   -23.2945     0.0000    48.0000 </r>
       <r>   -23.0460     0.0000    48.0000 </r>
       <r>   -22.7975     0.0000    48.0000 </r>
       <r>   -22.5490     0.0000    48.0000 </r>
       <r>   -22.3005     0.0000    48.0000 </r>
       <r>   -22.0520     0.0000    48.0000 </r>
       <r>   -21.8035     0.0000    48.0000 </r>
       <r>   -21.5550     0.0000    48.0000 </r>
       <r>   -21.3065     0.0000    48.0000 </r>
       <r>   -21.0580     0.0000    48.0000 </r>
       <r>   -20.8095     0.0000    48.0000 </r>
       <r>   -20.5610     0.0000    48.0000 </r>
       <r>   -20.3125     0.0000    48.0000 </r>
       <r>   -20.0640     0.0000    48.0000 </r>
       <r>   -19.8155     0.0000    48.0000 </r>
       <r>   -19.5670     0.0000    48.0000 </r>
       <r>   -19.3185     0.0000    48.0000 </r>
       <r>   -19.0700     0.0000    48.0000 </r>
       <r>   -18.8215     0.0000    48.0000 </r>
       <r>   -18.5730     0.0000    48.0000 </r>
       <r>   -18.3244     0.0000    48.0000 </r>
       <r>   -18.0759     0.0000    48.0000 </r>
       <r>   -17.8274     0.0000    48.0000 </r>
       <r>   -17.5789     0.0000    48.0000 </r>
       <r>   -17.3304     0.0000    48.0000 </r>
       <r>   -17.0819     0.0000    48.0000 </r>
       <r>   -16.8334     0.0000    48.0000 </r>
       <r>   -16.5849     0.0000    48.0000 </r>
       <r>   -16.3364     0.0000    48.0000 </r>
       <r>   -16.0879     0.0000    48.0000 </r>
       <r>   -15.8394     0.0000    48.0000 </r>
       <r>   -15.5909     0.0000    48.0000 </r>
       <r>   -15.3424     0.0000    48.0000 </r>
       <r>   -15.0939     0.0000    48.0000 </r>
       <r>   -14.8454     0.0000    48.0000 </r>
       <r>   -14.5969     0.0000    48.0000 </r>
       <r>   -14.3484     0.0000    48.0000 </r>
       <r>   -14.0999     0.0000    48.0000 </r>
       <r>   -13.8514     0.0000    48.0000 </r>
       <r>   -13.6029     0.0000    48.0000 </r>
       <r>   -13.3544     0.0000    48.0000 </r>
       <r>   -13.1059     0.0000    48.0000 </r>
       <r>   -12.8574     0.0000    48.0000 </r>
       <r>   -12.6089     0.0000    48.0000 </r>
       <r>   -12.3604     0.0000    48.0000 </r>
       <r>   -12.1119     0.0000    48.0000 </r>
       <r>   -11.8634     0.0000    48.0000 </r>
       <r>   -11.6149     0.0000    48.0000 </r>
       <r>   -11.3664     0.0000    48.0000 </r>
       <r>   -11.1179     0.0000    48.0000 </r>
       <r>   -10.8694     0.0000    48.0000 </r>
       <r>   -10.6209     0.0000    48.0000 </r>
       <r>   -10.3724     0.0000    48.0000 </r>
       <r>   -10.1239     0.0000    48.0000 </r>
       <r>    -9.8754     0.0000    48.0000 </r>
       <r>    -9.6269     0.0000    48.0000 </r>
       <r>    -9.3784     0.0000    48.0000 </r>
       <r>    -9.1299     0.0000    48.0000 </r>
       <r>    -8.8814     0.0000    48.0000 </r>
       <r>    -8.6329     0.0000    48.0000 </r>
       <r>    -8.3844     0.0000    48.0000 </r>
       <r>    -8.1359     0.0000    48.0000 </r>
       <r>    -7.8874     0.0000    48.0000 </r>
       <r>    -7.6389     0.0000    48.0000 </r>
       <r>    -7.3904     0.0000    48.0000 </r>
       <r>    -7.1419     0.0000    48.0000 </r>
       <r>    -6.8934     0.0000    48.0000 </r>
       <r>    -6.6449     0.0000    48.0000 </r>
       <r>    -6.3964     0.0000    48.0000 </r>
       <r>    -6.1479     0.0000    48.0000 </r>
       <r>    -5.8994     0.0000    48.0000 </r>
       <r>    -5.6509     0.0000    48.0000 </r>
       <r>    -5.4024     0.0000    48.0000 </r>
       <r>    -5.1539     0.0000    48.0000 </r>
       <r>    -4.9053     0.0000    48.0000 </r>
       <r>    -4.6568     0.0000    48.0000 </r>
       <r>    -4.4083     0.0000    48.0000 </r>
       <r>    -4.1598     0.0000    48.0000 </r>
       <r>    -3.9113     0.0000    48.0000 </r>
       <r>    -3.6628     0.0000    48.0000 </r>
       <r>    -3.4143     0.0000    48.0000 </r>
       <r>    -3.1658     0.0000    48.0000 </r>
       <r>    -2.9173     0.0000    48.0000 </r>
       <r>    -2.6688     0.0000    48.0000 </r>
       <r>    -2.4203     0.0000    48.0000 </r>
       <r>    -2.1718     0.0000    48.0000 </r>
       <r>    -1.9233     0.0000    48.0000 </r>
       <r>    -1.6748     0.0000    48.0000 </r>
       <r>    -1.4263     0.0000    48.0000 </r>
       <r>    -1.1778     0.0000    48.0000 </r>
       <r>    -0.9293     0.0000    48.0000 </r>
       <r>    -0.6808     0.0000    48.0000 </r>
       <r>    -0.4323     0.0000    48.0000 </r>
       <r>    -0.1838     0.0000    48.0000 </r>
       <r>     0.0647     0.0000    48.0000 </r>
       <r>     0.3132     0.1649    48.0445 </r>
       <r>     0.5617     0.2800    48.1217 </r>
       <r>     0.8102     0.2386    48.2364 </r>
       <r>     1.0587     0.5967    48.4295 </r>
       <r>     1.3072     0.4490    48.6151 </r>
       <r>     1.5557     0.7597    48.8659 </r>
       <r>     1.8042     0.8437    49.1715 </r>
       <r>     2.0527     1.3856    49.6638 </r>
       <r>     2.3012     1.7364    50.2614 </r>
       <r>     2.5497     2.2855    51.1061 </r>
       <r>     2.7982     3.9321    52.5084 </r>
       <r>     3.0467     3.6360    54.1293 </r>
       <r>     3.2952     1.4578    54.9352 </r>
       <r>     3.5437     0.8741    55.3422 </r>
       <r>     3.7922     0.5569    55.5828 </r>
       <r>     4.0407     0.5037    55.7918 </r>
       <r>     4.2892     0.2640    55.9267 </r>
       <r>     4.5377     0.1426    56.0042 </r>
       <r>     4.7862     0.3218    56.1182 </r>
       <r>     5.0347     0.8856    56.4631 </r>
       <r>     5.2832     1.4894    57.0125 </r>
       <r>     5.5317     1.7736    57.6352 </r>
       <r>     5.7802     2.5619    58.4734 </r>
       <r>     6.0287     2.3653    59.4315 </r>
       <r>     6.2772     3.0623    60.6464 </r>
       <r>     6.5257     2.7986    61.7962 </r>
       <r>     6.7742     2.5363    62.8976 </r>
       <r>     7.0227     2.9592    64.2562 </r>
       <r>     7.2712     4.1418    65.6994 </r>
       <r>     7.5197     8.7878    68.9025 </r>
       <r>     7.7682     9.7957    72.5419 </r>
       <r>     8.0167     8.9058    76.1333 </r>
       <r>     8.2653     4.7234    78.2814 </r>
       <r>     8.5138     2.3854    79.2560 </r>
       <r>     8.7623     2.2155    79.9637 </r>
       <r>     9.0108     2.5320    80.8410 </r>
       <r>     9.2593     3.5122    82.0776 </r>
       <r>     9.5078     5.1849    83.9551 </r>
       <r>     9.7563     4.0086    85.5343 </r>
       <r>    10.0048     3.8392    87.0165 </r>
       <r>    10.2533     2.3755    87.8681 </r>
       <r>    10.5018     2.5243    88.7176 </r>
       <r>    10.7503     5.5761    90.7850 </r>
       <r>    10.9988     5.1915    92.6859 </r>
       <r>    11.2473     4.7763    94.6661 </r>
       <r>    11.4958     3.8202    96.3104 </r>
       <r>    11.7443     4.3128    97.8426 </r>
       <r>    11.9928     4.2498    99.6012 </r>
       <r>    12.2413     3.8621   101.2375 </r>
       <r>    12.4898     4.7942   103.0976 </r>
       <r>    12.7383     6.1207   105.2502 </r>
       <r>    12.9868     7.7609   108.4564 </r>
       <r>    13.2353     4.6015   110.4838 </r>
       <r>    13.4838     2.2187   111.5097 </r>
       <r>    13.7323     1.3089   111.9642 </r>
       <r>    13.9808     2.0270   112.6218 </r>
       <r>    14.2293     1.8832   113.2944 </r>
       <r>    14.4778     3.0326   114.3196 </r>
       <r>    14.7263     5.7098   116.3286 </r>
       <r>    14.9748     4.7594   118.2834 </r>
       <r>    15.2233     2.3568   119.4503 </r>
       <r>    15.4718     0.4644   119.6744 </r>
       <r>    15.7203     0.3074   119.8299 </r>
       <r>    15.9688     0.1403   119.8821 </r>
       <r>    16.2173     0.0280   119.9097 </r>
       <r>    16.4658     0.1537   119.9896 </r>
       <r>    16.7143     0.0419   120.0000 </r>
       <r>    16.9628     0.0000   120.0000 </r>
       <r>    17.2113     0.0000   120.0000 </r>
       <r>    17.4598     0.0000   120.0000 </r>
       <r>    17.7083     0.0000   120.0000 </r>
       <r>    17.9568     0.0000   120.0000 </r>
       <r>    18.2053     0.0000   120.0000 </r>
       <r>    18.4538     0.0000   120.0000 </r>
       <r>    18.7023     0.0000   120.0000 </r>
       <r>    18.9508     0.0000   120.0000 </r>
       <r>    19.1993     0.0000   120.0000 </r>
       <r>    19.4478     0.0000   120.0000 </r>
       <r>    19.6963     0.0000   120.0000 </r>
       <r>    19.9448     0.0000   120.0000 </r>
      </set>
     </set>
    </array>
   </total>
  </dos>
 </calculation>
 <structure name="finalpos" >
  <crystal>
   <varray name="basis" >
    <v>       5.00588195       0.00000000      -2.68345546 </v>
    <v>      -1.79345634       4.67358197      -2.68345546 </v>
    <v>       0.00000000       0.00000000       5.67977000 </v>
   </varray>
   <i name="volume">    132.88048880 </i>
   <varray name="rec_basis" >
    <v>       0.19976500       0.07665850       0.00000000 </v>
    <v>       0.00000000       0.21396864       0.00000000 </v>
    <v>       0.09438067       0.13730926       0.17606347 </v>
   </varray>
  </crystal>
  <varray name="positions" >
   <v>       0.50000000       0.00000000       0.50000000 </v>
   <v>       0.00000000       0.50000000       0.50000000 </v>
   <v>       0.25000000       0.75000000       0.50000000 </v>
   <v>       0.74574000       0.24574000       0.99148000 </v>
   <v>       0.75000000       0.25000000       0.50000000 </v>
   <v>       0.25426000       0.75426000       0.00852000 </v>
   <v>       0.24574000       0.25426000       0.50000000 </v>
   <v>       0.75426000       0.74574000       0.50000000 </v>
   <v>       0.25000000       0.25000000       0.00000000 </v>
   <v>       0.75000000       0.75000000       0.00000000 </v>
  </varray>
 </structure>
</modeling>
