 vasp.6.2.0 18Jan21 (build Jan 05 2022 15:41:44) complex                        
  
 executed on             LinuxIFC date 2025.05.07  14:36:52
 running on   24 total cores
 distrk:  each k-point on   12 cores,    2 groups
 distr:  one band on NCORE=   2 cores,    6 groups


--------------------------------------------------------------------------------------------------------


 INCAR:
   SYSTEM = routine with relax: pwdword
   ICHARG = 2
   NPAR = 6
   KPAR = 2
   NCORE = 2
   ADDGRID = T
   PREC = Acc
   ENCUT = 600
   METAGGA = R2SCAN
   LASPH = .TRUE.
   LMIXTAU = .FALSE.
   ALGO = A
   EDIFF = 1E-9
   NELM = 100
   NELMIN = 6
   IALGO = 38
   LREAL = F
   NSW = 0
   ISIF = -1
   ISMEAR = 0
   SIGMA = 0.02

 POTCAR:    PAW_PBE B 06Sep2000                   
 POTCAR:    PAW_PBE Mo_sv 02Feb2006               
 POTCAR:    PAW_PBE Si 05Jan2001                  
 -----------------------------------------------------------------------------
|                                                                             |
|           W    W    AA    RRRRR   N    N  II  N    N   GGGG   !!!           |
|           W    W   A  A   R    R  NN   N  II  NN   N  G    G  !!!           |
|           W    W  A    A  R    R  N N  N  II  N N  N  G       !!!           |
|           W WW W  AAAAAA  RRRRR   N  N N  II  N  N N  G  GGG   !            |
|           WW  WW  A    A  R   R   N   NN  II  N   NN  G    G                |
|           W    W  A    A  R    R  N    N  II  N    N   GGGG   !!!           |
|                                                                             |
|     For optimal performance we recommend to set                             |
|       NCORE = 2 up to number-of-cores-per-socket                            |
|     NCORE specifies how many cores store one orbital (NPAR=cpu/NCORE).      |
|     This setting can greatly improve the performance of VASP for DFT.       |
|     The default, NCORE=1 might be grossly inefficient on modern             |
|     multi-core architectures or massively parallel machines. Do your        |
|     own testing! More info at https://www.vasp.at/wiki/index.php/NCORE      |
|     Unfortunately you need to use the default for GW and RPA                |
|     calculations (for HF NCORE is supported but not extensively tested      |
|     yet).                                                                   |
|                                                                             |
 -----------------------------------------------------------------------------

 POTCAR:    PAW_PBE B 06Sep2000                   
   VRHFIN =B: s2p1                                                                                  
   LEXCH  = PE                                                                                      
   EATOM  =    71.1703 eV,    5.2309 Ry                                                             
                                                                                                    
   TITEL  = PAW_PBE B 06Sep2000                                                                     
   LULTRA =        F    use ultrasoft PP ?                                                          
   IUNSCR =        1    unscreen: 0-lin 1-nonlin 2-no                                               
   RPACOR =    1.200    partial core radius                                                         
   POMASS =   10.811; ZVAL   =    3.000    mass and valenz                                          
   RCORE  =    1.700    outmost cutoff radius                                                       
   RWIGS  =    1.710; RWIGS  =    0.905    wigner-seitz radius (au A)                               
   ENMAX  =  318.614; ENMIN  =  238.960 eV                                                          
   ICORE  =        2    local potential                                                             
   LCOR   =        T    correct aug charges                                                         
   LPAW   =        T    paw PP                                                                      
   EAUG   =  535.514                                                                                
   DEXC   =    0.000                                                                                
   RMAX   =    1.732    core radius for proj-oper                                                   
   RAUG   =    1.300    factor for augmentation sphere                                              
   RDEP   =    1.757    radius for radial grids                                                     
   RDEPT  =    1.436    core radius for aug-charge                                                  
                                                                                                    
   Atomic configuration                                                                             
    4 entries                                                                                       
     n  l   j            E        occ.                                                              
     1  0  0.50      -180.5896   2.0000                                                             
     2  0  0.50        -9.4431   2.0000                                                             
     2  1  0.50        -3.6068   1.0000                                                             
     3  2  1.50        -4.0817   0.0000                                                             
   Description                                                                                      
     l       E           TYP  RCUT    TYP  RCUT                                                     
     0     -9.4430752     23  1.500                                                                 
     0      0.8675899     23  1.500                                                                 
     1     -3.6067955     23  1.700                                                                 
     1      6.1086146     23  1.700                                                                 
     2     -4.0817478      7  1.700                                                                 
  local pseudopotential read in
  partial core-charges read in
  partial kinetic energy density read in
  atomic valenz-charges read in
  non local Contribution for L=           0  read in
    real space projection operators read in
  non local Contribution for L=           0  read in
    real space projection operators read in
  non local Contribution for L=           1  read in
    real space projection operators read in
  non local Contribution for L=           1  read in
    real space projection operators read in
    PAW grid and wavefunctions read in
 
   number of l-projection  operators is LMAX  =           4
   number of lm-projection operators is LMMAX =           8
 
 POTCAR:    PAW_PBE Mo_sv 02Feb2006               
   VRHFIN =Mo: 4p5s4d                                                                               
   LEXCH  = PE                                                                                      
   EATOM  =  1862.2866 eV,  136.8742 Ry                                                             
                                                                                                    
   TITEL  = PAW_PBE Mo_sv 02Feb2006                                                                 
   LULTRA =        F    use ultrasoft PP ?                                                          
   IUNSCR =        1    unscreen: 0-lin 1-nonlin 2-no                                               
   RPACOR =    2.200    partial core radius                                                         
   POMASS =   95.940; ZVAL   =   14.000    mass and valenz                                          
   RCORE  =    2.500    outmost cutoff radius                                                       
   RWIGS  =    2.750; RWIGS  =    1.455    wigner-seitz radius (au A)                               
   ENMAX  =  242.676; ENMIN  =  182.007 eV                                                          
   ICORE  =        3    local potential                                                             
   LCOR   =        T    correct aug charges                                                         
   LPAW   =        T    paw PP                                                                      
   EAUG   =  446.014                                                                                
   DEXC   =    0.000                                                                                
   RMAX   =    2.563    core radius for proj-oper                                                   
   RAUG   =    1.300    factor for augmentation sphere                                              
   RDEP   =    2.641    radius for radial grids                                                     
   RDEPT  =    2.031    core radius for aug-charge                                                  
                                                                                                    
   Atomic configuration                                                                             
   11 entries                                                                                       
     n  l   j            E        occ.                                                              
     1  0  0.50    -19819.0341   2.0000                                                             
     2  0  0.50     -2799.0127   2.0000                                                             
     2  1  1.50     -2502.0276   6.0000                                                             
     3  0  0.50      -476.4449   2.0000                                                             
     3  1  1.50      -379.1496   6.0000                                                             
     3  2  2.50      -220.9367  10.0000                                                             
     4  0  0.50       -64.3378   2.0000                                                             
     5  0  0.50        -4.0862   1.0000                                                             
     4  1  1.50       -38.4773   6.0000                                                             
     4  2  2.50        -3.7535   5.0000                                                             
     4  3  2.50        -1.3606   0.0000                                                             
   Description                                                                                      
     l       E           TYP  RCUT    TYP  RCUT                                                     
     0    -64.3377829     23  2.100                                                                 
     0     -4.0861640     23  2.400                                                                 
     1    -38.4772993     23  2.100                                                                 
     1     13.6058260     23  2.100                                                                 
     2     -3.7534941     23  2.400                                                                 
     2     -5.1140767     23  2.400                                                                 
     3     -4.0817478     23  2.500                                                                 
  local pseudopotential read in
  partial core-charges read in
  partial kinetic energy density read in
  atomic valenz-charges read in
  non local Contribution for L=           0  read in
    real space projection operators read in
  non local Contribution for L=           0  read in
    real space projection operators read in
  non local Contribution for L=           1  read in
    real space projection operators read in
  non local Contribution for L=           1  read in
    real space projection operators read in
  non local Contribution for L=           2  read in
    real space projection operators read in
  non local Contribution for L=           2  read in
    real space projection operators read in
    PAW grid and wavefunctions read in
 
   number of l-projection  operators is LMAX  =           6
   number of lm-projection operators is LMMAX =          18
 
 POTCAR:    PAW_PBE Si 05Jan2001                  
   VRHFIN =Si: s2p2                                                                                 
   LEXCH  = PE                                                                                      
   EATOM  =   103.0669 eV,    7.5752 Ry                                                             
                                                                                                    
   TITEL  = PAW_PBE Si 05Jan2001                                                                    
   LULTRA =        F    use ultrasoft PP ?                                                          
   IUNSCR =        1    unscreen: 0-lin 1-nonlin 2-no                                               
   RPACOR =    1.500    partial core radius                                                         
   POMASS =   28.085; ZVAL   =    4.000    mass and valenz                                          
   RCORE  =    1.900    outmost cutoff radius                                                       
   RWIGS  =    2.480; RWIGS  =    1.312    wigner-seitz radius (au A)                               
   ENMAX  =  245.345; ENMIN  =  184.009 eV                                                          
   ICORE  =        2    local potential                                                             
   LCOR   =        T    correct aug charges                                                         
   LPAW   =        T    paw PP                                                                      
   EAUG   =  322.069                                                                                
   DEXC   =    0.000                                                                                
   RMAX   =    1.950    core radius for proj-oper                                                   
   RAUG   =    1.300    factor for augmentation sphere                                              
   RDEP   =    1.993    radius for radial grids                                                     
   RDEPT  =    1.837    core radius for aug-charge                                                  
                                                                                                    
   Atomic configuration                                                                             
    6 entries                                                                                       
     n  l   j            E        occ.                                                              
     1  0  0.50     -1785.8828   2.0000                                                             
     2  0  0.50      -139.4969   2.0000                                                             
     2  1  1.50       -95.5546   6.0000                                                             
     3  0  0.50       -10.8127   2.0000                                                             
     3  1  0.50        -4.0811   2.0000                                                             
     3  2  1.50        -4.0817   0.0000                                                             
   Description                                                                                      
     l       E           TYP  RCUT    TYP  RCUT                                                     
     0    -10.8127223     23  1.900                                                                 
     0     -7.6451159     23  1.900                                                                 
     1     -4.0811372     23  1.900                                                                 
     1      2.4879257     23  1.900                                                                 
     2     -4.0817478      7  1.900                                                                 
  local pseudopotential read in
  partial core-charges read in
  partial kinetic energy density read in
  atomic valenz-charges read in
  non local Contribution for L=           0  read in
    real space projection operators read in
  non local Contribution for L=           0  read in
    real space projection operators read in
  non local Contribution for L=           1  read in
    real space projection operators read in
  non local Contribution for L=           1  read in
    real space projection operators read in
    PAW grid and wavefunctions read in
 
   number of l-projection  operators is LMAX  =           4
   number of lm-projection operators is LMMAX =           8
 
  PAW_PBE B 06Sep2000                   :
 energy of atom  1       EATOM=  -71.1703
 kinetic energy error for atom=    0.0007 (will be added to EATOM!!)
  PAW_PBE Mo_sv 02Feb2006               :
 energy of atom  2       EATOM=-1862.2866
 kinetic energy error for atom=    0.0041 (will be added to EATOM!!)
  PAW_PBE Si 05Jan2001                  :
 energy of atom  3       EATOM= -103.0669
 kinetic energy error for atom=    0.0003 (will be added to EATOM!!)
 
 
 POSCAR: EA28
  positions in direct lattice
  No initial velocities read in

 METAGGA = R2SCA    LMAXTAU =  6    LMIXTAU =  F

 exchange correlation table for  LEXCH =        8
   RHO(1)=    0.500       N(1)  =     2000
   RHO(2)=  100.500       N(2)  =     4000
 


--------------------------------------------------------------------------------------------------------


 ion  position               nearest neighbor table
   1  0.250  0.250  0.000-   8 2.39   6 2.39   3 2.39   7 2.39  10 2.60   9 2.60
   2  0.750  0.750  0.000-   6 2.39   8 2.39   7 2.39   3 2.39  10 2.60   9 2.60
   3  0.500  0.000  0.000-   5 2.39   4 2.39   1 2.39   2 2.39   8 3.39   6 3.39   8 3.39   6 3.39

   4  0.250  0.750  0.500-   3 2.39   7 2.39   8 2.39   6 2.39
   5  0.750  0.250  0.500-   7 2.39   3 2.39   8 2.39   6 2.39
   6  0.000  0.000  0.500-   1 2.39   2 2.39   5 2.39   4 2.39   7 3.39   3 3.39   7 3.39   3 3.39

   7  0.000  0.500  0.000-   4 2.39   5 2.39   1 2.39   2 2.39   8 3.39   6 3.39   6 3.39   8 3.39

   8  0.500  0.500  0.500-   2 2.39   1 2.39   5 2.39   4 2.39   7 3.39   3 3.39   3 3.39   7 3.39

   9  0.500  0.500  0.000-   1 2.60   2 2.60
  10  0.000  0.000  0.000-   1 2.60   2 2.60
 
  LATTYP: Found a body centered tetragonal cell.
 ALAT       =     6.7721261413
 C/A-ratio  =     1.5334087996
  
  Lattice vectors:
  
 A1 = (   5.9432352216,   0.0000000000,  -3.8168076615)
 A2 = (  -1.7734132279,   5.6724818574,  -3.8168076615)
 A3 = (   0.0000000000,   0.0000000000,   7.0632900000)


Analysis of symmetry for initial positions (statically):
=====================================================================
 Subroutine PRICEL returns following result:
 
  LATTYP: Found a simple tetragonal cell.
 ALAT       =     4.7886248996
 C/A-ratio  =     1.0842818173
  
  Lattice vectors:
  
 A1 = (   3.8583242247,  -2.8362409287,   0.0000000000)
 A2 = (   2.0849109968,   2.8362409287,   3.2464823385)
 A3 = (  -2.0849109968,  -2.8362409287,   3.8168076615)
 
   2 primitive cells build up your supercell.
 

 Routine SETGRP: Setting up the symmetry group for a 
 body centered tetragonal supercell.


 Subroutine GETGRP returns: Found 16 space group operations
 (whereof 16 operations were pure point group operations)
 out of a pool of 16 trial point group operations.


The static configuration has the point symmetry D_4h.


Analysis of symmetry for dynamics (positions and initial velocities):
=====================================================================
 Subroutine PRICEL returns following result:
 
  LATTYP: Found a simple tetragonal cell.
 ALAT       =     4.7886248996
 C/A-ratio  =     1.0842818173
  
  Lattice vectors:
  
 A1 = (   3.8583242247,  -2.8362409287,   0.0000000000)
 A2 = (   2.0849109968,   2.8362409287,   3.2464823385)
 A3 = (  -2.0849109968,  -2.8362409287,   3.8168076615)
 
   2 primitive cells build up your supercell.
 

 Routine SETGRP: Setting up the symmetry group for a 
 body centered tetragonal supercell.


 Subroutine GETGRP returns: Found 16 space group operations
 (whereof 16 operations were pure point group operations)
 out of a pool of 16 trial point group operations.


The dynamic configuration has the point symmetry D_4h.


 Subroutine INISYM returns: Found 16 space group operations
 (whereof 16 operations are pure point group operations),
 and found     2 'primitive' translations


----------------------------------------------------------------------------------------

                                     Primitive cell                                     

  volume of cell :     119.0620

  direct lattice vectors                    reciprocal lattice vectors
     3.858324225 -2.836240929  0.000000000     0.168258526 -0.123686267  0.000000000
     2.084910997  2.836240929  3.246482338     0.090922280  0.123687530  0.141577084
    -2.084910997 -2.836240929  3.816807662    -0.077336246 -0.105205559  0.141577084

  length of vectors
     4.788624900  4.788607735  5.192218909     0.208828217  0.208828966  0.192595886

  position of ions in fractional coordinates (direct lattice)
     0.000000000  0.000000000  0.500000000
     0.500000000  0.000000000  0.500000000
     0.500000000  0.500000000  0.500000000
     0.000000000  0.500000000  0.500000000
     0.000000000  0.000000000  0.000000000

  ion indices of the primitive-cell ions
   primitive index   ion index
                 1           1
                 2           3
                 3           4
                 4           6
                 5           9

----------------------------------------------------------------------------------------

 
 
 KPOINTS: EA                                      

Automatic generation of k-mesh.
 Grid dimensions read from file:
 generate k-points for:    6    6    7

 Generating k-lattice:

  Cartesian coordinates                     Fractional coordinates (reciprocal lattice)
     0.028043088  0.008767235  0.000000000     0.166666667  0.000000000  0.000000000
     0.000000000  0.029381613  0.000000000     0.000000000  0.166666667  0.000000000
     0.012988897  0.017669647  0.020225298    -0.000000000  0.000000000  0.142857143

  Length of vectors
     0.029381613  0.029381613  0.029832709

  Shift w.r.t. Gamma in fractional coordinates (k-lattice)
     0.000000000  0.000000000  0.000000000

 -----------------------------------------------------------------------------
|                                                                             |
|           W    W    AA    RRRRR   N    N  II  N    N   GGGG   !!!           |
|           W    W   A  A   R    R  NN   N  II  NN   N  G    G  !!!           |
|           W    W  A    A  R    R  N N  N  II  N N  N  G       !!!           |
|           W WW W  AAAAAA  RRRRR   N  N N  II  N  N N  G  GGG   !            |
|           WW  WW  A    A  R   R   N   NN  II  N   NN  G    G                |
|           W    W  A    A  R    R  N    N  II  N    N   GGGG   !!!           |
|                                                                             |
|     Your reciprocal lattice and k-lattice belong to different lattice       |
|     classes:                                                                |
|                                                                             |
|        The reciprocal lattice is body-centered tetragonal,                  |
|        whereas your k-lattice is base-centered monoclinic.                  |
|                                                                             |
|     Results are often still useful ...                                      |
|                                                                             |
 -----------------------------------------------------------------------------

 WARNING: IBZKPT: internal override: KBLOWUP is changed to .FALSE.
      ... skipping the blow-up phase ...

 
 Subroutine IBZKPT returns following result:
 ===========================================
 
 Found     76 irreducible k-points:
 
 Following reciprocal coordinates:
            Coordinates               Weight
  0.000000  0.000000  0.000000      1.000000
  0.166667  0.000000  0.000000      4.000000
  0.333333  0.000000  0.000000      4.000000
  0.500000 -0.000000  0.000000      2.000000
  0.166667  0.166667  0.000000      2.000000
  0.333333  0.166667  0.000000      4.000000
  0.500000  0.166667  0.000000      4.000000
 -0.333333  0.166667  0.000000      4.000000
 -0.166667  0.166667  0.000000      2.000000
  0.333333  0.333333  0.000000      2.000000
  0.500000  0.333333  0.000000      4.000000
 -0.333333  0.333333  0.000000      2.000000
  0.500000  0.500000  0.000000      1.000000
  0.000000  0.000000  0.142857      2.000000
  0.166667  0.000000  0.142857      4.000000
  0.333333  0.000000  0.142857      4.000000
  0.500000 -0.000000  0.142857      4.000000
 -0.333333  0.000000  0.142857      4.000000
 -0.166667  0.000000  0.142857      4.000000
  0.166667  0.166667  0.142857      2.000000
  0.333333  0.166667  0.142857      4.000000
  0.500000  0.166667  0.142857      4.000000
 -0.333333  0.166667  0.142857      4.000000
 -0.166667  0.166667  0.142857      4.000000
  0.333333  0.333333  0.142857      2.000000
  0.500000  0.333333  0.142857      4.000000
 -0.333333  0.333333  0.142857      4.000000
 -0.166667  0.333333  0.142857      4.000000
  0.500000  0.500000  0.142857      2.000000
 -0.333333  0.500000  0.142857      4.000000
 -0.166667  0.500000  0.142857      4.000000
 -0.333333 -0.333333  0.142857      2.000000
 -0.166667 -0.333333  0.142857      4.000000
 -0.166667 -0.166667  0.142857      2.000000
  0.000000  0.000000  0.285714      2.000000
  0.166667 -0.000000  0.285714      4.000000
  0.333333 -0.000000  0.285714      4.000000
  0.500000  0.000000  0.285714      4.000000
 -0.333333 -0.000000  0.285714      4.000000
 -0.166667 -0.000000  0.285714      4.000000
  0.166667  0.166667  0.285714      2.000000
  0.333333  0.166667  0.285714      4.000000
  0.500000  0.166667  0.285714      4.000000
 -0.333333  0.166667  0.285714      4.000000
 -0.166667  0.166667  0.285714      4.000000
  0.333333  0.333333  0.285714      2.000000
  0.500000  0.333333  0.285714      4.000000
 -0.333333  0.333333  0.285714      4.000000
 -0.166667  0.333333  0.285714      4.000000
  0.500000  0.500000  0.285714      2.000000
 -0.333333  0.500000  0.285714      4.000000
 -0.166667  0.500000  0.285714      4.000000
 -0.333333 -0.333333  0.285714      2.000000
 -0.166667 -0.333333  0.285714      4.000000
 -0.166667 -0.166667  0.285714      2.000000
  0.000000  0.000000  0.428571      2.000000
  0.166667  0.000000  0.428571      4.000000
  0.333333  0.000000  0.428571      4.000000
  0.500000 -0.000000  0.428571      4.000000
 -0.333333 -0.000000  0.428571      4.000000
 -0.166667 -0.000000  0.428571      4.000000
  0.166667  0.166667  0.428571      2.000000
  0.333333  0.166667  0.428571      4.000000
  0.500000  0.166667  0.428571      4.000000
 -0.333333  0.166667  0.428571      4.000000
 -0.166667  0.166667  0.428571      4.000000
  0.333333  0.333333  0.428571      2.000000
  0.500000  0.333333  0.428571      4.000000
 -0.333333  0.333333  0.428571      4.000000
 -0.166667  0.333333  0.428571      4.000000
  0.500000  0.500000  0.428571      2.000000
 -0.333333  0.500000  0.428571      4.000000
 -0.166667  0.500000  0.428571      4.000000
 -0.333333 -0.333333  0.428571      2.000000
 -0.166667 -0.333333  0.428571      4.000000
 -0.166667 -0.166667  0.428571      2.000000
 
 Following cartesian coordinates:
            Coordinates               Weight
  0.000000  0.000000  0.000000      1.000000
  0.028043  0.008767  0.000000      4.000000
  0.056086  0.017534  0.000000      4.000000
  0.084129  0.026302  0.000000      2.000000
  0.028043  0.038149  0.000000      2.000000
  0.056086  0.046916  0.000000      4.000000
  0.084129  0.055683  0.000000      4.000000
 -0.056086  0.011847  0.000000      4.000000
 -0.028043  0.020614  0.000000      2.000000
  0.056086  0.076298  0.000000      2.000000
  0.084129  0.085065  0.000000      4.000000
 -0.056086  0.041229  0.000000      2.000000
  0.084129  0.114447  0.000000      1.000000
  0.012989  0.017670  0.020225      2.000000
  0.041032  0.026437  0.020225      4.000000
  0.069075  0.035204  0.020225      4.000000
  0.097118  0.043971  0.020225      4.000000
 -0.043097  0.000135  0.020225      4.000000
 -0.015054  0.008902  0.020225      4.000000
  0.041032  0.055818  0.020225      2.000000
  0.069075  0.064586  0.020225      4.000000
  0.097118  0.073353  0.020225      4.000000
 -0.043097  0.029517  0.020225      4.000000
 -0.015054  0.038284  0.020225      4.000000
  0.069075  0.093967  0.020225      2.000000
  0.097118  0.102735  0.020225      4.000000
 -0.043097  0.058898  0.020225      4.000000
 -0.015054  0.067666  0.020225      4.000000
  0.097118  0.132116  0.020225      2.000000
 -0.043097  0.088280  0.020225      4.000000
 -0.015054  0.097047  0.020225      4.000000
 -0.043097 -0.058628  0.020225      2.000000
 -0.015054 -0.049861  0.020225      4.000000
 -0.015054 -0.020479  0.020225      2.000000
  0.025978  0.035339  0.040451      2.000000
  0.054021  0.044107  0.040451      4.000000
  0.082064  0.052874  0.040451      4.000000
  0.110107  0.061641  0.040451      4.000000
 -0.030108  0.017805  0.040451      4.000000
 -0.002065  0.026572  0.040451      4.000000
  0.054021  0.073488  0.040451      2.000000
  0.082064  0.082255  0.040451      4.000000
  0.110107  0.091023  0.040451      4.000000
 -0.030108  0.047186  0.040451      4.000000
 -0.002065  0.055954  0.040451      4.000000
  0.082064  0.111637  0.040451      2.000000
  0.110107  0.120404  0.040451      4.000000
 -0.030108  0.076568  0.040451      4.000000
 -0.002065  0.085335  0.040451      4.000000
  0.110107  0.149786  0.040451      2.000000
 -0.030108  0.105950  0.040451      4.000000
 -0.002065  0.114717  0.040451      4.000000
 -0.030108 -0.040958  0.040451      2.000000
 -0.002065 -0.032191  0.040451      4.000000
 -0.002065 -0.002810  0.040451      2.000000
  0.038967  0.053009  0.060676      2.000000
  0.067010  0.061776  0.060676      4.000000
  0.095053  0.070543  0.060676      4.000000
  0.123096  0.079311  0.060676      4.000000
 -0.017119  0.035474  0.060676      4.000000
  0.010924  0.044242  0.060676      4.000000
  0.067010  0.091158  0.060676      2.000000
  0.095053  0.099925  0.060676      4.000000
  0.123096  0.108692  0.060676      4.000000
 -0.017119  0.064856  0.060676      4.000000
  0.010924  0.073623  0.060676      4.000000
  0.095053  0.129307  0.060676      2.000000
  0.123096  0.138074  0.060676      4.000000
 -0.017119  0.094238  0.060676      4.000000
  0.010924  0.103005  0.060676      4.000000
  0.123096  0.167455  0.060676      2.000000
 -0.017119  0.123619  0.060676      4.000000
  0.010924  0.132387  0.060676      4.000000
 -0.017119 -0.023289  0.060676      2.000000
  0.010924 -0.014522  0.060676      4.000000
  0.010924  0.014860  0.060676      2.000000
 


--------------------------------------------------------------------------------------------------------




 Dimension of arrays:
   k-points           NKPTS =     76   k-points in BZ     NKDIM =     76   number of bands    NBANDS=     60
   number of dos      NEDOS =    301   number of ions     NIONS =     10
   non local maximal  LDIM  =      6   non local SUM 2l+1 LMDIM =     18
   total plane-waves  NPLWV = 175616
   max r-space proj   IRMAX =      1   max aug-charges    IRDMAX= 258185
   dimension x,y,z NGX =    56 NGY =   56 NGZ =   56
   dimension x,y,z NGXF=   112 NGYF=  112 NGZF=  112
   support grid    NGXF=   224 NGYF=  224 NGZF=  224
   ions per type =               2   6   2
   NGX,Y,Z   is equivalent  to a cutoff of  13.18, 13.18, 13.18 a.u.
   NGXF,Y,Z  is equivalent  to a cutoff of  26.36, 26.36, 26.36 a.u.

 SYSTEM =  routine with relax: pwdword             
 POSCAR =  EA28                                    

 Startparameter for this run:
   NWRITE =      2    write-flag & timer
   PREC   = acc       normal or accurate (medium, high low for compatibility)
   ISTART =      0    job   : 0-new  1-cont  2-samecut
   ICHARG =      2    charge: 1-file 2-atom 10-const
   ISPIN  =      1    spin polarized calculation?
   LNONCOLLINEAR =      F non collinear calculations
   LSORBIT =      F    spin-orbit coupling
   INIWAV =      1    electr: 0-lowe 1-rand  2-diag
   LASPH  =      T    aspherical Exc in radial PAW
   METAGGA=      F    non-selfconsistent MetaGGA calc.

 Electronic Relaxation 1
   ENCUT  =  600.0 eV  44.10 Ry    6.64 a.u.  14.11 14.11 14.11*2*pi/ulx,y,z
   ENINI  =  600.0     initial cutoff
   ENAUG  =  535.5 eV  augmentation charge cutoff
   NELM   =    100;   NELMIN=  6; NELMDL= -5     # of ELM steps 
   EDIFF  = 0.1E-08   stopping-criterion for ELM
   LREAL  =      F    real-space projection
   NLSPLINE    = F    spline interpolate recip. space projectors
   LCOMPAT=      F    compatible to vasp.4.4
   GGA_COMPAT  = T    GGA compatible to vasp.4.4-vasp.4.6
   LMAXPAW     = -100 max onsite density
   LMAXMIX     =    2 max onsite mixed and CHGCAR
   VOSKOWN=      0    Vosko Wilk Nusair interpolation
   ROPT   =    0.00000   0.00000   0.00000
 Ionic relaxation
   EDIFFG = 0.1E-07   stopping-criterion for IOM
   NSW    =      0    number of steps for IOM
   NBLOCK =      1;   KBLOCK =      1    inner block; outer block 
   IBRION =     -1    ionic relax: 0-MD 1-quasi-New 2-CG
   NFREE  =      0    steps in history (QN), initial steepest desc. (CG)
   ISIF   =     -1    stress and relaxation
   IWAVPR =     10    prediction:  0-non 1-charg 2-wave 3-comb
   ISYM   =      2    0-nonsym 1-usesym 2-fastsym
   LCORR  =      T    Harris-Foulkes like correction to forces

   POTIM  = 0.5000    time-step for ionic-motion
   TEIN   =    0.0    initial temperature
   TEBEG  =    0.0;   TEEND  =   0.0 temperature during run
   SMASS  =  -3.00    Nose mass-parameter (am)
   estimated Nose-frequenzy (Omega)   =  0.10E-29 period in steps = 0.13E+47 mass=  -0.114E-26a.u.
   SCALEE = 1.0000    scale energy and forces
   NPACO  =    256;   APACO  = 16.0  distance and # of slots for P.C.
   PSTRESS=    0.0 pullay stress

  Mass of Ions in am
   POMASS =  10.81 95.94 28.09
  Ionic Valenz
   ZVAL   =   3.00 14.00  4.00
  Atomic Wigner-Seitz radii
   RWIGS  =  -1.00 -1.00 -1.00
  virtual crystal weights 
   VCA    =   1.00  1.00  1.00
   NELECT =      98.0000    total number of electrons
   NUPDOWN=      -1.0000    fix difference up-down

 DOS related values:
   EMIN   =  10.00;   EMAX   =-10.00  energy-range for DOS
   EFERMI =   0.00
   ISMEAR =     0;   SIGMA  =   0.02  broadening in eV -4-tet -1-fermi 0-gaus

 Electronic relaxation 2 (details)
   IALGO  =     58    algorithm
   LDIAG  =      T    sub-space diagonalisation (order eigenvalues)
   LSUBROT=      F    optimize rotation matrix (better conditioning)
   TURBO    =      0    0=normal 1=particle mesh
   IRESTART =      0    0=no restart 2=restart with 2 vectors
   NREBOOT  =      0    no. of reboots
   NMIN     =      0    reboot dimension
   EREF     =   0.00    reference energy to select bands
   IMIX   =      4    mixing-type and parameters
     AMIX     =   0.40;   BMIX     =  1.00
     AMIX_MAG =   1.60;   BMIX_MAG =  1.00
     AMIN     =   0.10
     WC   =   100.;   INIMIX=   1;  MIXPRE=   1;  MAXMIX= -45

 Intra band minimization:
   WEIMIN = 0.0000     energy-eigenvalue tresh-hold
   EBREAK =  0.42E-11  absolut break condition
   DEPER  =   0.30     relativ break condition  

   TIME   =   0.40     timestep for ELM

  volume/ion in A,a.u.               =      23.81       160.69
  Fermi-wavevector in a.u.,A,eV,Ry     =   1.217725  2.301166 20.175451  1.482854
  Thomas-Fermi vector in A             =   2.353035
 
 Write flags
   LWAVE        =      T    write WAVECAR
   LDOWNSAMPLE  =      F    k-point downsampling of WAVECAR
   LCHARG       =      T    write CHGCAR
   LVTOT        =      F    write LOCPOT, total local potential
   LVHAR        =      F    write LOCPOT, Hartree potential only
   LELF         =      F    write electronic localiz. function (ELF)
   LORBIT       =      0    0 simple, 1 ext, 2 COOP (PROOUT), +10 PAW based schemes


 Dipole corrections
   LMONO  =      F    monopole corrections only (constant potential shift)
   LDIPOL =      F    correct potential (dipole corrections)
   IDIPOL =      0    1-x, 2-y, 3-z, 4-all directions 
   EPSILON=  1.0000000 bulk dielectric constant

 Exchange correlation treatment:
   GGA     =    --    GGA type
   LEXCH   =     8    internal setting for exchange type
   VOSKOWN=      0    Vosko Wilk Nusair interpolation
   LHFCALC =     F    Hartree Fock is set to
   LHFONE  =     F    Hartree Fock one center treatment
   AEXX    =    0.0000 exact exchange contribution

 Linear response parameters
   LEPSILON=     F    determine dielectric tensor
   LRPA    =     F    only Hartree local field effects (RPA)
   LNABLA  =     F    use nabla operator in PAW spheres
   LVEL    =     F    velocity operator in full k-point grid
   LINTERFAST=   F  fast interpolation
   KINTER  =     0    interpolate to denser k-point grid
   CSHIFT  =0.1000    complex shift for real part using Kramers Kronig
   OMEGAMAX=  -1.0    maximum frequency
   DEG_THRESHOLD= 0.2000000E-02 threshold for treating states as degnerate
   RTIME   =   -0.100 relaxation time in fs
  (WPLASMAI=    0.000 imaginary part of plasma frequency in eV, 0.658/RTIME)
   DFIELD  = 0.0000000 0.0000000 0.0000000 field for delta impulse in time
 
 Orbital magnetization related:
   ORBITALMAG=     F  switch on orbital magnetization
   LCHIMAG   =     F  perturbation theory with respect to B field
   DQ        =  0.001000  dq finite difference perturbation B field
   LLRAUG    =     F  two centre corrections for induced B field



--------------------------------------------------------------------------------------------------------


 Static calculation
 charge density and potential will be updated during run
 non-spin polarized calculation
 Conjugate gradient for all bands (Freysoldt, et al. PRB 79, 241103 (2009))
 preconditioned conjugated gradient                                        
 perform sub-space diagonalisation
    before iterative eigenvector-optimisation
 modified Broyden-mixing scheme, WC =      100.0
 initial mixing is a Kerker type mixing with AMIX =  0.4000 and BMIX =      1.0000
 Hartree-type preconditioning will be used
 using additional bands           11
 reciprocal scheme for non local part
 use partial core corrections
 no Harris-corrections to forces 
 use gradient corrections 
 use of overlap-Matrix (Vanderbilt PP)
 Gauss-broadening in eV      SIGMA  =   0.02


--------------------------------------------------------------------------------------------------------


  energy-cutoff  :      600.00
  volume of cell :      238.12
      direct lattice vectors                 reciprocal lattice vectors
     5.943235222  0.000000000 -3.816807662     0.168258526  0.052603411  0.000000000
    -1.773413228  5.672481857 -3.816807662     0.000000000  0.176289678  0.000000000
     0.000000000  0.000000000  7.063290000     0.090922280  0.123687530  0.141577084

  length of vectors
     7.063290000  7.063290000  7.063290000     0.176289678  0.176289678  0.208828966


 
 k-points in units of 2pi/SCALE and weight: EA                                      
   0.00000000  0.00000000  0.00000000       0.004
   0.02804309  0.00876724  0.00000000       0.016
   0.05608618  0.01753447  0.00000000       0.016
   0.08412926  0.02630171  0.00000000       0.008
   0.02804309  0.03814885  0.00000000       0.008
   0.05608618  0.04691608  0.00000000       0.016
   0.08412926  0.05568332  0.00000000       0.016
  -0.05608618  0.01184714  0.00000000       0.016
  -0.02804309  0.02061438  0.00000000       0.008
   0.05608618  0.07629770  0.00000000       0.008
   0.08412926  0.08506493  0.00000000       0.016
  -0.05608618  0.04122876  0.00000000       0.008
   0.08412926  0.11444654  0.00000000       0.004
   0.01298890  0.01766965  0.02022530       0.008
   0.04103198  0.02643688  0.02022530       0.016
   0.06907507  0.03520412  0.02022530       0.016
   0.09711816  0.04397135  0.02022530       0.016
  -0.04309728  0.00013518  0.02022530       0.016
  -0.01505419  0.00890241  0.02022530       0.016
   0.04103198  0.05581850  0.02022530       0.008
   0.06907507  0.06458573  0.02022530       0.016
   0.09711816  0.07335297  0.02022530       0.016
  -0.04309728  0.02951679  0.02022530       0.016
  -0.01505419  0.03828402  0.02022530       0.016
   0.06907507  0.09396734  0.02022530       0.008
   0.09711816  0.10273458  0.02022530       0.016
  -0.04309728  0.05889840  0.02022530       0.016
  -0.01505419  0.06766564  0.02022530       0.016
   0.09711816  0.13211619  0.02022530       0.008
  -0.04309728  0.08828002  0.02022530       0.016
  -0.01505419  0.09704725  0.02022530       0.016
  -0.04309728 -0.05862805  0.02022530       0.008
  -0.01505419 -0.04986081  0.02022530       0.016
  -0.01505419 -0.02047920  0.02022530       0.008
   0.02597779  0.03533929  0.04045060       0.008
   0.05402088  0.04410653  0.04045060       0.016
   0.08206397  0.05287376  0.04045060       0.016
   0.11010706  0.06164100  0.04045060       0.016
  -0.03010838  0.01780482  0.04045060       0.016
  -0.00206529  0.02657206  0.04045060       0.016
   0.05402088  0.07348814  0.04045060       0.008
   0.08206397  0.08225538  0.04045060       0.016
   0.11010706  0.09102261  0.04045060       0.016
  -0.03010838  0.04718644  0.04045060       0.016
  -0.00206529  0.05595367  0.04045060       0.016
   0.08206397  0.11163699  0.04045060       0.008
   0.11010706  0.12040423  0.04045060       0.016
  -0.03010838  0.07656805  0.04045060       0.016
  -0.00206529  0.08533529  0.04045060       0.016
   0.11010706  0.14978584  0.04045060       0.008
  -0.03010838  0.10594966  0.04045060       0.016
  -0.00206529  0.11471690  0.04045060       0.016
  -0.03010838 -0.04095840  0.04045060       0.008
  -0.00206529 -0.03219117  0.04045060       0.016
  -0.00206529 -0.00280955  0.04045060       0.008
   0.03896669  0.05300894  0.06067589       0.008
   0.06700978  0.06177618  0.06067589       0.016
   0.09505287  0.07054341  0.06067589       0.016
   0.12309595  0.07931065  0.06067589       0.016
  -0.01711948  0.03547447  0.06067589       0.016
   0.01092360  0.04424171  0.06067589       0.016
   0.06700978  0.09115779  0.06067589       0.008
   0.09505287  0.09992503  0.06067589       0.016
   0.12309595  0.10869226  0.06067589       0.016
  -0.01711948  0.06485608  0.06067589       0.016
   0.01092360  0.07362332  0.06067589       0.016
   0.09505287  0.12930664  0.06067589       0.008
   0.12309595  0.13807387  0.06067589       0.016
  -0.01711948  0.09423770  0.06067589       0.016
   0.01092360  0.10300493  0.06067589       0.016
   0.12309595  0.16745549  0.06067589       0.008
  -0.01711948  0.12361931  0.06067589       0.016
   0.01092360  0.13238655  0.06067589       0.016
  -0.01711948 -0.02328875  0.06067589       0.008
   0.01092360 -0.01452152  0.06067589       0.016
   0.01092360  0.01486009  0.06067589       0.008
 
 k-points in reciprocal lattice and weights: EA                                      
   0.00000000  0.00000000  0.00000000       0.004
   0.16666667  0.00000000  0.00000000       0.016
   0.33333333  0.00000000  0.00000000       0.016
   0.50000000 -0.00000000  0.00000000       0.008
   0.16666667  0.16666667  0.00000000       0.008
   0.33333333  0.16666667  0.00000000       0.016
   0.50000000  0.16666667  0.00000000       0.016
  -0.33333333  0.16666667  0.00000000       0.016
  -0.16666667  0.16666667  0.00000000       0.008
   0.33333333  0.33333333  0.00000000       0.008
   0.50000000  0.33333333  0.00000000       0.016
  -0.33333333  0.33333333  0.00000000       0.008
   0.50000000  0.50000000  0.00000000       0.004
   0.00000000  0.00000000  0.14285714       0.008
   0.16666667  0.00000000  0.14285714       0.016
   0.33333333  0.00000000  0.14285714       0.016
   0.50000000 -0.00000000  0.14285714       0.016
  -0.33333333  0.00000000  0.14285714       0.016
  -0.16666667  0.00000000  0.14285714       0.016
   0.16666667  0.16666667  0.14285714       0.008
   0.33333333  0.16666667  0.14285714       0.016
   0.50000000  0.16666667  0.14285714       0.016
  -0.33333333  0.16666667  0.14285714       0.016
  -0.16666667  0.16666667  0.14285714       0.016
   0.33333333  0.33333333  0.14285714       0.008
   0.50000000  0.33333333  0.14285714       0.016
  -0.33333333  0.33333333  0.14285714       0.016
  -0.16666667  0.33333333  0.14285714       0.016
   0.50000000  0.50000000  0.14285714       0.008
  -0.33333333  0.50000000  0.14285714       0.016
  -0.16666667  0.50000000  0.14285714       0.016
  -0.33333333 -0.33333333  0.14285714       0.008
  -0.16666667 -0.33333333  0.14285714       0.016
  -0.16666667 -0.16666667  0.14285714       0.008
   0.00000000  0.00000000  0.28571429       0.008
   0.16666667 -0.00000000  0.28571429       0.016
   0.33333333 -0.00000000  0.28571429       0.016
   0.50000000  0.00000000  0.28571429       0.016
  -0.33333333 -0.00000000  0.28571429       0.016
  -0.16666667 -0.00000000  0.28571429       0.016
   0.16666667  0.16666667  0.28571429       0.008
   0.33333333  0.16666667  0.28571429       0.016
   0.50000000  0.16666667  0.28571429       0.016
  -0.33333333  0.16666667  0.28571429       0.016
  -0.16666667  0.16666667  0.28571429       0.016
   0.33333333  0.33333333  0.28571429       0.008
   0.50000000  0.33333333  0.28571429       0.016
  -0.33333333  0.33333333  0.28571429       0.016
  -0.16666667  0.33333333  0.28571429       0.016
   0.50000000  0.50000000  0.28571429       0.008
  -0.33333333  0.50000000  0.28571429       0.016
  -0.16666667  0.50000000  0.28571429       0.016
  -0.33333333 -0.33333333  0.28571429       0.008
  -0.16666667 -0.33333333  0.28571429       0.016
  -0.16666667 -0.16666667  0.28571429       0.008
   0.00000000  0.00000000  0.42857143       0.008
   0.16666667  0.00000000  0.42857143       0.016
   0.33333333  0.00000000  0.42857143       0.016
   0.50000000 -0.00000000  0.42857143       0.016
  -0.33333333 -0.00000000  0.42857143       0.016
  -0.16666667 -0.00000000  0.42857143       0.016
   0.16666667  0.16666667  0.42857143       0.008
   0.33333333  0.16666667  0.42857143       0.016
   0.50000000  0.16666667  0.42857143       0.016
  -0.33333333  0.16666667  0.42857143       0.016
  -0.16666667  0.16666667  0.42857143       0.016
   0.33333333  0.33333333  0.42857143       0.008
   0.50000000  0.33333333  0.42857143       0.016
  -0.33333333  0.33333333  0.42857143       0.016
  -0.16666667  0.33333333  0.42857143       0.016
   0.50000000  0.50000000  0.42857143       0.008
  -0.33333333  0.50000000  0.42857143       0.016
  -0.16666667  0.50000000  0.42857143       0.016
  -0.33333333 -0.33333333  0.42857143       0.008
  -0.16666667 -0.33333333  0.42857143       0.016
  -0.16666667 -0.16666667  0.42857143       0.008
 
 position of ions in fractional coordinates (direct lattice) 
   0.25000000  0.25000000  0.00000000
   0.75000000  0.75000000  0.00000000
   0.50000000  0.00000000  0.00000000
   0.25000000  0.75000000  0.50000000
   0.75000000  0.25000000  0.50000000
   0.00000000  0.00000000  0.50000000
   0.00000000  0.50000000  0.00000000
   0.50000000  0.50000000  0.50000000
   0.50000000  0.50000000  0.00000000
   0.00000000  0.00000000  0.00000000
 
 position of ions in cartesian coordinates  (Angst):
   1.04245550  1.41812046 -1.90840383
   3.12736650  4.25436139 -5.72521149
   2.97161761  0.00000000 -1.90840383
   0.15574888  4.25436139 -0.28516266
   4.01407311  1.41812046 -0.28516266
   0.00000000  0.00000000  3.53164500
  -0.88670661  2.83624093 -1.90840383
   2.08491100  2.83624093 -0.28516266
   2.08491100  2.83624093 -3.81680766
   0.00000000  0.00000000  0.00000000
 


--------------------------------------------------------------------------------------------------------


 k-point   1 :   0.0000 0.0000 0.0000  plane waves:    7921
 k-point   2 :   0.1667 0.0000 0.0000  plane waves:    7937
 k-point   3 :   0.3333 0.0000 0.0000  plane waves:    7949
 k-point   4 :   0.5000-0.0000 0.0000  plane waves:    7948
 k-point   5 :   0.1667 0.1667 0.0000  plane waves:    7959
 k-point   6 :   0.3333 0.1667 0.0000  plane waves:    7941
 k-point   7 :   0.5000 0.1667 0.0000  plane waves:    7944
 k-point   8 :  -0.3333 0.1667 0.0000  plane waves:    7943
 k-point   9 :  -0.1667 0.1667 0.0000  plane waves:    7927
 k-point  10 :   0.3333 0.3333 0.0000  plane waves:    7940
 k-point  11 :   0.5000 0.3333 0.0000  plane waves:    7941
 k-point  12 :  -0.3333 0.3333 0.0000  plane waves:    7943
 k-point  13 :   0.5000 0.5000 0.0000  plane waves:    7924
 k-point  14 :   0.0000 0.0000 0.1429  plane waves:    7939
 k-point  15 :   0.1667 0.0000 0.1429  plane waves:    7952
 k-point  16 :   0.3333 0.0000 0.1429  plane waves:    7948
 k-point  17 :   0.5000-0.0000 0.1429  plane waves:    7948
 k-point  18 :  -0.3333 0.0000 0.1429  plane waves:    7949
 k-point  19 :  -0.1667 0.0000 0.1429  plane waves:    7937
 k-point  20 :   0.1667 0.1667 0.1429  plane waves:    7944
 k-point  21 :   0.3333 0.1667 0.1429  plane waves:    7939
 k-point  22 :   0.5000 0.1667 0.1429  plane waves:    7934
 k-point  23 :  -0.3333 0.1667 0.1429  plane waves:    7947
 k-point  24 :  -0.1667 0.1667 0.1429  plane waves:    7927
 k-point  25 :   0.3333 0.3333 0.1429  plane waves:    7931
 k-point  26 :   0.5000 0.3333 0.1429  plane waves:    7932
 k-point  27 :  -0.3333 0.3333 0.1429  plane waves:    7949
 k-point  28 :  -0.1667 0.3333 0.1429  plane waves:    7944
 k-point  29 :   0.5000 0.5000 0.1429  plane waves:    7936
 k-point  30 :  -0.3333 0.5000 0.1429  plane waves:    7948
 k-point  31 :  -0.1667 0.5000 0.1429  plane waves:    7958
 k-point  32 :  -0.3333-0.3333 0.1429  plane waves:    7957
 k-point  33 :  -0.1667-0.3333 0.1429  plane waves:    7953
 k-point  34 :  -0.1667-0.1667 0.1429  plane waves:    7930
 k-point  35 :   0.0000 0.0000 0.2857  plane waves:    7961
 k-point  36 :   0.1667-0.0000 0.2857  plane waves:    7938
 k-point  37 :   0.3333-0.0000 0.2857  plane waves:    7947
 k-point  38 :   0.5000 0.0000 0.2857  plane waves:    7943
 k-point  39 :  -0.3333-0.0000 0.2857  plane waves:    7951
 k-point  40 :  -0.1667-0.0000 0.2857  plane waves:    7937
 k-point  41 :   0.1667 0.1667 0.2857  plane waves:    7924
 k-point  42 :   0.3333 0.1667 0.2857  plane waves:    7933
 k-point  43 :   0.5000 0.1667 0.2857  plane waves:    7943
 k-point  44 :  -0.3333 0.1667 0.2857  plane waves:    7933
 k-point  45 :  -0.1667 0.1667 0.2857  plane waves:    7954
 k-point  46 :   0.3333 0.3333 0.2857  plane waves:    7940
 k-point  47 :   0.5000 0.3333 0.2857  plane waves:    7950
 k-point  48 :  -0.3333 0.3333 0.2857  plane waves:    7960
 k-point  49 :  -0.1667 0.3333 0.2857  plane waves:    7959
 k-point  50 :   0.5000 0.5000 0.2857  plane waves:    7966
 k-point  51 :  -0.3333 0.5000 0.2857  plane waves:    7962
 k-point  52 :  -0.1667 0.5000 0.2857  plane waves:    7962
 k-point  53 :  -0.3333-0.3333 0.2857  plane waves:    7958
 k-point  54 :  -0.1667-0.3333 0.2857  plane waves:    7956
 k-point  55 :  -0.1667-0.1667 0.2857  plane waves:    7953
 k-point  56 :   0.0000 0.0000 0.4286  plane waves:    7949
 k-point  57 :   0.1667 0.0000 0.4286  plane waves:    7932
 k-point  58 :   0.3333 0.0000 0.4286  plane waves:    7949
 k-point  59 :   0.5000-0.0000 0.4286  plane waves:    7955
 k-point  60 :  -0.3333-0.0000 0.4286  plane waves:    7926
 k-point  61 :  -0.1667-0.0000 0.4286  plane waves:    7945
 k-point  62 :   0.1667 0.1667 0.4286  plane waves:    7926
 k-point  63 :   0.3333 0.1667 0.4286  plane waves:    7956
 k-point  64 :   0.5000 0.1667 0.4286  plane waves:    7958
 k-point  65 :  -0.3333 0.1667 0.4286  plane waves:    7957
 k-point  66 :  -0.1667 0.1667 0.4286  plane waves:    7938
 k-point  67 :   0.3333 0.3333 0.4286  plane waves:    7954
 k-point  68 :   0.5000 0.3333 0.4286  plane waves:    7960
 k-point  69 :  -0.3333 0.3333 0.4286  plane waves:    7966
 k-point  70 :  -0.1667 0.3333 0.4286  plane waves:    7954
 k-point  71 :   0.5000 0.5000 0.4286  plane waves:    7972
 k-point  72 :  -0.3333 0.5000 0.4286  plane waves:    7968
 k-point  73 :  -0.1667 0.5000 0.4286  plane waves:    7969
 k-point  74 :  -0.3333-0.3333 0.4286  plane waves:    7958
 k-point  75 :  -0.1667-0.3333 0.4286  plane waves:    7954
 k-point  76 :  -0.1667-0.1667 0.4286  plane waves:    7948

 maximum and minimum number of plane-waves per node :      4012     3950

 maximum number of plane-waves:      7972
 maximum index in each direction: 
   IXMAX=   14   IYMAX=   14   IZMAX=   14
   IXMIN=  -14   IYMIN=  -14   IZMIN=  -14


 parallel 3D FFT for wavefunctions:
    minimum data exchange during FFTs selected (reduces bandwidth)
 parallel 3D FFT for charge:
    minimum data exchange during FFTs selected (reduces bandwidth)


 total amount of memory used by VASP MPI-rank0   347182. kBytes
=======================================================================

   base      :      30000. kBytes
   nonl-proj :     132429. kBytes
   fftplans  :      20117. kBytes
   grid      :      15504. kBytes
   one-center:         77. kBytes
   wavefun   :     149055. kBytes
 
     INWAV:  cpu time    0.0002: real time    0.0008
 Broyden mixing: mesh for mixing (old mesh)
   NGX = 29   NGY = 29   NGZ = 29
  (NGX  =112   NGY  =112   NGZ  =112)
  gives a total of  24389 points

 initial charge density was supplied:
 charge density of overlapping atoms calculated
 number of electron      98.0000000 magnetization 
 keeping initial charge density in first step


--------------------------------------------------------------------------------------------------------


 Maximum index for augmentation-charges        22324 (set IRDMAX)


--------------------------------------------------------------------------------------------------------


 First call to EWALD:  gamma=   0.286
 Maximum number of real-space cells 3x 3x 3
 Maximum number of reciprocal cells 3x 3x 3

    FEWALD:  cpu time    0.0500: real time    0.0502


--------------------------------------- Iteration      1(   1)  ---------------------------------------


    POTLOK:  cpu time    0.1972: real time    0.1989
    SETDIJ:  cpu time    0.4681: real time    0.4716
    TRIAL :  cpu time   19.2482: real time   19.4657
    CORREC:  cpu time    0.0015: real time    0.0016
    --------------------------------------------
      LOOP:  cpu time   19.9831: real time   20.2307

 eigenvalue-minimisations  : 10020
 total energy-change (2. order) : 0.9948236E+03  (-0.6418266E+04)
 number of electron      98.0000000 magnetization 
 augmentation part       98.0000000 magnetization 

 Free energy of the ion-electron system (eV)
  ---------------------------------------------------
  alpha Z        PSCENC =       350.84436808
  Ewald energy   TEWEN  =     -6492.62561334
  -Hartree energ DENC   =     -4367.71161102
  -exchange      EXHF   =         0.00000000
  -V(xc)+E(xc)   XCENC  =       456.11807102
  PAW double counting   =      9166.97638771    -9126.13493418
  entropy T*S    EENTRO =        -0.00123256
  eigenvalues    EBANDS =      -514.80926767
  atomic energy  EATOM  =     11522.16744521
  ---------------------------------------------------
  free energy    TOTEN  =       994.82361325 eV

  energy without entropy =      994.82484582  energy(sigma->0) =      994.82422953


--------------------------------------------------------------------------------------------------------




--------------------------------------- Iteration      1(   2)  ---------------------------------------


    TRIAL :  cpu time   20.2350: real time   20.4661
    CORREC:  cpu time    0.0013: real time    0.0013
    --------------------------------------------
      LOOP:  cpu time   20.2378: real time   20.4697

 eigenvalue-minimisations  : 10116
 total energy-change (2. order) :-0.1152729E+04  (-0.1119928E+04)
 number of electron      98.0000000 magnetization 
 augmentation part       98.0000000 magnetization 

 Free energy of the ion-electron system (eV)
  ---------------------------------------------------
  alpha Z        PSCENC =       350.84436808
  Ewald energy   TEWEN  =     -6492.62561334
  -Hartree energ DENC   =     -4367.71161102
  -exchange      EXHF   =         0.00000000
  -V(xc)+E(xc)   XCENC  =       456.11807102
  PAW double counting   =      9166.97638771    -9126.13493418
  entropy T*S    EENTRO =        -0.00201987
  eigenvalues    EBANDS =     -1667.53739079
  atomic energy  EATOM  =     11522.16744521
  ---------------------------------------------------
  free energy    TOTEN  =      -157.90529718 eV

  energy without entropy =     -157.90327730  energy(sigma->0) =     -157.90428724


--------------------------------------------------------------------------------------------------------




--------------------------------------- Iteration      1(   3)  ---------------------------------------


    TRIAL :  cpu time   24.4848: real time   24.7609
    CORREC:  cpu time    0.0013: real time    0.0013
    --------------------------------------------
      LOOP:  cpu time   24.4879: real time   24.7644

 eigenvalue-minimisations  : 12516
 total energy-change (2. order) :-0.5100276E+02  (-0.4812175E+02)
 number of electron      98.0000000 magnetization 
 augmentation part       98.0000000 magnetization 

 Free energy of the ion-electron system (eV)
  ---------------------------------------------------
  alpha Z        PSCENC =       350.84436808
  Ewald energy   TEWEN  =     -6492.62561334
  -Hartree energ DENC   =     -4367.71161102
  -exchange      EXHF   =         0.00000000
  -V(xc)+E(xc)   XCENC  =       456.11807102
  PAW double counting   =      9166.97638771    -9126.13493418
  entropy T*S    EENTRO =        -0.00224377
  eigenvalues    EBANDS =     -1718.53992620
  atomic energy  EATOM  =     11522.16744521
  ---------------------------------------------------
  free energy    TOTEN  =      -208.90805648 eV

  energy without entropy =     -208.90581271  energy(sigma->0) =     -208.90693459


--------------------------------------------------------------------------------------------------------




--------------------------------------- Iteration      1(   4)  ---------------------------------------


    TRIAL :  cpu time   23.2931: real time   23.5525
    CORREC:  cpu time    0.0013: real time    0.0013
    --------------------------------------------
      LOOP:  cpu time   23.2959: real time   23.5558

 eigenvalue-minimisations  : 11784
 total energy-change (2. order) :-0.1748379E+01  (-0.1696190E+01)
 number of electron      98.0000000 magnetization 
 augmentation part       98.0000000 magnetization 

 Free energy of the ion-electron system (eV)
  ---------------------------------------------------
  alpha Z        PSCENC =       350.84436808
  Ewald energy   TEWEN  =     -6492.62561334
  -Hartree energ DENC   =     -4367.71161102
  -exchange      EXHF   =         0.00000000
  -V(xc)+E(xc)   XCENC  =       456.11807102
  PAW double counting   =      9166.97638771    -9126.13493418
  entropy T*S    EENTRO =        -0.00268583
  eigenvalues    EBANDS =     -1720.28786269
  atomic energy  EATOM  =     11522.16744521
  ---------------------------------------------------
  free energy    TOTEN  =      -210.65643502 eV

  energy without entropy =     -210.65374919  energy(sigma->0) =     -210.65509211


--------------------------------------------------------------------------------------------------------




--------------------------------------- Iteration      1(   5)  ---------------------------------------


    TRIAL :  cpu time   23.6259: real time   23.8911
    CORREC:  cpu time    0.0013: real time    0.0013
    CHARGE:  cpu time    1.5896: real time    1.6041
    --------------------------------------------
      LOOP:  cpu time   25.2184: real time   25.4986

 eigenvalue-minimisations  : 12240
 total energy-change (2. order) :-0.5379585E-01  (-0.5349312E-01)
 number of electron      98.0000001 magnetization 
 augmentation part       12.9204339 magnetization 

 Free energy of the ion-electron system (eV)
  ---------------------------------------------------
  alpha Z        PSCENC =       350.84436808
  Ewald energy   TEWEN  =     -6492.62561334
  -Hartree energ DENC   =     -4367.71161102
  -exchange      EXHF   =         0.00000000
  -V(xc)+E(xc)   XCENC  =       456.11807102
  PAW double counting   =      9166.97638771    -9126.13493418
  entropy T*S    EENTRO =        -0.00275414
  eigenvalues    EBANDS =     -1720.34159022
  atomic energy  EATOM  =     11522.16744521
  ---------------------------------------------------
  free energy    TOTEN  =      -210.71023087 eV

  energy without entropy =     -210.70747673  energy(sigma->0) =     -210.70885380


--------------------------------------------------------------------------------------------------------




--------------------------------------- Iteration      1(   6)  ---------------------------------------


    POTLOK:  cpu time    0.1897: real time    0.1910
    SETDIJ:  cpu time    0.5476: real time    0.5527
    TRIAL :  cpu time   17.2656: real time   17.4737
    CORREC:  cpu time    6.4857: real time    6.5459
    CHARGE:  cpu time    1.7760: real time    1.7908
    --------------------------------------------
      LOOP:  cpu time   26.2822: real time   26.5720

 eigenvalue-minimisations  :     0
 total energy-change (2. order) : 0.5721601E+02  (-0.1068777E+02)
 number of electron      98.0000001 magnetization 
 augmentation part       14.1914152 magnetization 

 Free energy of the ion-electron system (eV)
  ---------------------------------------------------
  alpha Z        PSCENC =       350.84436808
  Ewald energy   TEWEN  =     -6492.62561334
  -Hartree energ DENC   =     -4176.93751507
  -exchange      EXHF   =         0.00000000
  -V(xc)+E(xc)   XCENC  =       458.36273320
  PAW double counting   =     11230.18731676   -11220.06565071
  entropy T*S    EENTRO =        -0.00230582
  eigenvalues    EBANDS =     -1825.42454727
  atomic energy  EATOM  =     11522.16744521
  ---------------------------------------------------
  free energy    TOTEN  =      -153.49421728 eV

  energy without entropy =     -153.49191146  energy(sigma->0) =     -153.49306437


--------------------------------------------------------------------------------------------------------




--------------------------------------- Iteration      1(   7)  ---------------------------------------


    POTLOK:  cpu time    0.1719: real time    0.1731
    SETDIJ:  cpu time    0.5358: real time    0.5396
    TRIAL :  cpu time   18.2045: real time   18.3902
    CORREC:  cpu time    6.2950: real time    6.3602
    CHARGE:  cpu time    1.7403: real time    1.7555
    --------------------------------------------
      LOOP:  cpu time   26.9480: real time   27.2198

 eigenvalue-minimisations  :     0
 total energy-change (2. order) :-0.1075439E+02  (-0.2676235E+01)
 number of electron      98.0000001 magnetization 
 augmentation part       14.2907753 magnetization 

 Free energy of the ion-electron system (eV)
  ---------------------------------------------------
  alpha Z        PSCENC =       350.84436808
  Ewald energy   TEWEN  =     -6492.62561334
  -Hartree energ DENC   =     -4292.80905882
  -exchange      EXHF   =         0.00000000
  -V(xc)+E(xc)   XCENC  =       464.14657162
  PAW double counting   =     10858.74424208   -10838.74011338
  entropy T*S    EENTRO =        -0.00332109
  eigenvalues    EBANDS =     -1735.97414669
  atomic energy  EATOM  =     11522.16744521
  ---------------------------------------------------
  free energy    TOTEN  =      -164.24861106 eV

  energy without entropy =     -164.24528997  energy(sigma->0) =     -164.24695052


--------------------------------------------------------------------------------------------------------




--------------------------------------- Iteration      1(   8)  ---------------------------------------


    POTLOK:  cpu time    0.1805: real time    0.1816
    SETDIJ:  cpu time    0.5051: real time    0.5089
    TRIAL :  cpu time   18.1601: real time   18.3482
    CORREC:  cpu time    6.9263: real time    6.9892
    CHARGE:  cpu time    1.7056: real time    1.7203
    --------------------------------------------
      LOOP:  cpu time   27.4786: real time   27.7496

 eigenvalue-minimisations  :     0
 total energy-change (2. order) :-0.2664812E+01  (-0.5745741E+00)
 number of electron      98.0000000 magnetization 
 augmentation part       14.2439481 magnetization 

 Free energy of the ion-electron system (eV)
  ---------------------------------------------------
  alpha Z        PSCENC =       350.84436808
  Ewald energy   TEWEN  =     -6492.62561334
  -Hartree energ DENC   =     -4301.45983374
  -exchange      EXHF   =         0.00000000
  -V(xc)+E(xc)   XCENC  =       464.97548914
  PAW double counting   =     10650.49682029   -10627.53892561
  entropy T*S    EENTRO =        -0.00396450
  eigenvalues    EBANDS =     -1733.76985191
  atomic energy  EATOM  =     11522.16744521
  ---------------------------------------------------
  free energy    TOTEN  =      -166.91342296 eV

  energy without entropy =     -166.90945847  energy(sigma->0) =     -166.91144072


--------------------------------------------------------------------------------------------------------




--------------------------------------- Iteration      1(   9)  ---------------------------------------


    POTLOK:  cpu time    0.1751: real time    0.1763
    SETDIJ:  cpu time    0.5776: real time    0.5825
    TRIAL :  cpu time   17.6451: real time   17.8265
    CORREC:  cpu time    6.7278: real time    6.7885
    CHARGE:  cpu time    1.6691: real time    1.6835
    --------------------------------------------
      LOOP:  cpu time   26.8224: real time   27.0853

 eigenvalue-minimisations  :     0
 total energy-change (2. order) :-0.5749682E+00  (-0.2585029E+00)
 number of electron      98.0000000 magnetization 
 augmentation part       14.2099738 magnetization 

 Free energy of the ion-electron system (eV)
  ---------------------------------------------------
  alpha Z        PSCENC =       350.84436808
  Ewald energy   TEWEN  =     -6492.62561334
  -Hartree energ DENC   =     -4288.62082167
  -exchange      EXHF   =         0.00000000
  -V(xc)+E(xc)   XCENC  =       464.75283040
  PAW double counting   =     10567.55938499   -10543.64092364
  entropy T*S    EENTRO =        -0.00385470
  eigenvalues    EBANDS =     -1747.92109669
  atomic energy  EATOM  =     11522.16744521
  ---------------------------------------------------
  free energy    TOTEN  =      -167.48839116 eV

  energy without entropy =     -167.48453646  energy(sigma->0) =     -167.48646381


--------------------------------------------------------------------------------------------------------




--------------------------------------- Iteration      1(  10)  ---------------------------------------


    POTLOK:  cpu time    0.1722: real time    0.1735
    SETDIJ:  cpu time    0.5460: real time    0.5496
    TRIAL :  cpu time   18.9231: real time   19.1278
    CORREC:  cpu time    6.3400: real time    6.3996
    CHARGE:  cpu time    1.6510: real time    1.6663
    --------------------------------------------
      LOOP:  cpu time   27.6332: real time   27.9180

 eigenvalue-minimisations  :     0
 total energy-change (2. order) :-0.2584713E+00  (-0.1139308E+00)
 number of electron      98.0000000 magnetization 
 augmentation part       14.2347196 magnetization 

 Free energy of the ion-electron system (eV)
  ---------------------------------------------------
  alpha Z        PSCENC =       350.84436808
  Ewald energy   TEWEN  =     -6492.62561334
  -Hartree energ DENC   =     -4285.64470525
  -exchange      EXHF   =         0.00000000
  -V(xc)+E(xc)   XCENC  =       464.87007807
  PAW double counting   =     10516.80006515   -10491.97566956
  entropy T*S    EENTRO =        -0.00411437
  eigenvalues    EBANDS =     -1752.17897614
  atomic energy  EATOM  =     11522.16744521
  ---------------------------------------------------
  free energy    TOTEN  =      -167.74686248 eV

  energy without entropy =     -167.74274810  energy(sigma->0) =     -167.74480529


--------------------------------------------------------------------------------------------------------




--------------------------------------- Iteration      1(  11)  ---------------------------------------


    POTLOK:  cpu time    0.1839: real time    0.1853
    SETDIJ:  cpu time    0.7045: real time    0.7095
    TRIAL :  cpu time   18.9450: real time   19.1321
    CORREC:  cpu time    6.6645: real time    6.7282
    CHARGE:  cpu time    1.6210: real time    1.6376
    --------------------------------------------
      LOOP:  cpu time   28.1199: real time   28.3941

 eigenvalue-minimisations  :     0
 total energy-change (2. order) :-0.1138723E+00  (-0.4532424E-01)
 number of electron      98.0000000 magnetization 
 augmentation part       14.2550339 magnetization 

 Free energy of the ion-electron system (eV)
  ---------------------------------------------------
  alpha Z        PSCENC =       350.84436808
  Ewald energy   TEWEN  =     -6492.62561334
  -Hartree energ DENC   =     -4295.73501971
  -exchange      EXHF   =         0.00000000
  -V(xc)+E(xc)   XCENC  =       465.28924729
  PAW double counting   =     10494.71015763   -10469.12741504
  entropy T*S    EENTRO =        -0.00382967
  eigenvalues    EBANDS =     -1743.37979051
  atomic energy  EATOM  =     11522.16744521
  ---------------------------------------------------
  free energy    TOTEN  =      -167.86073477 eV

  energy without entropy =     -167.85690510  energy(sigma->0) =     -167.85881993


--------------------------------------------------------------------------------------------------------




--------------------------------------- Iteration      1(  12)  ---------------------------------------


    POTLOK:  cpu time    0.1781: real time    0.1794
    SETDIJ:  cpu time    0.6146: real time    0.6191
    TRIAL :  cpu time   18.6603: real time   18.8542
    CORREC:  cpu time    6.1939: real time    6.2545
    CHARGE:  cpu time    1.8687: real time    1.8840
    --------------------------------------------
      LOOP:  cpu time   27.5177: real time   27.7938

 eigenvalue-minimisations  :     0
 total energy-change (2. order) :-0.4533940E-01  (-0.2366248E-01)
 number of electron      98.0000000 magnetization 
 augmentation part       14.2380270 magnetization 

 Free energy of the ion-electron system (eV)
  ---------------------------------------------------
  alpha Z        PSCENC =       350.84436808
  Ewald energy   TEWEN  =     -6492.62561334
  -Hartree energ DENC   =     -4298.06961686
  -exchange      EXHF   =         0.00000000
  -V(xc)+E(xc)   XCENC  =       465.37947474
  PAW double counting   =     10484.49296908   -10458.68553159
  entropy T*S    EENTRO =        -0.00330294
  eigenvalues    EBANDS =     -1741.40573982
  atomic energy  EATOM  =     11522.16744521
  ---------------------------------------------------
  free energy    TOTEN  =      -167.90607416 eV

  energy without entropy =     -167.90277122  energy(sigma->0) =     -167.90442269


--------------------------------------------------------------------------------------------------------




--------------------------------------- Iteration      1(  13)  ---------------------------------------


    POTLOK:  cpu time    0.1808: real time    0.1822
    SETDIJ:  cpu time    0.5742: real time    0.5782
    TRIAL :  cpu time   19.3035: real time   19.5050
    CORREC:  cpu time    6.2773: real time    6.3381
    CHARGE:  cpu time    1.7704: real time    1.7857
    --------------------------------------------
      LOOP:  cpu time   28.1071: real time   28.3905

 eigenvalue-minimisations  :     0
 total energy-change (2. order) :-0.2366030E-01  (-0.1129448E-01)
 number of electron      98.0000000 magnetization 
 augmentation part       14.2347912 magnetization 

 Free energy of the ion-electron system (eV)
  ---------------------------------------------------
  alpha Z        PSCENC =       350.84436808
  Ewald energy   TEWEN  =     -6492.62561334
  -Hartree energ DENC   =     -4292.59390847
  -exchange      EXHF   =         0.00000000
  -V(xc)+E(xc)   XCENC  =       465.17778763
  PAW double counting   =     10480.02313516   -10454.41851174
  entropy T*S    EENTRO =        -0.00304877
  eigenvalues    EBANDS =     -1746.50113406
  atomic energy  EATOM  =     11522.16744521
  ---------------------------------------------------
  free energy    TOTEN  =      -167.92973447 eV

  energy without entropy =     -167.92668570  energy(sigma->0) =     -167.92821008


--------------------------------------------------------------------------------------------------------




--------------------------------------- Iteration      1(  14)  ---------------------------------------


    POTLOK:  cpu time    0.1824: real time    0.1837
    SETDIJ:  cpu time    0.6201: real time    0.6244
    TRIAL :  cpu time   16.6516: real time   16.8319
    CORREC:  cpu time    7.1309: real time    7.1980
    CHARGE:  cpu time    1.7622: real time    1.7768
    --------------------------------------------
      LOOP:  cpu time   26.3482: real time   26.6161

 eigenvalue-minimisations  :     0
 total energy-change (2. order) :-0.1128649E-01  (-0.5823802E-02)
 number of electron      98.0000000 magnetization 
 augmentation part       14.2412458 magnetization 

 Free energy of the ion-electron system (eV)
  ---------------------------------------------------
  alpha Z        PSCENC =       350.84436808
  Ewald energy   TEWEN  =     -6492.62561334
  -Hartree energ DENC   =     -4292.77247631
  -exchange      EXHF   =         0.00000000
  -V(xc)+E(xc)   XCENC  =       465.17322394
  PAW double counting   =     10487.59272938   -10462.03015217
  entropy T*S    EENTRO =        -0.00291913
  eigenvalues    EBANDS =     -1746.28749698
  atomic energy  EATOM  =     11522.16744521
  ---------------------------------------------------
  free energy    TOTEN  =      -167.94102095 eV

  energy without entropy =     -167.93810182  energy(sigma->0) =     -167.93956138


--------------------------------------------------------------------------------------------------------




--------------------------------------- Iteration      1(  15)  ---------------------------------------


    POTLOK:  cpu time    0.1769: real time    0.1782
    SETDIJ:  cpu time    0.6611: real time    0.6655
    TRIAL :  cpu time   21.6015: real time   21.8041
    CORREC:  cpu time    6.1800: real time    6.2389
    CHARGE:  cpu time    1.6952: real time    1.7099
    --------------------------------------------
      LOOP:  cpu time   30.3153: real time   30.5978

 eigenvalue-minimisations  :     0
 total energy-change (2. order) :-0.5809788E-02  (-0.2739360E-02)
 number of electron      98.0000000 magnetization 
 augmentation part       14.2390809 magnetization 

 Free energy of the ion-electron system (eV)
  ---------------------------------------------------
  alpha Z        PSCENC =       350.84436808
  Ewald energy   TEWEN  =     -6492.62561334
  -Hartree energ DENC   =     -4295.13224275
  -exchange      EXHF   =         0.00000000
  -V(xc)+E(xc)   XCENC  =       465.27198553
  PAW double counting   =     10497.20802534   -10471.53439785
  entropy T*S    EENTRO =        -0.00288607
  eigenvalues    EBANDS =     -1744.14348184
  atomic energy  EATOM  =     11522.16744521
  ---------------------------------------------------
  free energy    TOTEN  =      -167.94683074 eV

  energy without entropy =     -167.94394467  energy(sigma->0) =     -167.94538770


--------------------------------------------------------------------------------------------------------




--------------------------------------- Iteration      1(  16)  ---------------------------------------


    POTLOK:  cpu time    0.1805: real time    0.1826
    SETDIJ:  cpu time    0.6174: real time    0.6217
    TRIAL :  cpu time   19.3079: real time   19.4996
    CORREC:  cpu time    6.9957: real time    7.0587
    CHARGE:  cpu time    1.7021: real time    1.7167
    --------------------------------------------
      LOOP:  cpu time   28.8046: real time   29.0807

 eigenvalue-minimisations  :     0
 total energy-change (2. order) :-0.2737111E-02  (-0.1458506E-02)
 number of electron      98.0000000 magnetization 
 augmentation part       14.2391893 magnetization 

 Free energy of the ion-electron system (eV)
  ---------------------------------------------------
  alpha Z        PSCENC =       350.84436808
  Ewald energy   TEWEN  =     -6492.62561334
  -Hartree energ DENC   =     -4294.80869284
  -exchange      EXHF   =         0.00000000
  -V(xc)+E(xc)   XCENC  =       465.26280689
  PAW double counting   =     10499.33782552   -10473.65649811
  entropy T*S    EENTRO =        -0.00284670
  eigenvalues    EBANDS =     -1744.46832320
  atomic energy  EATOM  =     11522.16744521
  ---------------------------------------------------
  free energy    TOTEN  =      -167.94956785 eV

  energy without entropy =     -167.94672115  energy(sigma->0) =     -167.94814450


--------------------------------------------------------------------------------------------------------




--------------------------------------- Iteration      1(  17)  ---------------------------------------


    POTLOK:  cpu time    0.1740: real time    0.1754
    SETDIJ:  cpu time    0.6121: real time    0.6162
    TRIAL :  cpu time   19.2900: real time   19.4867
    CORREC:  cpu time    6.3955: real time    6.4604
    CHARGE:  cpu time    1.6802: real time    1.6943
    --------------------------------------------
      LOOP:  cpu time   28.1823: real time   28.4644

 eigenvalue-minimisations  :     0
 total energy-change (2. order) :-0.1458837E-02  (-0.7657394E-03)
 number of electron      98.0000000 magnetization 
 augmentation part       14.2423206 magnetization 

 Free energy of the ion-electron system (eV)
  ---------------------------------------------------
  alpha Z        PSCENC =       350.84436808
  Ewald energy   TEWEN  =     -6492.62561334
  -Hartree energ DENC   =     -4294.18336673
  -exchange      EXHF   =         0.00000000
  -V(xc)+E(xc)   XCENC  =       465.24996863
  PAW double counting   =     10499.94684741   -10474.24859921
  entropy T*S    EENTRO =        -0.00289351
  eigenvalues    EBANDS =     -1745.09923004
  atomic energy  EATOM  =     11522.16744521
  ---------------------------------------------------
  free energy    TOTEN  =      -167.95102669 eV

  energy without entropy =     -167.94813318  energy(sigma->0) =     -167.94957993


--------------------------------------------------------------------------------------------------------




--------------------------------------- Iteration      1(  18)  ---------------------------------------


    POTLOK:  cpu time    0.1790: real time    0.1803
    SETDIJ:  cpu time    0.5836: real time    0.5882
    TRIAL :  cpu time   19.8531: real time   20.0528
    CORREC:  cpu time    6.2701: real time    6.3315
    CHARGE:  cpu time    1.6902: real time    1.7049
    --------------------------------------------
      LOOP:  cpu time   28.6428: real time   28.9257

[...]
     10     -31.9892      2.00000
     11     -31.7030      2.00000
     12     -31.5707      2.00000
     13     -31.5303      2.00000
     14     -31.5162      2.00000
     15     -31.5063      2.00000
     16     -31.4515      2.00000
     17     -31.4330      2.00000
     18     -31.4059      2.00000
     19     -31.3195      2.00000
     20     -31.3058      2.00000
     21     -31.1898      2.00000
     22     -30.9299      2.00000
     23     -30.3537      2.00000
     24     -30.1826      2.00000
     25      -3.5834      2.00000
     26      -3.4352      2.00000
     27      -2.6702      2.00000
     28       0.1539      2.00000
     29       0.3613      2.00000
     30       0.4188      2.00000
     31       0.6839      2.00000
     32       0.8778      2.00000
     33       0.9085      2.00000
     34       1.0288      2.00000
     35       1.4219      2.00000
     36       1.5494      2.00000
     37       2.4020      2.00000
     38       2.6211      2.00000
     39       2.9828      2.00000
     40       3.2951      2.00000
     41       3.3420      2.00000
     42       3.4360      2.00000
     43       3.4450      2.00000
     44       3.6504      2.00000
     45       3.9753      2.00000
     46       4.1315      2.00000
     47       4.1768      2.00000
     48       4.2287      2.00000
     49       4.3474      2.00000
     50       4.7197      0.63364
     51       5.1662      0.00000
     52       5.2252      0.00000
     53       5.4383      0.00000
     54       5.4724      0.00000
     55       5.7580      0.00000
     56       5.9100      0.00000
     57       6.3784      0.00000
     58       6.6377      0.00000
     59       6.6759      0.00000
     60       7.0707      0.00000

 k-point    70 :      -0.1667    0.3333    0.4286
  band No.  band energies     occupation 
      1     -58.3984      2.00000
      2     -58.2752      2.00000
      3     -58.1393      2.00000
      4     -58.1306      2.00000
      5     -57.9205      2.00000
      6     -57.7937      2.00000
      7     -33.0296      2.00000
      8     -32.6576      2.00000
      9     -32.6390      2.00000
     10     -31.7531      2.00000
     11     -31.6878      2.00000
     12     -31.6512      2.00000
     13     -31.5949      2.00000
     14     -31.5174      2.00000
     15     -31.5086      2.00000
     16     -31.4788      2.00000
     17     -31.4475      2.00000
     18     -31.4425      2.00000
     19     -31.3543      2.00000
     20     -31.2930      2.00000
     21     -31.2038      2.00000
     22     -30.6136      2.00000
     23     -30.5987      2.00000
     24     -30.1454      2.00000
     25      -3.6521      2.00000
     26      -3.4468      2.00000
     27      -2.4276      2.00000
     28       0.0546      2.00000
     29       0.2928      2.00000
     30       0.3667      2.00000
     31       0.5664      2.00000
     32       0.6850      2.00000
     33       1.4641      2.00000
     34       1.4807      2.00000
     35       1.4843      2.00000
     36       1.6118      2.00000
     37       1.8084      2.00000
     38       2.2353      2.00000
     39       2.7818      2.00000
     40       2.8271      2.00000
     41       3.4169      2.00000
     42       3.6205      2.00000
     43       3.8103      2.00000
     44       3.8534      2.00000
     45       4.0514      2.00000
     46       4.1011      2.00000
     47       4.1625      2.00000
     48       4.2698      2.00000
     49       4.4373      2.00000
     50       4.8302      0.00000
     51       4.8330      0.00000
     52       4.9720      0.00000
     53       5.3314      0.00000
     54       5.3766      0.00000
     55       5.5183      0.00000
     56       6.3544      0.00000
     57       6.4918      0.00000
     58       6.5628      0.00000
     59       6.6811      0.00000
     60       6.7078      0.00000

 k-point    71 :       0.5000    0.5000    0.4286
  band No.  band energies     occupation 
      1     -58.4397      2.00000
      2     -58.1672      2.00000
      3     -58.1393      2.00000
      4     -58.1266      2.00000
      5     -58.0341      2.00000
      6     -57.7509      2.00000
      7     -33.0374      2.00000
      8     -33.0061      2.00000
      9     -31.9817      2.00000
     10     -31.7200      2.00000
     11     -31.6808      2.00000
     12     -31.6619      2.00000
     13     -31.5284      2.00000
     14     -31.5283      2.00000
     15     -31.5172      2.00000
     16     -31.5044      2.00000
     17     -31.4400      2.00000
     18     -31.4395      2.00000
     19     -31.3689      2.00000
     20     -31.3622      2.00000
     21     -31.3437      2.00000
     22     -31.1732      2.00000
     23     -30.1805      2.00000
     24     -30.1406      2.00000
     25      -3.6071      2.00000
     26      -3.4354      2.00000
     27      -2.6830      2.00000
     28       0.0115      2.00000
     29       0.2320      2.00000
     30       0.4628      2.00000
     31       0.4633      2.00000
     32       0.7073      2.00000
     33       0.8155      2.00000
     34       1.1050      2.00000
     35       1.3257      2.00000
     36       1.3546      2.00000
     37       3.0641      2.00000
     38       3.1693      2.00000
     39       3.3024      2.00000
     40       3.3202      2.00000
     41       3.5000      2.00000
     42       3.8297      2.00000
     43       3.8359      2.00000
     44       3.9947      2.00000
     45       4.1440      2.00000
     46       4.1810      2.00000
     47       4.1926      2.00000
     48       4.2994      2.00000
     49       4.3278      2.00000
     50       4.3454      2.00000
     51       4.7174      0.75404
     52       4.8986      0.00000
     53       5.1351      0.00000
     54       5.2652      0.00000
     55       5.6092      0.00000
     56       6.3364      0.00000
     57       6.3674      0.00000
     58       6.5050      0.00000
     59       6.5541      0.00000
     60       6.9874      0.00000

 k-point    72 :      -0.3333    0.5000    0.4286
  band No.  band energies     occupation 
      1     -58.4381      2.00000
      2     -58.1751      2.00000
      3     -58.1393      2.00000
      4     -58.1267      2.00000
      5     -58.0260      2.00000
      6     -57.7526      2.00000
      7     -33.0364      2.00000
      8     -32.9943      2.00000
      9     -32.0319      2.00000
     10     -31.7253      2.00000
     11     -31.7187      2.00000
     12     -31.6220      2.00000
     13     -31.5322      2.00000
     14     -31.5242      2.00000
     15     -31.5173      2.00000
     16     -31.5045      2.00000
     17     -31.4408      2.00000
     18     -31.4391      2.00000
     19     -31.3685      2.00000
     20     -31.3583      2.00000
     21     -31.2903      2.00000
     22     -31.1744      2.00000
     23     -30.1948      2.00000
     24     -30.1419      2.00000
     25      -3.7265      2.00000
     26      -3.4167      2.00000
     27      -2.4912      2.00000
     28       0.0217      2.00000
     29       0.2344      2.00000
     30       0.2472      2.00000
     31       0.4834      2.00000
     32       0.5379      2.00000
     33       0.7274      2.00000
     34       1.3433      2.00000
     35       1.3817      2.00000
     36       1.6428      2.00000
     37       2.9862      2.00000
     38       3.1304      2.00000
     39       3.2434      2.00000
     40       3.2817      2.00000
     41       3.3689      2.00000
     42       3.8178      2.00000
     43       3.9339      2.00000
     44       3.9374      2.00000
     45       3.9882      2.00000
     46       4.0725      2.00000
     47       4.3098      2.00000
     48       4.3195      2.00000
     49       4.4153      2.00000
     50       4.4171      2.00000
     51       4.7450      0.02339
     52       4.9391      0.00000
     53       5.2039      0.00000
     54       5.2205      0.00000
     55       5.5991      0.00000
     56       6.0236      0.00000
     57       6.3756      0.00000
     58       6.5596      0.00000
     59       6.6429      0.00000
     60       6.8781      0.00000

 k-point    73 :      -0.1667    0.5000    0.4286
  band No.  band energies     occupation 
      1     -58.4144      2.00000
      2     -58.2469      2.00000
      3     -58.1376      2.00000
      4     -58.1285      2.00000
      5     -57.9525      2.00000
      6     -57.7778      2.00000
      7     -32.9772      2.00000
      8     -32.8636      2.00000
      9     -32.3637      2.00000
     10     -32.0880      2.00000
     11     -31.7003      2.00000
     12     -31.5763      2.00000
     13     -31.5251      2.00000
     14     -31.5156      2.00000
     15     -31.5064      2.00000
     16     -31.4547      2.00000
     17     -31.4303      2.00000
     18     -31.3923      2.00000
     19     -31.3145      2.00000
     20     -31.2198      2.00000
     21     -31.1924      2.00000
     22     -30.9288      2.00000
     23     -30.3541      2.00000
     24     -30.2136      2.00000
     25      -3.8182      2.00000
     26      -3.4805      2.00000
     27      -2.0262      2.00000
     28      -0.5032      2.00000
     29       0.1640      2.00000
     30       0.4817      2.00000
     31       0.5280      2.00000
     32       0.8276      2.00000
     33       1.0380      2.00000
     34       1.4934      2.00000
     35       1.5963      2.00000
     36       2.1248      2.00000
     37       2.3921      2.00000
     38       2.5766      2.00000
     39       2.9392      2.00000
     40       3.0468      2.00000
     41       3.0835      2.00000
     42       3.0881      2.00000
     43       3.3825      2.00000
     44       3.7039      2.00000
     45       3.7418      2.00000
     46       4.1646      2.00000
     47       4.3263      2.00000
     48       4.4184      2.00000
     49       4.5217      2.00000
     50       4.9624      0.00000
     51       4.9671      0.00000
     52       5.2734      0.00000
     53       5.4279      0.00000
     54       5.4684      0.00000
     55       5.5687      0.00000
     56       5.9424      0.00000
     57       6.3845      0.00000
     58       6.4515      0.00000
     59       6.4770      0.00000
     60       6.9980      0.00000

 k-point    74 :      -0.3333   -0.3333    0.4286
  band No.  band energies     occupation 
      1     -58.4365      2.00000
      2     -58.1820      2.00000
      3     -58.1393      2.00000
      4     -58.1268      2.00000
      5     -58.0188      2.00000
      6     -57.7543      2.00000
      7     -33.0368      2.00000
      8     -32.9811      2.00000
      9     -32.0815      2.00000
     10     -31.7174      2.00000
     11     -31.6809      2.00000
     12     -31.6685      2.00000
     13     -31.5359      2.00000
     14     -31.5224      2.00000
     15     -31.5173      2.00000
     16     -31.5046      2.00000
     17     -31.4405      2.00000
     18     -31.4397      2.00000
     19     -31.3679      2.00000
     20     -31.3546      2.00000
     21     -31.2379      2.00000
     22     -31.1756      2.00000
     23     -30.2114      2.00000
     24     -30.1409      2.00000
     25      -3.9556      2.00000
     26      -3.3374      2.00000
     27      -2.0756      2.00000
     28      -0.3661      2.00000
     29       0.0302      2.00000
     30       0.2594      2.00000
     31       0.5284      2.00000
     32       0.5716      2.00000
     33       0.7476      2.00000
     34       1.3804      2.00000
     35       1.4303      2.00000
     36       2.3045      2.00000
     37       2.8737      2.00000
     38       3.0255      2.00000
     39       3.0710      2.00000
     40       3.2225      2.00000
     41       3.2380      2.00000
     42       3.6985      2.00000
     43       3.9173      2.00000
     44       3.9464      2.00000
     45       3.9857      2.00000
     46       4.0658      2.00000
     47       4.3750      2.00000
     48       4.4649      2.00000
     49       4.5318      2.00000
     50       4.5757      2.00000
     51       4.7176      0.74187
     52       4.9818      0.00000
     53       5.0598      0.00000
     54       5.2692      0.00000
     55       5.5062      0.00000
     56       5.5764      0.00000
     57       6.3068      0.00000
     58       6.5331      0.00000
     59       6.7912      0.00000
     60       6.9644      0.00000

 k-point    75 :      -0.1667   -0.3333    0.4286
  band No.  band energies     occupation 
      1     -58.4131      2.00000
      2     -58.2493      2.00000
      3     -58.1379      2.00000
      4     -58.1287      2.00000
      5     -57.9497      2.00000
      6     -57.7790      2.00000
      7     -32.9899      2.00000
      8     -32.8390      2.00000
      9     -32.4065      2.00000
     10     -32.0399      2.00000
     11     -31.6992      2.00000
     12     -31.5779      2.00000
     13     -31.5262      2.00000
     14     -31.5159      2.00000
     15     -31.5065      2.00000
     16     -31.4542      2.00000
     17     -31.4313      2.00000
     18     -31.3992      2.00000
     19     -31.3127      2.00000
     20     -31.2625      2.00000
     21     -31.1932      2.00000
     22     -30.8811      2.00000
     23     -30.3842      2.00000
     24     -30.1972      2.00000
     25      -4.0355      2.00000
     26      -3.3282      2.00000
     27      -1.5159      2.00000
     28      -1.0683      2.00000
     29       0.1674      2.00000
     30       0.4593      2.00000
     31       0.5783      2.00000
     32       0.8724      2.00000
     33       1.0778      2.00000
     34       1.5236      2.00000
     35       1.6521      2.00000
     36       2.2761      2.00000
     37       2.4259      2.00000
     38       2.6837      2.00000
     39       2.7406      2.00000
     40       2.8847      2.00000
     41       2.9228      2.00000
     42       3.1907      2.00000
     43       3.5210      2.00000
     44       3.5656      2.00000
     45       3.8983      2.00000
     46       4.2049      2.00000
     47       4.3313      2.00000
     48       4.5443      2.00000
     49       4.5670      2.00000
     50       4.7505      0.00787
     51       5.0093      0.00000
     52       5.2494      0.00000
     53       5.2926      0.00000
     54       5.4255      0.00000
     55       5.5934      0.00000
     56       5.9100      0.00000
     57       6.3320      0.00000
     58       6.3559      0.00000
     59       6.4780      0.00000
     60       6.8956      0.00000

 k-point    76 :      -0.1667   -0.1667    0.4286
  band No.  band energies     occupation 
      1     -58.3948      2.00000
      2     -58.2810      2.00000
      3     -58.1393      2.00000
      4     -58.1310      2.00000
      5     -57.9143      2.00000
      6     -57.7973      2.00000
      7     -33.0298      2.00000
      8     -32.6734      2.00000
      9     -32.6224      2.00000
     10     -31.7246      2.00000
     11     -31.6847      2.00000
     12     -31.6811      2.00000
     13     -31.5992      2.00000
     14     -31.5176      2.00000
     15     -31.5088      2.00000
     16     -31.4775      2.00000
     17     -31.4468      2.00000
     18     -31.4445      2.00000
     19     -31.3540      2.00000
     20     -31.2889      2.00000
     21     -31.2062      2.00000
     22     -30.6396      2.00000
     23     -30.5733      2.00000
     24     -30.1445      2.00000
     25      -4.0899      2.00000
     26      -3.1847      2.00000
     27      -1.6527      2.00000
     28      -0.9151      2.00000
     29       0.2933      2.00000
     30       0.3546      2.00000
     31       0.7585      2.00000
     32       0.7759      2.00000
     33       1.4293      2.00000
     34       1.5221      2.00000
     35       1.5757      2.00000
     36       1.7578      2.00000
     37       2.0924      2.00000
     38       2.3819      2.00000
     39       2.6250      2.00000
     40       2.8096      2.00000
     41       3.2332      2.00000
     42       3.3788      2.00000
     43       3.5945      2.00000
     44       3.7400      2.00000
     45       4.0391      2.00000
     46       4.2062      2.00000
     47       4.3015      2.00000
     48       4.4959      2.00000
     49       4.7021      1.55496
     50       4.8034      0.00000
     51       4.9724      0.00000
     52       5.0004      0.00000
     53       5.2692      0.00000
     54       5.3880      0.00000
     55       5.5048      0.00000
     56       6.1094      0.00000
     57       6.1775      0.00000
     58       6.2413      0.00000
     59       6.3759      0.00000
     60       6.4883      0.00000


--------------------------------------------------------------------------------------------------------


 soft charge-density along one line, spin component           1
         0         1         2         3         4         5         6         7         8         9
 total charge-density along one line
 
 pseudopotential strength for first ion, spin component:           1
  6.206   9.425   0.000   0.000  -0.000   0.000   0.000  -0.000
  9.425  14.308   0.000   0.000  -0.000   0.000   0.000  -0.000
  0.000   0.000  -2.109   0.000  -0.000  -3.554  -0.001   0.001
  0.000   0.000   0.000  -2.109   0.000  -0.001  -3.554  -0.001
 -0.000  -0.000  -0.000   0.000  -2.109   0.001  -0.001  -3.555
  0.000   0.000  -3.554  -0.001   0.001  -5.783  -0.004   0.002
  0.000   0.000  -0.001  -3.554  -0.001  -0.004  -5.780  -0.003
 -0.000  -0.000   0.001  -0.001  -3.555   0.002  -0.003  -5.784
 total augmentation occupancy for first ion, spin component:           1
  2.907  -0.587   0.000   0.000   0.000   0.000  -0.000   0.000
 -0.587   0.133   0.000   0.000   0.000  -0.000   0.000  -0.000
  0.000   0.000   1.849   0.293  -0.160  -0.432  -0.055   0.030
 -0.000   0.000   0.293   1.672   0.216  -0.055  -0.399  -0.040
 -0.000   0.000  -0.160   0.216   1.949   0.030  -0.040  -0.451
  0.000   0.000  -0.432  -0.055   0.030   0.104   0.010  -0.005
  0.000   0.000  -0.055  -0.399  -0.040   0.010   0.098   0.007
  0.000   0.000   0.030  -0.040  -0.451  -0.005   0.007   0.107


------------------------ aborting loop because EDIFF is reached ----------------------------------------




--------------------------------------------------------------------------------------------------------



  FREE ENERGIE OF THE ION-ELECTRON SYSTEM (eV)
  ---------------------------------------------------
  free  energy   TOTEN  =      -167.95253322 eV

  energy  without entropy=     -167.94954816  energy(sigma->0) =     -167.95104069
 


--------------------------------------------------------------------------------------------------------


    POTLOK:  cpu time    0.8261: real time    0.8316


--------------------------------------------------------------------------------------------------------


 writing wavefunctions
     LOOP+:  cpu time 1181.7801: real time 1193.4535
    4ORBIT:  cpu time    0.0000: real time    0.0000

 total amount of memory used by VASP MPI-rank0   347182. kBytes
=======================================================================

   base      :      30000. kBytes
   nonl-proj :     132429. kBytes
   fftplans  :      20117. kBytes
   grid      :      15504. kBytes
   one-center:         77. kBytes
   wavefun   :     149055. kBytes
 
  
  
 General timing and accounting informations for this job:
 ========================================================
  
                  Total CPU time used (sec):     1189.802
                            User time (sec):     1180.379
                          System time (sec):        9.423
                         Elapsed time (sec):     1202.281
  
                   Maximum memory used (kb):      522004.
                   Average memory used (kb):          N/A
  
                          Minor page faults:      2152755
                          Major page faults:           27
                 Voluntary context switches:         5898
