<?xml version="1.0" encoding="ISO-8859-1"?>
<modeling>
 <generator>
  <i name="program" type="string">vasp </i>
  <i name="version" type="string">6.2.0  </i>
  <i name="subversion" type="string">18Jan21 (build Jan 05 2022 15:41:44) complex                          parallel </i>
  <i name="platform" type="string">LinuxIFC </i>
  <i name="date" type="string">2025 05 07 </i>
  <i name="time" type="string">21:06:50 </i>
 </generator>
 <incar>
  <i type="string" name="SYSTEM">routine with relax: pwdword</i>
  <i type="string" name="PREC">Acc</i>
  <i type="int" name="IALGO">    38</i>
  <i type="string" name="ALGO">A</i>
  <i type="logical" name="ADDGRID"> T  </i>
  <i type="int" name="ICHARG">     2</i>
  <i type="int" name="NELM">   100</i>
  <i type="int" name="NELMIN">     6</i>
  <i name="EDIFF">      0.00000000</i>
  <i type="int" name="NSW">     0</i>
  <i type="int" name="ISIF">    -1</i>
  <i name="ENCUT">    600.00000000</i>
  <i type="logical" name="LREAL"> F  </i>
  <i type="int" name="ISMEAR">     0</i>
  <i name="SIGMA">      0.02000000</i>
  <i type="logical" name="LASPH"> T  </i>
  <i type="string" name="METAGGA">R2SCAN</i>
  <i type="logical" name="LMIXTAU"> F  </i>
 </incar>
 <primitive_cell>
  <structure name="primitive_cell" >
   <crystal>
    <varray name="basis" >
     <v>       4.93269365       0.00000000      -2.68838682 </v>
     <v>      -1.73966228       4.61573849      -2.68838682 </v>
     <v>       0.00000000       0.00000000       5.61773000 </v>
    </varray>
    <i name="volume">    127.90461117 </i>
    <varray name="rec_basis" >
     <v>       0.20272899       0.07640814       0.00000000 </v>
     <v>       0.00000000       0.21665006       0.00000000 </v>
     <v>       0.09701676       0.14024415       0.17800784 </v>
    </varray>
   </crystal>
   <varray name="positions" >
    <v>       0.24782000       0.25218000       0.50000000 </v>
    <v>       0.75218000       0.74782000       0.50000000 </v>
    <v>       0.25218000       0.75218000       0.00436000 </v>
    <v>       0.74782000       0.24782000       0.99564000 </v>
    <v>       0.50000000       0.00000000       1.00000000 </v>
    <v>       0.00000000       0.00000000       0.00000000 </v>
    <v>       0.00000000       0.00000000       0.50000000 </v>
    <v>       0.00000000       0.50000000       1.00000000 </v>
    <v>       0.50000000       0.50000000       0.50000000 </v>
    <v>       0.50000000       0.50000000       1.00000000 </v>
    <v>       0.50000000       0.00000000       0.50000000 </v>
    <v>       0.00000000       0.50000000       0.50000000 </v>
   </varray>
  </structure>
  <varray name="primitive_index" >
   <v type="int" >        1 </v>
   <v type="int" >        2 </v>
   <v type="int" >        3 </v>
   <v type="int" >        4 </v>
   <v type="int" >        5 </v>
   <v type="int" >        6 </v>
   <v type="int" >        7 </v>
   <v type="int" >        8 </v>
   <v type="int" >        9 </v>
   <v type="int" >       10 </v>
   <v type="int" >       11 </v>
   <v type="int" >       12 </v>
  </varray>
 </primitive_cell>
 <kpoints>
  <generation param="Gamma">
   <v type="int" name="divisions">       8        8        9 </v>
   <v name="usershift">      0.00000000       0.00000000       0.00000000 </v>
   <v name="genvec1">      0.12500000       0.00000000       0.00000000 </v>
   <v name="genvec2">      0.00000000       0.12500000       0.00000000 </v>
   <v name="genvec3">      0.00000000      -0.00000000       0.11111111 </v>
   <v name="shift">      0.00000000       0.00000000       0.00000000 </v>
  </generation>
  <varray name="kpointlist" >
   <v>       0.00000000       0.00000000       0.00000000 </v>
   <v>       0.12500000       0.00000000       0.00000000 </v>
   <v>       0.25000000       0.00000000       0.00000000 </v>
   <v>       0.37500000       0.00000000       0.00000000 </v>
   <v>       0.50000000       0.00000000       0.00000000 </v>
   <v>       0.12500000       0.12500000       0.00000000 </v>
   <v>       0.25000000       0.12500000       0.00000000 </v>
   <v>       0.37500000       0.12500000       0.00000000 </v>
   <v>       0.50000000       0.12500000       0.00000000 </v>
   <v>      -0.37500000       0.12500000       0.00000000 </v>
   <v>      -0.25000000       0.12500000       0.00000000 </v>
   <v>      -0.12500000       0.12500000       0.00000000 </v>
   <v>       0.25000000       0.25000000       0.00000000 </v>
   <v>       0.37500000       0.25000000       0.00000000 </v>
   <v>       0.50000000       0.25000000       0.00000000 </v>
   <v>      -0.37500000       0.25000000       0.00000000 </v>
   <v>      -0.25000000       0.25000000       0.00000000 </v>
   <v>       0.37500000       0.37500000       0.00000000 </v>
   <v>       0.50000000       0.37500000       0.00000000 </v>
   <v>      -0.37500000       0.37500000       0.00000000 </v>
   <v>       0.50000000       0.50000000       0.00000000 </v>
   <v>       0.00000000       0.00000000       0.11111111 </v>
   <v>       0.12500000      -0.00000000       0.11111111 </v>
   <v>       0.25000000       0.00000000       0.11111111 </v>
   <v>       0.37500000       0.00000000       0.11111111 </v>
   <v>       0.50000000       0.00000000       0.11111111 </v>
   <v>      -0.37500000      -0.00000000       0.11111111 </v>
   <v>      -0.25000000       0.00000000       0.11111111 </v>
   <v>      -0.12500000       0.00000000       0.11111111 </v>
   <v>       0.12500000       0.12500000       0.11111111 </v>
   <v>       0.25000000       0.12500000       0.11111111 </v>
   <v>       0.37500000       0.12500000       0.11111111 </v>
   <v>       0.50000000       0.12500000       0.11111111 </v>
   <v>      -0.37500000       0.12500000       0.11111111 </v>
   <v>      -0.25000000       0.12500000       0.11111111 </v>
   <v>      -0.12500000       0.12500000       0.11111111 </v>
   <v>       0.25000000       0.25000000       0.11111111 </v>
   <v>       0.37500000       0.25000000       0.11111111 </v>
   <v>       0.50000000       0.25000000       0.11111111 </v>
   <v>      -0.37500000       0.25000000       0.11111111 </v>
   <v>      -0.25000000       0.25000000       0.11111111 </v>
   <v>      -0.12500000       0.25000000       0.11111111 </v>
   <v>       0.37500000       0.37500000       0.11111111 </v>
   <v>       0.50000000       0.37500000       0.11111111 </v>
   <v>      -0.37500000       0.37500000       0.11111111 </v>
   <v>      -0.25000000       0.37500000       0.11111111 </v>
   <v>      -0.12500000       0.37500000       0.11111111 </v>
   <v>       0.50000000       0.50000000       0.11111111 </v>
   <v>      -0.37500000       0.50000000       0.11111111 </v>
   <v>      -0.25000000       0.50000000       0.11111111 </v>
   <v>      -0.12500000       0.50000000       0.11111111 </v>
   <v>      -0.37500000      -0.37500000       0.11111111 </v>
   <v>      -0.25000000      -0.37500000       0.11111111 </v>
   <v>      -0.12500000      -0.37500000       0.11111111 </v>
   <v>      -0.25000000      -0.25000000       0.11111111 </v>
   <v>      -0.12500000      -0.25000000       0.11111111 </v>
   <v>      -0.12500000      -0.12500000       0.11111111 </v>
   <v>      -0.00000000       0.00000000       0.22222222 </v>
   <v>       0.12500000      -0.00000000       0.22222222 </v>
   <v>       0.25000000       0.00000000       0.22222222 </v>
   <v>       0.37500000       0.00000000       0.22222222 </v>
   <v>       0.50000000      -0.00000000       0.22222222 </v>
   <v>      -0.37500000      -0.00000000       0.22222222 </v>
   <v>      -0.25000000       0.00000000       0.22222222 </v>
   <v>      -0.12500000       0.00000000       0.22222222 </v>
   <v>       0.12500000       0.12500000       0.22222222 </v>
   <v>       0.25000000       0.12500000       0.22222222 </v>
   <v>       0.37500000       0.12500000       0.22222222 </v>
   <v>       0.50000000       0.12500000       0.22222222 </v>
   <v>      -0.37500000       0.12500000       0.22222222 </v>
   <v>      -0.25000000       0.12500000       0.22222222 </v>
   <v>      -0.12500000       0.12500000       0.22222222 </v>
   <v>       0.25000000       0.25000000       0.22222222 </v>
   <v>       0.37500000       0.25000000       0.22222222 </v>
   <v>       0.50000000       0.25000000       0.22222222 </v>
   <v>      -0.37500000       0.25000000       0.22222222 </v>
   <v>      -0.25000000       0.25000000       0.22222222 </v>
   <v>      -0.12500000       0.25000000       0.22222222 </v>
   <v>       0.37500000       0.37500000       0.22222222 </v>
   <v>       0.50000000       0.37500000       0.22222222 </v>
   <v>      -0.37500000       0.37500000       0.22222222 </v>
   <v>      -0.25000000       0.37500000       0.22222222 </v>
   <v>      -0.12500000       0.37500000       0.22222222 </v>
   <v>       0.50000000       0.50000000       0.22222222 </v>
   <v>      -0.37500000       0.50000000       0.22222222 </v>
   <v>      -0.25000000       0.50000000       0.22222222 </v>
   <v>      -0.12500000       0.50000000       0.22222222 </v>
   <v>      -0.37500000      -0.37500000       0.22222222 </v>
   <v>      -0.25000000      -0.37500000       0.22222222 </v>
   <v>      -0.12500000      -0.37500000       0.22222222 </v>
   <v>      -0.25000000      -0.25000000       0.22222222 </v>
   <v>      -0.12500000      -0.25000000       0.22222222 </v>
   <v>      -0.12500000      -0.12500000       0.22222222 </v>
   <v>      -0.00000000       0.00000000       0.33333333 </v>
   <v>       0.12500000      -0.00000000       0.33333333 </v>
   <v>       0.25000000      -0.00000000       0.33333333 </v>
   <v>       0.37500000       0.00000000       0.33333333 </v>
   <v>       0.50000000       0.00000000       0.33333333 </v>
   <v>      -0.37500000      -0.00000000       0.33333333 </v>
   <v>      -0.25000000      -0.00000000       0.33333333 </v>
   <v>      -0.12500000       0.00000000       0.33333333 </v>
   <v>       0.12500000       0.12500000       0.33333333 </v>
   <v>       0.25000000       0.12500000       0.33333333 </v>
   <v>       0.37500000       0.12500000       0.33333333 </v>
   <v>       0.50000000       0.12500000       0.33333333 </v>
   <v>      -0.37500000       0.12500000       0.33333333 </v>
   <v>      -0.25000000       0.12500000       0.33333333 </v>
   <v>      -0.12500000       0.12500000       0.33333333 </v>
   <v>       0.25000000       0.25000000       0.33333333 </v>
   <v>       0.37500000       0.25000000       0.33333333 </v>
   <v>       0.50000000       0.25000000       0.33333333 </v>
   <v>      -0.37500000       0.25000000       0.33333333 </v>
   <v>      -0.25000000       0.25000000       0.33333333 </v>
   <v>      -0.12500000       0.25000000       0.33333333 </v>
   <v>       0.37500000       0.37500000       0.33333333 </v>
   <v>       0.50000000       0.37500000       0.33333333 </v>
   <v>      -0.37500000       0.37500000       0.33333333 </v>
   <v>      -0.25000000       0.37500000       0.33333333 </v>
   <v>      -0.12500000       0.37500000       0.33333333 </v>
   <v>       0.50000000       0.50000000       0.33333333 </v>
   <v>      -0.37500000       0.50000000       0.33333333 </v>
   <v>      -0.25000000       0.50000000       0.33333333 </v>
   <v>      -0.12500000       0.50000000       0.33333333 </v>
   <v>      -0.37500000      -0.37500000       0.33333333 </v>
   <v>      -0.25000000      -0.37500000       0.33333333 </v>
   <v>      -0.12500000      -0.37500000       0.33333333 </v>
   <v>      -0.25000000      -0.25000000       0.33333333 </v>
   <v>      -0.12500000      -0.25000000       0.33333333 </v>
   <v>      -0.12500000      -0.12500000       0.33333333 </v>
   <v>      -0.00000000       0.00000000       0.44444444 </v>
   <v>       0.12500000       0.00000000       0.44444444 </v>
   <v>       0.25000000      -0.00000000       0.44444444 </v>
   <v>       0.37500000      -0.00000000       0.44444444 </v>
   <v>       0.50000000       0.00000000       0.44444444 </v>
   <v>      -0.37500000       0.00000000       0.44444444 </v>
   <v>      -0.25000000       0.00000000       0.44444444 </v>
   <v>      -0.12500000       0.00000000       0.44444444 </v>
   <v>       0.12500000       0.12500000       0.44444444 </v>
   <v>       0.25000000       0.12500000       0.44444444 </v>
   <v>       0.37500000       0.12500000       0.44444444 </v>
   <v>       0.50000000       0.12500000       0.44444444 </v>
   <v>      -0.37500000       0.12500000       0.44444444 </v>
   <v>      -0.25000000       0.12500000       0.44444444 </v>
   <v>      -0.12500000       0.12500000       0.44444444 </v>
   <v>       0.25000000       0.25000000       0.44444444 </v>
   <v>       0.37500000       0.25000000       0.44444444 </v>
   <v>       0.50000000       0.25000000       0.44444444 </v>
   <v>      -0.37500000       0.25000000       0.44444444 </v>
   <v>      -0.25000000       0.25000000       0.44444444 </v>
   <v>      -0.12500000       0.25000000       0.44444444 </v>
   <v>       0.37500000       0.37500000       0.44444444 </v>
   <v>       0.50000000       0.37500000       0.44444444 </v>
   <v>      -0.37500000       0.37500000       0.44444444 </v>
   <v>      -0.25000000       0.37500000       0.44444444 </v>
   <v>      -0.12500000       0.37500000       0.44444444 </v>
   <v>       0.50000000       0.50000000       0.44444444 </v>
   <v>      -0.37500000       0.50000000       0.44444444 </v>
   <v>      -0.25000000       0.50000000       0.44444444 </v>
   <v>      -0.12500000       0.50000000       0.44444444 </v>
   <v>      -0.37500000      -0.37500000       0.44444444 </v>
   <v>      -0.25000000      -0.37500000       0.44444444 </v>
   <v>      -0.12500000      -0.37500000       0.44444444 </v>
   <v>      -0.25000000      -0.25000000       0.44444444 </v>
   <v>      -0.12500000      -0.25000000       0.44444444 </v>
   <v>      -0.12500000      -0.12500000       0.44444444 </v>
  </varray>
  <varray name="weights" >
   <v>       0.00173611 </v>
   <v>       0.00694444 </v>
   <v>       0.00694444 </v>
   <v>       0.00694444 </v>
   <v>       0.00347222 </v>
   <v>       0.00347222 </v>
   <v>       0.00694444 </v>
   <v>       0.00694444 </v>
   <v>       0.00694444 </v>
   <v>       0.00694444 </v>
   <v>       0.00694444 </v>
   <v>       0.00347222 </v>
   <v>       0.00347222 </v>
   <v>       0.00694444 </v>
   <v>       0.00694444 </v>
   <v>       0.00694444 </v>
   <v>       0.00347222 </v>
   <v>       0.00347222 </v>
   <v>       0.00694444 </v>
   <v>       0.00347222 </v>
   <v>       0.00173611 </v>
   <v>       0.00347222 </v>
   <v>       0.00694444 </v>
   <v>       0.00694444 </v>
   <v>       0.00694444 </v>
   <v>       0.00694444 </v>
   <v>       0.00694444 </v>
   <v>       0.00694444 </v>
   <v>       0.00694444 </v>
   <v>       0.00347222 </v>
   <v>       0.00694444 </v>
   <v>       0.00694444 </v>
   <v>       0.00694444 </v>
   <v>       0.00694444 </v>
   <v>       0.00694444 </v>
   <v>       0.00694444 </v>
   <v>       0.00347222 </v>
   <v>       0.00694444 </v>
   <v>       0.00694444 </v>
   <v>       0.00694444 </v>
   <v>       0.00694444 </v>
   <v>       0.00694444 </v>
   <v>       0.00347222 </v>
   <v>       0.00694444 </v>
   <v>       0.00694444 </v>
   <v>       0.00694444 </v>
   <v>       0.00694444 </v>
   <v>       0.00347222 </v>
   <v>       0.00694444 </v>
   <v>       0.00694444 </v>
   <v>       0.00694444 </v>
   <v>       0.00347222 </v>
   <v>       0.00694444 </v>
   <v>       0.00694444 </v>
   <v>       0.00347222 </v>
   <v>       0.00694444 </v>
   <v>       0.00347222 </v>
   <v>       0.00347222 </v>
   <v>       0.00694444 </v>
   <v>       0.00694444 </v>
   <v>       0.00694444 </v>
   <v>       0.00694444 </v>
   <v>       0.00694444 </v>
   <v>       0.00694444 </v>
   <v>       0.00694444 </v>
   <v>       0.00347222 </v>
   <v>       0.00694444 </v>
   <v>       0.00694444 </v>
   <v>       0.00694444 </v>
   <v>       0.00694444 </v>
   <v>       0.00694444 </v>
   <v>       0.00694444 </v>
   <v>       0.00347222 </v>
   <v>       0.00694444 </v>
   <v>       0.00694444 </v>
   <v>       0.00694444 </v>
   <v>       0.00694444 </v>
   <v>       0.00694444 </v>
   <v>       0.00347222 </v>
   <v>       0.00694444 </v>
   <v>       0.00694444 </v>
   <v>       0.00694444 </v>
   <v>       0.00694444 </v>
   <v>       0.00347222 </v>
   <v>       0.00694444 </v>
   <v>       0.00694444 </v>
   <v>       0.00694444 </v>
   <v>       0.00347222 </v>
   <v>       0.00694444 </v>
   <v>       0.00694444 </v>
   <v>       0.00347222 </v>
   <v>       0.00694444 </v>
   <v>       0.00347222 </v>
   <v>       0.00347222 </v>
   <v>       0.00694444 </v>
   <v>       0.00694444 </v>
   <v>       0.00694444 </v>
   <v>       0.00694444 </v>
   <v>       0.00694444 </v>
   <v>       0.00694444 </v>
   <v>       0.00694444 </v>
   <v>       0.00347222 </v>
   <v>       0.00694444 </v>
   <v>       0.00694444 </v>
   <v>       0.00694444 </v>
   <v>       0.00694444 </v>
   <v>       0.00694444 </v>
   <v>       0.00694444 </v>
   <v>       0.00347222 </v>
   <v>       0.00694444 </v>
   <v>       0.00694444 </v>
   <v>       0.00694444 </v>
   <v>       0.00694444 </v>
   <v>       0.00694444 </v>
   <v>       0.00347222 </v>
   <v>       0.00694444 </v>
   <v>       0.00694444 </v>
   <v>       0.00694444 </v>
   <v>       0.00694444 </v>
   <v>       0.00347222 </v>
   <v>       0.00694444 </v>
   <v>       0.00694444 </v>
   <v>       0.00694444 </v>
   <v>       0.00347222 </v>
   <v>       0.00694444 </v>
   <v>       0.00694444 </v>
   <v>       0.00347222 </v>
   <v>       0.00694444 </v>
   <v>       0.00347222 </v>
   <v>       0.00347222 </v>
   <v>       0.00694444 </v>
   <v>       0.00694444 </v>
   <v>       0.00694444 </v>
   <v>       0.00694444 </v>
   <v>       0.00694444 </v>
   <v>       0.00694444 </v>
   <v>       0.00694444 </v>
   <v>       0.00347222 </v>
   <v>       0.00694444 </v>
   <v>       0.00694444 </v>
   <v>       0.00694444 </v>
   <v>       0.00694444 </v>
   <v>       0.00694444 </v>
   <v>       0.00694444 </v>
   <v>       0.00347222 </v>
   <v>       0.00694444 </v>
   <v>       0.00694444 </v>
   <v>       0.00694444 </v>
   <v>       0.00694444 </v>
   <v>       0.00694444 </v>
   <v>       0.00347222 </v>
   <v>       0.00694444 </v>
   <v>       0.00694444 </v>
   <v>       0.00694444 </v>
   <v>       0.00694444 </v>
   <v>       0.00347222 </v>
   <v>       0.00694444 </v>
   <v>       0.00694444 </v>
   <v>       0.00694444 </v>
   <v>       0.00347222 </v>
   <v>       0.00694444 </v>
   <v>       0.00694444 </v>
   <v>       0.00347222 </v>
   <v>       0.00694444 </v>
   <v>       0.00347222 </v>
  </varray>
 </kpoints>
 <parameters>
  <separator name="general" >
   <i type="string" name="SYSTEM">routine with relax: pwdword</i>
   <i type="logical" name="LCOMPAT"> F  </i>
  </separator>
  <separator name="electronic" >
   <i type="string" name="PREC">acc</i>
   <i name="ENMAX">    600.00000000</i>
   <i name="ENAUG">    535.51400000</i>
   <i name="EDIFF">      0.00000000</i>
   <i type="int" name="IALGO">    58</i>
   <i type="int" name="IWAVPR">    10</i>
   <i type="int" name="NBANDS">    66</i>
   <i type="int" name="NBANDSLOW">    -1</i>
   <i type="int" name="NBANDSHIGH">    -1</i>
   <i name="NELECT">    104.00000000</i>
   <i type="int" name="TURBO">     0</i>
   <i type="int" name="IRESTART">     0</i>
   <i type="int" name="NREBOOT">     0</i>
   <i type="int" name="NMIN">     0</i>
   <i name="EREF">      0.00000000</i>
   <separator name="electronic smearing" >
    <i type="int" name="ISMEAR">     0</i>
    <i name="SIGMA">      0.02000000</i>
    <i name="KSPACING">      0.50000000</i>
    <i type="logical" name="KGAMMA"> T  </i>
    <i type="logical" name="KBLOWUP"> F  </i>
   </separator>
   <separator name="electronic projectors" >
    <i type="logical" name="LREAL"> F  </i>
    <v name="ROPT">      0.00000000      0.00000000      0.00000000</v>
    <i type="int" name="LMAXPAW">  -100</i>
    <i type="int" name="LMAXMIX">     2</i>
    <i type="logical" name="NLSPLINE"> F  </i>
   </separator>
   <separator name="electronic startup" >
    <i type="int" name="ISTART">     0</i>
    <i type="int" name="ICHARG">     2</i>
    <i type="int" name="INIWAV">     1</i>
   </separator>
   <separator name="electronic spin" >
    <i type="int" name="ISPIN">     1</i>
    <i type="logical" name="LNONCOLLINEAR"> F  </i>
    <v name="MAGMOM">      1.00000000      1.00000000      1.00000000      1.00000000      1.00000000      1.00000000      1.00000000      1.00000000      1.00000000      1.00000000      1.00000000      1.00000000</v>
    <i name="NUPDOWN">     -1.00000000</i>
    <i type="logical" name="LSORBIT"> F  </i>
    <v name="SAXIS">      0.00000000      0.00000000      1.00000000</v>
    <i type="logical" name="LSPIRAL"> F  </i>
    <v name="QSPIRAL">      0.00000000      0.00000000      0.00000000</v>
    <i type="logical" name="LZEROZ"> F  </i>
   </separator>
   <separator name="electronic exchange-correlation" >
    <i type="logical" name="LASPH"> T  </i>
    <i type="logical" name="LMETAGGA"> F  </i>
   </separator>
   <separator name="electronic convergence" >
    <i type="int" name="NELM">   100</i>
    <i type="int" name="NELMDL">    -5</i>
    <i type="int" name="NELMIN">     6</i>
    <i name="ENINI">    600.00000000</i>
    <separator name="electronic convergence detail" >
     <i type="logical" name="LDIAG"> T  </i>
     <i type="logical" name="LSUBROT"> F  </i>
     <i name="WEIMIN">      0.00000000</i>
     <i name="EBREAK">      0.00000000</i>
     <i name="DEPER">      0.30000000</i>
     <i type="int" name="NRMM">     4</i>
     <i name="TIME">      0.40000000</i>
    </separator>
   </separator>
   <separator name="electronic mixer" >
    <i name="AMIX">      0.40000000</i>
    <i name="BMIX">      1.00000000</i>
    <i name="AMIN">      0.10000000</i>
    <i name="AMIX_MAG">      1.60000000</i>
    <i name="BMIX_MAG">      1.00000000</i>
    <separator name="electronic mixer details" >
     <i type="int" name="IMIX">     4</i>
     <i type="logical" name="MIXFIRST"> F  </i>
     <i type="int" name="MAXMIX">   -45</i>
     <i name="WC">    100.00000000</i>
     <i type="int" name="INIMIX">     1</i>
     <i type="int" name="MIXPRE">     1</i>
     <i type="int" name="MREMOVE">     5</i>
    </separator>
   </separator>
   <separator name="electronic dipolcorrection" >
    <i type="logical" name="LDIPOL"> F  </i>
    <i type="logical" name="LMONO"> F  </i>
    <i type="int" name="IDIPOL">     0</i>
    <i name="EPSILON">      1.00000000</i>
    <v name="DIPOL">   -100.00000000   -100.00000000   -100.00000000</v>
    <i name="EFIELD">      0.00000000</i>
   </separator>
  </separator>
  <separator name="grids" >
   <i type="int" name="NGX">    48</i>
   <i type="int" name="NGY">    48</i>
   <i type="int" name="NGZ">    48</i>
   <i type="int" name="NGXF">    96</i>
   <i type="int" name="NGYF">    96</i>
   <i type="int" name="NGZF">    96</i>
   <i type="logical" name="ADDGRID"> T  </i>
  </separator>
  <separator name="ionic" >
   <i type="int" name="NSW">     0</i>
   <i type="int" name="IBRION">    -1</i>
   <i type="int" name="MDALGO">     0</i>
   <i type="int" name="ISIF">    -1</i>
   <i name="PSTRESS">      0.00000000</i>
   <i name="EDIFFG">      0.00000001</i>
   <i type="int" name="NFREE">     0</i>
   <i name="POTIM">      0.50000000</i>
   <i name="SMASS">     -3.00000000</i>
   <i name="SCALEE">      1.00000000</i>
  </separator>
  <separator name="ionic md" >
   <i name="TEBEG">      0.00010000</i>
   <i name="TEEND">      0.00010000</i>
   <i type="int" name="NBLOCK">     1</i>
   <i type="int" name="KBLOCK">     1</i>
   <i type="int" name="NPACO">   256</i>
   <i name="APACO">     16.00000000</i>
  </separator>
  <separator name="symmetry" >
   <i type="int" name="ISYM">     2</i>
   <i name="SYMPREC">      0.00001000</i>
  </separator>
  <separator name="dos" >
   <i type="int" name="LORBIT">     0</i>
   <v name="RWIGS">     -1.00000000     -1.00000000     -1.00000000</v>
   <i type="int" name="NEDOS">   301</i>
   <i name="EMIN">     10.00000000</i>
   <i name="EMAX">    -10.00000000</i>
   <i name="EFERMI">      0.00000000</i>
  </separator>
  <separator name="writing" >
   <i type="int" name="NWRITE">     2</i>
   <i type="logical" name="LWAVE"> T  </i>
   <i type="logical" name="LDOWNSAMPLE"> F  </i>
   <i type="logical" name="LCHARG"> T  </i>
   <i type="logical" name="LPARD"> F  </i>
   <i type="logical" name="LVTOT"> F  </i>
   <i type="logical" name="LVHAR"> F  </i>
   <i type="logical" name="LELF"> F  </i>
   <i type="logical" name="LOPTICS"> F  </i>
   <v name="STM">      0.00000000      0.00000000      0.00000000      0.00000000      0.00000000      0.00000000      0.00000000</v>
  </separator>
  <separator name="performance" >
   <i type="int" name="NPAR">     6</i>
   <i type="int" name="NSIM">     4</i>
   <i type="int" name="NBLK">    -1</i>
   <i type="logical" name="LPLANE"> T  </i>
   <i type="logical" name="LSCALAPACK"> T  </i>
   <i type="logical" name="LSCAAWARE"> F  </i>
   <i type="logical" name="LSCALU"> F  </i>
   <i type="logical" name="LASYNC"> F  </i>
   <i type="logical" name="LORBITALREAL"> F  </i>
  </separator>
  <separator name="miscellaneous" >
   <i type="int" name="IDIOT">     3</i>
   <i type="int" name="PHON_NSTRUCT">    -1</i>
   <i type="logical" name="LMUSIC"> F  </i>
   <v name="POMASS">     10.81100000     95.94000000     28.08500000</v>
   <v name="DARWINR">      0.00000000      0.00000000      0.00000000</v>
   <v name="DARWINV">      1.00000000      1.00000000      1.00000000</v>
   <i type="logical" name="LCORR"> T  </i>
  </separator>
  <i type="logical" name="GGA_COMPAT"> T  </i>
  <i type="logical" name="LBERRY"> F  </i>
  <i type="int" name="ICORELEVEL">     0</i>
  <i type="logical" name="LDAU"> F  </i>
  <i type="int" name="I_CONSTRAINED_M">     0</i>
  <separator name="electronic exchange-correlation" >
   <i type="string" name="GGA">--</i>
   <i type="int" name="VOSKOWN">     0</i>
   <i type="logical" name="LHFCALC"> F  </i>
   <i type="string" name="PRECFOCK"></i>
   <i type="logical" name="LSYMGRAD"> F  </i>
   <i type="logical" name="LHFONE"> F  </i>
   <i type="logical" name="LRHFCALC"> F  </i>
   <i type="logical" name="LTHOMAS"> F  </i>
   <i type="logical" name="LMODELHF"> F  </i>
   <i type="logical" name="LFOCKACE"> F  </i>
   <i name="ENCUT4O">     -1.00000000</i>
   <i type="int" name="EXXOEP">     0</i>
   <i type="int" name="FOURORBIT">     0</i>
   <i name="AEXX">      0.00000000</i>
   <i name="HFALPHA">      0.00000000</i>
   <i name="MCALPHA">      0.00000000</i>
   <i name="ALDAX">      1.00000000</i>
   <i name="AGGAX">      1.00000000</i>
   <i name="ALDAC">      1.00000000</i>
   <i name="AGGAC">      1.00000000</i>
   <i type="int" name="NKREDX">     1</i>
   <i type="int" name="NKREDY">     1</i>
   <i type="int" name="NKREDZ">     1</i>
   <i type="logical" name="SHIFTRED"> F  </i>
   <i type="logical" name="ODDONLY"> F  </i>
   <i type="logical" name="EVENONLY"> F  </i>
   <i type="int" name="LMAXFOCK">     0</i>
   <i type="int" name="NMAXFOCKAE">     0</i>
   <i type="logical" name="LFOCKAEDFT"> F  </i>
   <i name="HFSCREEN">      0.00000000</i>
   <i name="HFSCREENC">      0.00000000</i>
   <i type="int" name="NBANDSGWLOW">     0</i>
  </separator>
  <separator name="vdW DFT" >
   <i type="logical" name="LUSE_VDW"> F  </i>
   <i name="Zab_VDW">     -0.84910000</i>
   <i name="PARAM1">      0.12340000</i>
   <i name="PARAM2">      1.00000000</i>
   <i name="PARAM3">      0.00000000</i>
  </separator>
  <separator name="model GW" >
   <i type="int" name="MODEL_GW">     0</i>
   <i name="MODEL_EPS0">      6.39523056</i>
   <i name="MODEL_ALPHA">      1.00000000</i>
  </separator>
  <separator name="linear response parameters" >
   <i type="logical" name="LEPSILON"> F  </i>
   <i type="logical" name="LRPA"> F  </i>
   <i type="logical" name="LNABLA"> F  </i>
   <i type="logical" name="LVEL"> F  </i>
   <i type="int" name="KINTER">     0</i>
   <i name="CSHIFT">      0.10000000</i>
   <i name="OMEGAMAX">     -1.00000000</i>
   <i name="DEG_THRESHOLD">      0.00200000</i>
   <i name="RTIME">     -0.10000000</i>
   <i name="WPLASMAI">      0.00000000</i>
   <v name="DFIELD">      0.00000000      0.00000000      0.00000000</v>
   <v name="WPLASMA">      0.00000000      0.00000000      0.00000000      0.00000000      0.00000000      0.00000000      0.00000000      0.00000000      0.00000000</v>
  </separator>
  <separator name="orbital magnetization" >
   <i type="logical" name="NUCIND"> F  </i>
   <v name="MAGPOS">      0.00000000      0.00000000      0.00000000</v>
   <i type="logical" name="LNICSALL"> T  </i>
   <i type="logical" name="ORBITALMAG"> F  </i>
   <i type="logical" name="LMAGBLOCH"> F  </i>
   <i type="logical" name="LCHIMAG"> F  </i>
   <i type="logical" name="LGAUGE"> T  </i>
   <i type="int" name="MAGATOM">     0</i>
   <v name="MAGDIPOL">      0.00000000      0.00000000      0.00000000</v>
   <v name="AVECCONST">      0.00000000      0.00000000      0.00000000</v>
  </separator>
  <separator name="response functions" >
   <i type="logical" name="LFINITE_TEMPERATURE"> F  </i>
   <i type="logical" name="LADDER"> F  </i>
   <i type="logical" name="LRPAFORCE"> F  </i>
   <i type="logical" name="LFXC"> F  </i>
   <i type="logical" name="LHARTREE"> T  </i>
   <i type="int" name="IBSE">     0</i>
   <v type="int" name="KPOINT">    -1     0     0     0</v>
   <i type="logical" name="LTCTC"> F  </i>
   <i type="logical" name="LTCTE"> F  </i>
   <i type="logical" name="LTETE"> F  </i>
   <i type="logical" name="LTRIPLET"> F  </i>
   <i type="logical" name="LFXCEPS"> F  </i>
   <i type="logical" name="LFXHEG"> F  </i>
   <i type="int" name="NATURALO">     2</i>
   <i type="logical" name="LHOLEGF"> F  </i>
   <i type="logical" name="L2ORDER"> F  </i>
   <i type="logical" name="LDMP1"> F  </i>
   <i type="logical" name="LMP2LT"> F  </i>
   <i type="logical" name="LSMP2LT"> F  </i>
   <i type="logical" name="LGWLF"> F  </i>
   <i name="ENCUTGW">     -2.00000000</i>
   <i name="ENCUTGWSOFT">     -2.00000000</i>
   <i name="ENCUTLF">     -1.00000000</i>
   <i type="logical" name="LESF_SPLINES"> F  </i>
   <i type="int" name="LMAXMP2">    -1</i>
   <i name="SCISSOR">      0.00000000</i>
   <i type="int" name="NOMEGA">     0</i>
   <i type="int" name="NOMEGAR">     0</i>
   <i type="int" name="NBANDSGW">    -1</i>
   <i type="int" name="NBANDSO">    -1</i>
   <i type="int" name="NBANDSV">    -1</i>
   <i type="int" name="NELM">   100</i>
   <i type="int" name="NELMHF">     1</i>
   <i type="int" name="DIM">     3</i>
   <i type="int" name="IESPILON">     4</i>
   <i type="int" name="ANTIRES">     0</i>
   <i name="OMEGAMAX">    -30.00000000</i>
   <i name="OMEGAMIN">    -30.00000000</i>
   <i name="OMEGATL">   -200.00000000</i>
   <i type="int" name="OMEGAGRID">     0</i>
   <i name="CSHIFT">     -0.10000000</i>
   <i type="logical" name="LSELFENERGY"> F  </i>
   <i type="logical" name="LSPECTRAL"> F  </i>
   <i type="logical" name="LSPECTRALGW"> F  </i>
   <i type="logical" name="LSINGLES"> F  </i>
   <i type="logical" name="LFERMIGW"> F  </i>
   <i type="logical" name="ODDONLYGW"> F  </i>
   <i type="logical" name="EVENONLYGW"> F  </i>
   <i type="int" name="NKREDLFX">     1</i>
   <i type="int" name="NKREDLFY">     1</i>
   <i type="int" name="NKREDLFZ">     1</i>
   <i type="int" name="MAXMEM">  2800</i>
   <i type="int" name="TELESCOPE">     0</i>
   <i type="int" name="NTAUPAR">    -1</i>
   <i type="int" name="NOMEGAPAR">    -1</i>
   <i name="DAMP_NEWTON">      0.80000001</i>
   <i name="LAMBDA">      1.00000000</i>
  </separator>
  <separator name="External order field" >
   <i name="OFIELD_KAPPA">      0.00000000</i>
   <v name="OFIELD_K">      0.00000000      0.00000000      0.00000000</v>
   <i name="OFIELD_Q6_NEAR">      0.00000000</i>
   <i name="OFIELD_Q6_FAR">      0.00000000</i>
   <i name="OFIELD_A">      0.00000000</i>
  </separator>
 </parameters>
 <atominfo>
  <atoms>      12 </atoms>
  <types>       3 </types>
  <array name="atoms" >
   <dimension dim="1">ion</dimension>
   <field type="string">element</field>
   <field type="int">atomtype</field>
   <set>
    <rc><c>B </c><c>   1</c></rc>
    <rc><c>B </c><c>   1</c></rc>
    <rc><c>B </c><c>   1</c></rc>
    <rc><c>B </c><c>   1</c></rc>
    <rc><c>Mo</c><c>   2</c></rc>
    <rc><c>Mo</c><c>   2</c></rc>
    <rc><c>Mo</c><c>   2</c></rc>
    <rc><c>Mo</c><c>   2</c></rc>
    <rc><c>Mo</c><c>   2</c></rc>
    <rc><c>Mo</c><c>   2</c></rc>
    <rc><c>Si</c><c>   3</c></rc>
    <rc><c>Si</c><c>   3</c></rc>
   </set>
  </array>
  <array name="atomtypes" >
   <dimension dim="1">type</dimension>
   <field type="int">atomspertype</field>
   <field type="string">element</field>
   <field>mass</field>
   <field>valence</field>
   <field type="string">pseudopotential</field>
   <set>
    <rc><c>   4</c><c>B </c><c>     10.81100000</c><c>      3.00000000</c><c>  PAW_PBE B 06Sep2000                   </c></rc>
    <rc><c>   6</c><c>Mo</c><c>     95.94000000</c><c>     14.00000000</c><c>  PAW_PBE Mo_sv 02Feb2006               </c></rc>
    <rc><c>   2</c><c>Si</c><c>     28.08500000</c><c>      4.00000000</c><c>  PAW_PBE Si 05Jan2001                  </c></rc>
   </set>
  </array>
 </atominfo>
 <structure name="initialpos" >
  <crystal>
   <varray name="basis" >
    <v>       4.93269365       0.00000000      -2.68838682 </v>
    <v>      -1.73966228       4.61573849      -2.68838682 </v>
    <v>       0.00000000       0.00000000       5.61773000 </v>
   </varray>
   <i name="volume">    127.90461117 </i>
   <varray name="rec_basis" >
    <v>       0.20272899       0.07640814       0.00000000 </v>
    <v>       0.00000000       0.21665006       0.00000000 </v>
    <v>       0.09701676       0.14024415       0.17800784 </v>
   </varray>
  </crystal>
  <varray name="positions" >
   <v>       0.24782000       0.25218000       0.50000000 </v>
   <v>       0.75218000       0.74782000       0.50000000 </v>
   <v>       0.25218000       0.75218000       0.00436000 </v>
   <v>       0.74782000       0.24782000       0.99564000 </v>
   <v>       0.50000000       0.00000000       0.00000000 </v>
   <v>       0.00000000       0.00000000       0.00000000 </v>
   <v>       0.00000000       0.00000000       0.50000000 </v>
   <v>       0.00000000       0.50000000       0.00000000 </v>
   <v>       0.50000000       0.50000000       0.50000000 </v>
   <v>       0.50000000       0.50000000       0.00000000 </v>
   <v>       0.50000000       0.00000000       0.50000000 </v>
   <v>       0.00000000       0.50000000       0.50000000 </v>
  </varray>
 </structure>
 <calculation>
  <scstep>
   <time name="total">   25.04   25.28</time>
   <energy>
    <i name="alphaZ">    730.46002211 </i>
    <i name="ewald"> -10163.10637511 </i>
    <i name="hartreedc">  -2140.54741803 </i>
    <i name="XCdc">    494.92579618 </i>
    <i name="pawpsdc">   9250.47132855 </i>
    <i name="pawaedc">  -9210.50234729 </i>
    <i name="eentropy">     -0.00055667 </i>
    <i name="bandstr">    485.51343212 </i>
    <i name="atom">  11664.50664672 </i>
    <i name="e_fr_energy">   1111.72052858 </i>
    <i name="e_wo_entrp">   1111.72108525 </i>
    <i name="e_0_energy">   1111.72080691 </i>
   </energy>
  </scstep>
  <scstep>
   <time name="total">   25.64   25.87</time>
   <energy>
    <i name="e_fr_energy">   -189.11838599 </i>
    <i name="e_wo_entrp">   -189.11751246 </i>
    <i name="e_0_energy">   -189.11794922 </i>
   </energy>
  </scstep>
  <scstep>
   <time name="total">   27.65   27.90</time>
   <energy>
    <i name="e_fr_energy">   -242.59617633 </i>
    <i name="e_wo_entrp">   -242.59521880 </i>
    <i name="e_0_energy">   -242.59569756 </i>
   </energy>
  </scstep>
  <scstep>
   <time name="total">   26.75   27.00</time>
   <energy>
    <i name="e_fr_energy">   -243.63526611 </i>
    <i name="e_wo_entrp">   -243.63430835 </i>
    <i name="e_0_energy">   -243.63478723 </i>
   </energy>
  </scstep>
  <scstep>
   <time name="total">   28.55   28.80</time>
   <energy>
    <i name="e_fr_energy">   -243.64862182 </i>
    <i name="e_wo_entrp">   -243.64766511 </i>
    <i name="e_0_energy">   -243.64814346 </i>
   </energy>
  </scstep>
  <scstep>
   <time name="total">   28.49   28.72</time>
   <energy>
    <i name="e_fr_energy">   -155.86140624 </i>
    <i name="e_wo_entrp">   -155.86046096 </i>
    <i name="e_0_energy">   -155.86093360 </i>
   </energy>
  </scstep>
  <scstep>
   <time name="total">   28.94   29.17</time>
   <energy>
    <i name="e_fr_energy">   -186.24603601 </i>
    <i name="e_wo_entrp">   -186.24481360 </i>
    <i name="e_0_energy">   -186.24542480 </i>
   </energy>
  </scstep>
  <scstep>
   <time name="total">   28.54   28.77</time>
   <energy>
    <i name="e_fr_energy">   -190.78432375 </i>
    <i name="e_wo_entrp">   -190.78296432 </i>
    <i name="e_0_energy">   -190.78364404 </i>
   </energy>
  </scstep>
  <scstep>
   <time name="total">   28.86   29.09</time>
   <energy>
    <i name="e_fr_energy">   -191.91582234 </i>
    <i name="e_wo_entrp">   -191.91423925 </i>
    <i name="e_0_energy">   -191.91503080 </i>
   </energy>
  </scstep>
  <scstep>
   <time name="total">   28.31   28.55</time>
   <energy>
    <i name="e_fr_energy">   -192.22936669 </i>
    <i name="e_wo_entrp">   -192.22788604 </i>
    <i name="e_0_energy">   -192.22862637 </i>
   </energy>
  </scstep>
  <scstep>
   <time name="total">   28.41   28.64</time>
   <energy>
    <i name="e_fr_energy">   -192.31400864 </i>
    <i name="e_wo_entrp">   -192.31255484 </i>
    <i name="e_0_energy">   -192.31328174 </i>
   </energy>
  </scstep>
  <scstep>
   <time name="total">   28.50   28.74</time>
   <energy>
    <i name="e_fr_energy">   -192.34734972 </i>
    <i name="e_wo_entrp">   -192.34589840 </i>
    <i name="e_0_energy">   -192.34662406 </i>
   </energy>
  </scstep>
  <scstep>
   <time name="total">   28.79   29.02</time>
   <energy>
    <i name="e_fr_energy">   -192.35823630 </i>
    <i name="e_wo_entrp">   -192.35677510 </i>
    <i name="e_0_energy">   -192.35750570 </i>
   </energy>
  </scstep>
  <scstep>
   <time name="total">   28.81   29.04</time>
   <energy>
    <i name="e_fr_energy">   -192.36295671 </i>
    <i name="e_wo_entrp">   -192.36150624 </i>
    <i name="e_0_energy">   -192.36223147 </i>
   </energy>
  </scstep>
  <scstep>
   <time name="total">   29.50   29.72</time>
   <energy>
    <i name="e_fr_energy">   -192.36443511 </i>
    <i name="e_wo_entrp">   -192.36297153 </i>
    <i name="e_0_energy">   -192.36370332 </i>
   </energy>
  </scstep>
  <scstep>
   <time name="total">   28.91   29.14</time>
   <energy>
    <i name="e_fr_energy">   -192.36493652 </i>
    <i name="e_wo_entrp">   -192.36347555 </i>
    <i name="e_0_energy">   -192.36420604 </i>
   </energy>
  </scstep>
  <scstep>
   <time name="total">   28.62   28.86</time>
   <energy>
    <i name="e_fr_energy">   -192.36511619 </i>
    <i name="e_wo_entrp">   -192.36364978 </i>
    <i name="e_0_energy">   -192.36438299 </i>
   </energy>
  </scstep>
  <scstep>
   <time name="total">   28.34   28.56</time>
   <energy>
    <i name="e_fr_energy">   -192.36519354 </i>
    <i name="e_wo_entrp">   -192.36372855 </i>
    <i name="e_0_energy">   -192.36446104 </i>
   </energy>
  </scstep>
  <scstep>
   <time name="total">   29.10   29.33</time>
   <energy>
    <i name="e_fr_energy">   -192.36521625 </i>
    <i name="e_wo_entrp">   -192.36375004 </i>
    <i name="e_0_energy">   -192.36448315 </i>
   </energy>
  </scstep>
  <scstep>
   <time name="total">   28.72   28.95</time>
   <energy>
    <i name="e_fr_energy">   -192.36522360 </i>
    <i name="e_wo_entrp">   -192.36375834 </i>
    <i name="e_0_energy">   -192.36449097 </i>
   </energy>
  </scstep>
  <scstep>
   <time name="total">   28.74   28.97</time>
   <energy>
    <i name="e_fr_energy">   -192.36522684 </i>
    <i name="e_wo_entrp">   -192.36376208 </i>
    <i name="e_0_energy">   -192.36449446 </i>
   </energy>
  </scstep>
  <scstep>
   <time name="total">   28.71   28.95</time>
   <energy>
    <i name="e_fr_energy">   -192.36522788 </i>
    <i name="e_wo_entrp">   -192.36376342 </i>
    <i name="e_0_energy">   -192.36449565 </i>
   </energy>
  </scstep>
  <scstep>
   <time name="total">   28.92   29.15</time>
   <energy>
    <i name="e_fr_energy">   -192.36522854 </i>
    <i name="e_wo_entrp">   -192.36376399 </i>
    <i name="e_0_energy">   -192.36449626 </i>
   </energy>
  </scstep>
  <scstep>
   <time name="total">   28.86   29.09</time>
   <energy>
    <i name="e_fr_energy">   -192.36522873 </i>
    <i name="e_wo_entrp">   -192.36376407 </i>
    <i name="e_0_energy">   -192.36449640 </i>
   </energy>
  </scstep>
  <scstep>
   <time name="total">   28.70   28.93</time>
   <energy>
    <i name="e_fr_energy">   -192.36522844 </i>
    <i name="e_wo_entrp">   -192.36376400 </i>
    <i name="e_0_energy">   -192.36449622 </i>
   </energy>
  </scstep>
  <scstep>
   <time name="total">   28.57   28.80</time>
   <energy>
    <i name="e_fr_energy">   -192.36522865 </i>
    <i name="e_wo_entrp">   -192.36376420 </i>
    <i name="e_0_energy">   -192.36449642 </i>
   </energy>
  </scstep>
  <scstep>
   <time name="total">   27.90   28.13</time>
   <energy>
    <i name="e_fr_energy">   -192.36522874 </i>
    <i name="e_wo_entrp">   -192.36376425 </i>
    <i name="e_0_energy">   -192.36449649 </i>
   </energy>
  </scstep>
  <scstep>
   <time name="total">   49.61   49.99</time>
   <energy>
    <i name="e_fr_energy">   -192.36522886 </i>
    <i name="e_wo_entrp">   -192.36376474 </i>
    <i name="e_0_energy">   -192.36449680 </i>
   </energy>
  </scstep>
  <scstep>
   <time name="total">   28.98   29.21</time>
   <energy>
    <i name="e_fr_energy">   -192.36522862 </i>
    <i name="e_wo_entrp">   -192.36376408 </i>
    <i name="e_0_energy">   -192.36449635 </i>
   </energy>
  </scstep>
  <scstep>
   <time name="total">   28.62   28.85</time>
   <energy>
    <i name="e_fr_energy">   -192.36522884 </i>
    <i name="e_wo_entrp">   -192.36376432 </i>
    <i name="e_0_energy">   -192.36449658 </i>
   </energy>
  </scstep>
  <scstep>
   <time name="total">   28.67   28.90</time>
   <energy>
    <i name="e_fr_energy">   -192.36522886 </i>
    <i name="e_wo_entrp">   -192.36376439 </i>
    <i name="e_0_energy">   -192.36449662 </i>
   </energy>
  </scstep>
  <scstep>
   <time name="total">   28.78   29.00</time>
   <energy>
    <i name="e_fr_energy">   -192.36522887 </i>
    <i name="e_wo_entrp">   -192.36376437 </i>
    <i name="e_0_energy">   -192.36449662 </i>
   </energy>
  </scstep>
  <scstep>
   <time name="total">   28.69   28.92</time>
   <energy>
    <i name="e_fr_energy">   -192.36522887 </i>
    <i name="e_wo_entrp">   -192.36376437 </i>
    <i name="e_0_energy">   -192.36449662 </i>
   </energy>
  </scstep>
  <scstep>
   <time name="total">   28.50   28.74</time>
   <energy>
    <i name="e_fr_energy">   -192.36522887 </i>
    <i name="e_wo_entrp">   -192.36376437 </i>
    <i name="e_0_energy">   -192.36449662 </i>
   </energy>
  </scstep>
  <scstep>
   <time name="total">   29.15   29.39</time>
   <energy>
    <i name="e_fr_energy">   -192.36522887 </i>
    <i name="e_wo_entrp">   -192.36376437 </i>
    <i name="e_0_energy">   -192.36449662 </i>
   </energy>
  </scstep>
  <scstep>
   <time name="total">   32.99   33.27</time>
   <energy>
    <i name="alphaZ">    730.46002211 </i>
    <i name="ewald"> -10163.10637511 </i>
    <i name="hartreedc">  -2006.31553682 </i>
    <i name="XCdc">    506.11387522 </i>
    <i name="pawpsdc">  15470.97287139 </i>
    <i name="pawaedc"> -15454.09281298 </i>
    <i name="eentropy">     -0.00146450 </i>
    <i name="bandstr">   -940.90245489 </i>
    <i name="atom">  11664.50664672 </i>
    <i name="e_fr_energy">   -192.36522887 </i>
    <i name="e_wo_entrp">   -192.36376437 </i>
    <i name="e_0_energy">   -192.36449662 </i>
   </energy>
  </scstep>
  <structure>
   <crystal>
    <varray name="basis" >
     <v>       4.93269365       0.00000000      -2.68838682 </v>
     <v>      -1.73966228       4.61573849      -2.68838682 </v>
     <v>       0.00000000       0.00000000       5.61773000 </v>
    </varray>
    <i name="volume">    127.90461117 </i>
    <varray name="rec_basis" >
     <v>       0.20272899       0.07640814       0.00000000 </v>
     <v>       0.00000000       0.21665006       0.00000000 </v>
     <v>       0.09701676       0.14024415       0.17800784 </v>
    </varray>
   </crystal>
   <varray name="positions" >
    <v>       0.24782000       0.25218000       0.50000000 </v>
    <v>       0.75218000       0.74782000       0.50000000 </v>
    <v>       0.25218000       0.75218000       0.00436000 </v>
    <v>       0.74782000       0.24782000       0.99564000 </v>
    <v>       0.50000000       0.00000000       0.00000000 </v>
    <v>       0.00000000       0.00000000       0.00000000 </v>
    <v>       0.00000000       0.00000000       0.50000000 </v>
    <v>       0.00000000       0.50000000       0.00000000 </v>
    <v>       0.50000000       0.50000000       0.50000000 </v>
    <v>       0.50000000       0.50000000       0.00000000 </v>
    <v>       0.50000000       0.00000000       0.50000000 </v>
    <v>       0.00000000       0.50000000       0.50000000 </v>
   </varray>
  </structure>
  <varray name="forces" >
   <v>       0.00000000       0.00000000       0.00000000 </v>
   <v>       0.00000000       0.00000000       0.00000000 </v>
   <v>       0.00000000       0.00000000       0.00000000 </v>
   <v>       0.00000000       0.00000000       0.00000000 </v>
   <v>       0.00000000       0.00000000       0.00000000 </v>
   <v>       0.00000000       0.00000000       0.00000000 </v>
   <v>       0.00000000       0.00000000       0.00000000 </v>
   <v>       0.00000000       0.00000000       0.00000000 </v>
   <v>       0.00000000       0.00000000       0.00000000 </v>
   <v>       0.00000000       0.00000000       0.00000000 </v>
   <v>       0.00000000       0.00000000       0.00000000 </v>
   <v>       0.00000000       0.00000000       0.00000000 </v>
  </varray>
  <varray name="stress" >
   <v>       0.00000000       0.00000000       0.00000000 </v>
   <v>       0.00000000       0.00000000       0.00000000 </v>
   <v>       0.00000000       0.00000000       0.00000000 </v>
  </varray>
  <energy>
   <i name="e_fr_energy">   -192.36522887 </i>
   <i name="e_wo_entrp">   -192.36376437 </i>
   <i name="e_0_energy">   -192.36449662 </i>
  </energy>
  <time name="totalsc"> 1052.54 1061.19</time>
  <eigenvalues>
   <array>
    <dimension dim="1">band</dimension>
    <dimension dim="2">kpoint</dimension>
    <dimension dim="3">spin</dimension>
    <field>eigene</field>
    <field>occ</field>
    <set>
     <set comment="spin 1">
      <set comment="kpoint 1">
       <r>  -49.4891    1.0000 </r>
       <r>  -49.3228    1.0000 </r>
       <r>  -49.3001    1.0000 </r>
       <r>  -49.3001    1.0000 </r>
       <r>  -49.2277    1.0000 </r>
       <r>  -49.2052    1.0000 </r>
       <r>  -23.6743    1.0000 </r>
       <r>  -23.6742    1.0000 </r>
       <r>  -23.4699    1.0000 </r>
       <r>  -23.4561    1.0000 </r>
       <r>  -23.4560    1.0000 </r>
       <r>  -23.4505    1.0000 </r>
       <r>  -23.1672    1.0000 </r>
       <r>  -23.0370    1.0000 </r>
       <r>  -22.7979    1.0000 </r>
       <r>  -22.7978    1.0000 </r>
       <r>  -22.5652    1.0000 </r>
       <r>  -22.5651    1.0000 </r>
       <r>  -22.4140    1.0000 </r>
       <r>  -22.3077    1.0000 </r>
       <r>  -22.3076    1.0000 </r>
       <r>  -22.2848    1.0000 </r>
       <r>  -22.2055    1.0000 </r>
       <r>  -22.0712    1.0000 </r>
       <r>   -1.0853    1.0000 </r>
       <r>    0.8071    1.0000 </r>
       <r>    3.3018    1.0000 </r>
       <r>    5.4235    1.0000 </r>
       <r>    5.4235    1.0000 </r>
       <r>    5.8368    1.0000 </r>
       <r>    6.6513    1.0000 </r>
       <r>    6.6514    1.0000 </r>
       <r>    7.0905    1.0000 </r>
       <r>    7.2082    1.0000 </r>
       <r>    7.2793    1.0000 </r>
       <r>    7.2793    1.0000 </r>
       <r>    7.5675    1.0000 </r>
       <r>    8.6405    1.0000 </r>
       <r>    8.6406    1.0000 </r>
       <r>    8.7351    1.0000 </r>
       <r>    9.6231    1.0000 </r>
       <r>    9.8737    1.0000 </r>
       <r>    9.8737    1.0000 </r>
       <r>   10.4430    1.0000 </r>
       <r>   10.9896    1.0000 </r>
       <r>   11.8115    1.0000 </r>
       <r>   12.7414    1.0000 </r>
       <r>   12.7414    1.0000 </r>
       <r>   12.8869    1.0000 </r>
       <r>   12.8869    1.0000 </r>
       <r>   13.1039    1.0000 </r>
       <r>   13.9030    0.0000 </r>
       <r>   14.4064    0.0000 </r>
       <r>   14.8154    0.0000 </r>
       <r>   15.0596    0.0000 </r>
       <r>   15.0596    0.0000 </r>
       <r>   15.2189    0.0000 </r>
       <r>   15.5082    0.0000 </r>
       <r>   15.9987    0.0000 </r>
       <r>   16.1002    0.0000 </r>
       <r>   16.2815    0.0000 </r>
       <r>   16.5475    0.0000 </r>
       <r>   16.7143    0.0000 </r>
       <r>   16.7143    0.0000 </r>
       <r>   17.6942    0.0000 </r>
       <r>   18.7256    0.0000 </r>
      </set>
      <set comment="kpoint 2">
       <r>  -49.4824    1.0000 </r>
       <r>  -49.3242    1.0000 </r>
       <r>  -49.3016    1.0000 </r>
       <r>  -49.2974    1.0000 </r>
       <r>  -49.2305    1.0000 </r>
       <r>  -49.2094    1.0000 </r>
       <r>  -23.6574    1.0000 </r>
       <r>  -23.6530    1.0000 </r>
       <r>  -23.4685    1.0000 </r>
       <r>  -23.4342    1.0000 </r>
       <r>  -23.4280    1.0000 </r>
       <r>  -23.4190    1.0000 </r>
       <r>  -23.1530    1.0000 </r>
       <r>  -23.0404    1.0000 </r>
       <r>  -22.8119    1.0000 </r>
       <r>  -22.7902    1.0000 </r>
       <r>  -22.5899    1.0000 </r>
       <r>  -22.5864    1.0000 </r>
       <r>  -22.4294    1.0000 </r>
       <r>  -22.3427    1.0000 </r>
       <r>  -22.3119    1.0000 </r>
       <r>  -22.2978    1.0000 </r>
       <r>  -22.2189    1.0000 </r>
       <r>  -22.0892    1.0000 </r>
       <r>   -0.9618    1.0000 </r>
       <r>    0.8748    1.0000 </r>
       <r>    3.3297    1.0000 </r>
       <r>    4.7806    1.0000 </r>
       <r>    5.1239    1.0000 </r>
       <r>    6.2753    1.0000 </r>
       <r>    6.5320    1.0000 </r>
       <r>    6.9627    1.0000 </r>
       <r>    6.9988    1.0000 </r>
       <r>    7.2483    1.0000 </r>
       <r>    7.3132    1.0000 </r>
       <r>    7.3257    1.0000 </r>
       <r>    7.8587    1.0000 </r>
       <r>    8.6913    1.0000 </r>
       <r>    8.8483    1.0000 </r>
       <r>    9.0344    1.0000 </r>
       <r>    9.4461    1.0000 </r>
       <r>    9.9400    1.0000 </r>
       <r>    9.9852    1.0000 </r>
       <r>   10.2702    1.0000 </r>
       <r>   10.9500    1.0000 </r>
       <r>   11.8157    1.0000 </r>
       <r>   12.7059    1.0000 </r>
       <r>   12.7971    1.0000 </r>
       <r>   12.8545    1.0000 </r>
       <r>   12.8943    1.0000 </r>
       <r>   13.1142    1.0000 </r>
       <r>   13.8429    0.0000 </r>
       <r>   13.9023    0.0000 </r>
       <r>   14.1074    0.0000 </r>
       <r>   14.5085    0.0000 </r>
       <r>   15.2698    0.0000 </r>
       <r>   15.5527    0.0000 </r>
       <r>   15.5589    0.0000 </r>
       <r>   15.5961    0.0000 </r>
       <r>   16.3252    0.0000 </r>
       <r>   16.3604    0.0000 </r>
       <r>   16.5829    0.0000 </r>
       <r>   16.6948    0.0000 </r>
       <r>   16.7385    0.0000 </r>
       <r>   17.2636    0.0000 </r>
       <r>   17.9291    0.0000 </r>
      </set>
      <set comment="kpoint 3">
       <r>  -49.4632    1.0000 </r>
       <r>  -49.3384    1.0000 </r>
       <r>  -49.2956    1.0000 </r>
       <r>  -49.2896    1.0000 </r>
       <r>  -49.2384    1.0000 </r>
       <r>  -49.2212    1.0000 </r>
       <r>  -23.6186    1.0000 </r>
       <r>  -23.5935    1.0000 </r>
       <r>  -23.4828    1.0000 </r>
       <r>  -23.3853    1.0000 </r>
       <r>  -23.3310    1.0000 </r>
       <r>  -23.3232    1.0000 </r>
       <r>  -23.1088    1.0000 </r>
       <r>  -23.0431    1.0000 </r>
       <r>  -22.8525    1.0000 </r>
       <r>  -22.7624    1.0000 </r>
       <r>  -22.6668    1.0000 </r>
       <r>  -22.6523    1.0000 </r>
       <r>  -22.4799    1.0000 </r>
       <r>  -22.4637    1.0000 </r>
       <r>  -22.3220    1.0000 </r>
       <r>  -22.3205    1.0000 </r>
       <r>  -22.2311    1.0000 </r>
       <r>  -22.1320    1.0000 </r>
       <r>   -0.6067    1.0000 </r>
       <r>    1.0086    1.0000 </r>
       <r>    3.4168    1.0000 </r>
       <r>    4.0350    1.0000 </r>
       <r>    4.6236    1.0000 </r>
       <r>    5.6202    1.0000 </r>
       <r>    6.7594    1.0000 </r>
       <r>    7.2441    1.0000 </r>
       <r>    7.5300    1.0000 </r>
       <r>    7.5389    1.0000 </r>
       <r>    7.5764    1.0000 </r>
       <r>    7.6696    1.0000 </r>
       <r>    8.1880    1.0000 </r>
       <r>    8.7809    1.0000 </r>
       <r>    9.1970    1.0000 </r>
       <r>    9.3255    1.0000 </r>
       <r>    9.5774    1.0000 </r>
       <r>    9.9271    1.0000 </r>
       <r>    9.9663    1.0000 </r>
       <r>   10.2256    1.0000 </r>
       <r>   11.0154    1.0000 </r>
       <r>   11.7215    1.0000 </r>
       <r>   12.1751    1.0000 </r>
       <r>   12.4674    1.0000 </r>
       <r>   12.5552    1.0000 </r>
       <r>   13.0496    1.0000 </r>
       <r>   13.1562    1.0000 </r>
       <r>   13.3939    0.0000 </r>
       <r>   13.4458    0.0000 </r>
       <r>   13.8807    0.0000 </r>
       <r>   14.2901    0.0000 </r>
       <r>   14.9349    0.0000 </r>
       <r>   15.1832    0.0000 </r>
       <r>   15.3480    0.0000 </r>
       <r>   15.6729    0.0000 </r>
       <r>   15.6754    0.0000 </r>
       <r>   16.0588    0.0000 </r>
       <r>   16.4440    0.0000 </r>
       <r>   16.5850    0.0000 </r>
       <r>   16.7747    0.0000 </r>
       <r>   17.2693    0.0000 </r>
       <r>   18.1684    0.0000 </r>
      </set>
      <set comment="kpoint 4">
       <r>  -49.4344    1.0000 </r>
       <r>  -49.3663    1.0000 </r>
       <r>  -49.2797    1.0000 </r>
       <r>  -49.2780    1.0000 </r>
       <r>  -49.2502    1.0000 </r>
       <r>  -49.2389    1.0000 </r>
       <r>  -23.5763    1.0000 </r>
       <r>  -23.5083    1.0000 </r>
       <r>  -23.5066    1.0000 </r>
       <r>  -23.3671    1.0000 </r>
       <r>  -23.1923    1.0000 </r>
       <r>  -23.1846    1.0000 </r>
       <r>  -23.0236    1.0000 </r>
       <r>  -23.0041    1.0000 </r>
       <r>  -22.9100    1.0000 </r>
       <r>  -22.7919    1.0000 </r>
       <r>  -22.7623    1.0000 </r>
       <r>  -22.7103    1.0000 </r>
       <r>  -22.6521    1.0000 </r>
       <r>  -22.5571    1.0000 </r>
       <r>  -22.3336    1.0000 </r>
       <r>  -22.3318    1.0000 </r>
       <r>  -22.2279    1.0000 </r>
       <r>  -22.1771    1.0000 </r>
       <r>   -0.0719    1.0000 </r>
       <r>    0.9606    1.0000 </r>
       <r>    3.5661    1.0000 </r>
       <r>    3.6930    1.0000 </r>
       <r>    4.1722    1.0000 </r>
       <r>    4.7101    1.0000 </r>
       <r>    7.2818    1.0000 </r>
       <r>    7.3533    1.0000 </r>
       <r>    7.6390    1.0000 </r>
       <r>    7.6714    1.0000 </r>
       <r>    8.1023    1.0000 </r>
       <r>    8.4695    1.0000 </r>
       <r>    8.6126    1.0000 </r>
       <r>    8.9287    1.0000 </r>
       <r>    9.1069    1.0000 </r>
       <r>    9.4203    1.0000 </r>
       <r>    9.7211    1.0000 </r>
       <r>    9.7294    1.0000 </r>
       <r>   10.2518    1.0000 </r>
       <r>   10.4184    1.0000 </r>
       <r>   11.0625    1.0000 </r>
       <r>   11.2858    1.0000 </r>
       <r>   11.4993    1.0000 </r>
       <r>   12.1063    1.0000 </r>
       <r>   12.4533    1.0000 </r>
       <r>   12.8048    1.0000 </r>
       <r>   12.9349    1.0000 </r>
       <r>   13.0826    1.0000 </r>
       <r>   13.6297    0.0000 </r>
       <r>   13.9504    0.0000 </r>
       <r>   14.4513    0.0000 </r>
       <r>   14.4819    0.0000 </r>
       <r>   14.8200    0.0000 </r>
       <r>   14.9587    0.0000 </r>
       <r>   15.1297    0.0000 </r>
       <r>   15.3524    0.0000 </r>
       <r>   15.4047    0.0000 </r>
       <r>   16.7686    0.0000 </r>
       <r>   16.8455    0.0000 </r>
       <r>   16.8459    0.0000 </r>
       <r>   17.1627    0.0000 </r>
       <r>   17.1998    0.0000 </r>
      </set>
      <set comment="kpoint 5">
       <r>  -49.4003    1.0000 </r>
       <r>  -49.4003    1.0000 </r>
       <r>  -49.2641    1.0000 </r>
       <r>  -49.2641    1.0000 </r>
       <r>  -49.2595    1.0000 </r>
       <r>  -49.2595    1.0000 </r>
       <r>  -23.5383    1.0000 </r>
       <r>  -23.5383    1.0000 </r>
       <r>  -23.4200    1.0000 </r>
       <r>  -23.4200    1.0000 </r>
       <r>  -23.0986    1.0000 </r>
       <r>  -23.0986    1.0000 </r>
       <r>  -22.9234    1.0000 </r>
       <r>  -22.9234    1.0000 </r>
       <r>  -22.8956    1.0000 </r>
       <r>  -22.8956    1.0000 </r>
       <r>  -22.8572    1.0000 </r>
       <r>  -22.8572    1.0000 </r>
       <r>  -22.6386    1.0000 </r>
       <r>  -22.6386    1.0000 </r>
       <r>  -22.3365    1.0000 </r>
       <r>  -22.3365    1.0000 </r>
       <r>  -22.2101    1.0000 </r>
       <r>  -22.2101    1.0000 </r>
       <r>    0.5294    1.0000 </r>
       <r>    0.5294    1.0000 </r>
       <r>    3.8138    1.0000 </r>
       <r>    3.8138    1.0000 </r>
       <r>    3.9855    1.0000 </r>
       <r>    3.9855    1.0000 </r>
       <r>    7.5315    1.0000 </r>
       <r>    7.5315    1.0000 </r>
       <r>    7.6149    1.0000 </r>
       <r>    7.6149    1.0000 </r>
       <r>    8.5855    1.0000 </r>
       <r>    8.5855    1.0000 </r>
       <r>    9.0787    1.0000 </r>
       <r>    9.0787    1.0000 </r>
       <r>    9.3411    1.0000 </r>
       <r>    9.3411    1.0000 </r>
       <r>    9.3948    1.0000 </r>
       <r>    9.3948    1.0000 </r>
       <r>   10.5698    1.0000 </r>
       <r>   10.5698    1.0000 </r>
       <r>   10.7279    1.0000 </r>
       <r>   10.7279    1.0000 </r>
       <r>   12.0876    1.0000 </r>
       <r>   12.0876    1.0000 </r>
       <r>   12.2884    1.0000 </r>
       <r>   12.2884    1.0000 </r>
       <r>   12.8928    1.0000 </r>
       <r>   12.8928    1.0000 </r>
       <r>   14.1010    0.0000 </r>
       <r>   14.1010    0.0000 </r>
       <r>   14.1268    0.0000 </r>
       <r>   14.1268    0.0000 </r>
       <r>   14.6622    0.0000 </r>
       <r>   14.6622    0.0000 </r>
       <r>   15.0030    0.0000 </r>
       <r>   15.0030    0.0000 </r>
       <r>   16.1332    0.0000 </r>
       <r>   16.1332    0.0000 </r>
       <r>   17.0202    0.0000 </r>
       <r>   17.0217    0.0000 </r>
       <r>   17.0844    0.0000 </r>
       <r>   17.0890    0.0000 </r>
      </set>
      <set comment="kpoint 6">
       <r>  -49.4710    1.0000 </r>
       <r>  -49.3301    1.0000 </r>
       <r>  -49.3001    1.0000 </r>
       <r>  -49.2931    1.0000 </r>
       <r>  -49.2342    1.0000 </r>
       <r>  -49.2175    1.0000 </r>
       <r>  -23.6355    1.0000 </r>
       <r>  -23.6059    1.0000 </r>
       <r>  -23.4680    1.0000 </r>
       <r>  -23.4165    1.0000 </r>
       <r>  -23.3614    1.0000 </r>
       <r>  -23.3611    1.0000 </r>
       <r>  -23.1402    1.0000 </r>
       <r>  -23.0434    1.0000 </r>
       <r>  -22.8097    1.0000 </r>
       <r>  -22.8094    1.0000 </r>
       <r>  -22.6588    1.0000 </r>
       <r>  -22.6102    1.0000 </r>
       <r>  -22.4427    1.0000 </r>
       <r>  -22.3870    1.0000 </r>
       <r>  -22.3388    1.0000 </r>
       <r>  -22.3118    1.0000 </r>
       <r>  -22.2290    1.0000 </r>
       <r>  -22.1230    1.0000 </r>
       <r>   -0.7539    1.0000 </r>
       <r>    0.9754    1.0000 </r>
       <r>    3.4352    1.0000 </r>
       <r>    4.2038    1.0000 </r>
       <r>    4.7255    1.0000 </r>
       <r>    6.3936    1.0000 </r>
       <r>    6.4617    1.0000 </r>
       <r>    6.6474    1.0000 </r>
       <r>    7.4083    1.0000 </r>
       <r>    7.4358    1.0000 </r>
       <r>    7.4746    1.0000 </r>
       <r>    7.7460    1.0000 </r>
       <r>    8.0534    1.0000 </r>
       <r>    8.9279    1.0000 </r>
       <r>    9.1228    1.0000 </r>
       <r>    9.2980    1.0000 </r>
       <r>    9.3742    1.0000 </r>
       <r>    9.8774    1.0000 </r>
       <r>    9.9715    1.0000 </r>
       <r>   10.0617    1.0000 </r>
       <r>   11.0450    1.0000 </r>
       <r>   11.6843    1.0000 </r>
       <r>   12.5158    1.0000 </r>
       <r>   12.6624    1.0000 </r>
       <r>   12.8063    1.0000 </r>
       <r>   12.8486    1.0000 </r>
       <r>   13.1722    1.0000 </r>
       <r>   13.3584    0.0334 </r>
       <r>   13.6673    0.0000 </r>
       <r>   13.8679    0.0000 </r>
       <r>   14.3825    0.0000 </r>
       <r>   14.9867    0.0000 </r>
       <r>   15.2119    0.0000 </r>
       <r>   15.4482    0.0000 </r>
       <r>   15.7386    0.0000 </r>
       <r>   15.8372    0.0000 </r>
       <r>   16.4391    0.0000 </r>
       <r>   16.5553    0.0000 </r>
       <r>   16.5582    0.0000 </r>
       <r>   16.8923    0.0000 </r>
       <r>   17.1589    0.0000 </r>
       <r>   18.3718    0.0000 </r>
      </set>
      <set comment="kpoint 7">
       <r>  -49.4482    1.0000 </r>
       <r>  -49.3482    1.0000 </r>
       <r>  -49.2965    1.0000 </r>
       <r>  -49.2790    1.0000 </r>
       <r>  -49.2453    1.0000 </r>
       <r>  -49.2300    1.0000 </r>
       <r>  -23.5877    1.0000 </r>
       <r>  -23.5404    1.0000 </r>
       <r>  -23.4844    1.0000 </r>
       <r>  -23.3690    1.0000 </r>
       <r>  -23.2576    1.0000 </r>
       <r>  -23.2377    1.0000 </r>
       <r>  -23.0975    1.0000 </r>
       <r>  -23.0364    1.0000 </r>
       <r>  -22.8521    1.0000 </r>
       <r>  -22.7821    1.0000 </r>
       <r>  -22.7761    1.0000 </r>
       <r>  -22.6779    1.0000 </r>
       <r>  -22.5203    1.0000 </r>
       <r>  -22.4879    1.0000 </r>
       <r>  -22.3621    1.0000 </r>
       <r>  -22.3352    1.0000 </r>
       <r>  -22.2263    1.0000 </r>
       <r>  -22.1697    1.0000 </r>
       <r>   -0.3340    1.0000 </r>
       <r>    1.0865    1.0000 </r>
       <r>    3.5222    1.0000 </r>
       <r>    3.5483    1.0000 </r>
       <r>    4.3668    1.0000 </r>
       <r>    5.6230    1.0000 </r>
       <r>    6.6339    1.0000 </r>
       <r>    6.9221    1.0000 </r>
       <r>    7.5261    1.0000 </r>
       <r>    7.7246    1.0000 </r>
       <r>    8.0195    1.0000 </r>
       <r>    8.3900    1.0000 </r>
       <r>    8.4037    1.0000 </r>
       <r>    9.0121    1.0000 </r>
       <r>    9.1493    1.0000 </r>
       <r>    9.2752    1.0000 </r>
       <r>    9.7737    1.0000 </r>
       <r>    9.9463    1.0000 </r>
       <r>    9.9616    1.0000 </r>
       <r>   10.2199    1.0000 </r>
       <r>   11.2841    1.0000 </r>
       <r>   11.4717    1.0000 </r>
       <r>   11.4904    1.0000 </r>
       <r>   12.3579    1.0000 </r>
       <r>   12.5718    1.0000 </r>
       <r>   12.8844    1.0000 </r>
       <r>   13.1307    1.0000 </r>
       <r>   13.2607    1.0000 </r>
       <r>   13.3564    0.0449 </r>
       <r>   14.0043    0.0000 </r>
       <r>   14.1513    0.0000 </r>
       <r>   14.6039    0.0000 </r>
       <r>   14.9829    0.0000 </r>
       <r>   15.1291    0.0000 </r>
       <r>   15.4134    0.0000 </r>
       <r>   15.7071    0.0000 </r>
       <r>   16.0440    0.0000 </r>
       <r>   16.3669    0.0000 </r>
       <r>   16.4574    0.0000 </r>
       <r>   16.6158    0.0000 </r>
       <r>   17.3283    0.0000 </r>
       <r>   17.5102    0.0000 </r>
      </set>
      <set comment="kpoint 8">
       <r>  -49.4174    1.0000 </r>
       <r>  -49.3771    1.0000 </r>
       <r>  -49.2860    1.0000 </r>
       <r>  -49.2616    1.0000 </r>
       <r>  -49.2608    1.0000 </r>
       <r>  -49.2450    1.0000 </r>
       <r>  -23.5396    1.0000 </r>
       <r>  -23.5163    1.0000 </r>
       <r>  -23.4575    1.0000 </r>
       <r>  -23.3699    1.0000 </r>
       <r>  -23.1323    1.0000 </r>
       <r>  -23.1061    1.0000 </r>
       <r>  -22.9971    1.0000 </r>
       <r>  -22.9938    1.0000 </r>
       <r>  -22.9206    1.0000 </r>
       <r>  -22.8798    1.0000 </r>
       <r>  -22.7868    1.0000 </r>
       <r>  -22.7365    1.0000 </r>
       <r>  -22.6945    1.0000 </r>
       <r>  -22.5607    1.0000 </r>
       <r>  -22.3749    1.0000 </r>
       <r>  -22.3472    1.0000 </r>
       <r>  -22.2122    1.0000 </r>
       <r>  -22.2109    1.0000 </r>
       <r>    0.2279    1.0000 </r>
       <r>    0.9244    1.0000 </r>
       <r>    3.1917    1.0000 </r>
       <r>    3.6191    1.0000 </r>
       <r>    4.2073    1.0000 </r>
       <r>    4.8612    1.0000 </r>
       <r>    6.8620    1.0000 </r>
       <r>    7.4133    1.0000 </r>
       <r>    7.4517    1.0000 </r>
       <r>    7.8278    1.0000 </r>
       <r>    8.4797    1.0000 </r>
       <r>    8.6610    1.0000 </r>
       <r>    8.9512    1.0000 </r>
       <r>    8.9901    1.0000 </r>
       <r>    9.2762    1.0000 </r>
       <r>    9.3493    1.0000 </r>
       <r>    9.7115    1.0000 </r>
       <r>    9.8365    1.0000 </r>
       <r>   10.3773    1.0000 </r>
       <r>   10.5073    1.0000 </r>
       <r>   10.6423    1.0000 </r>
       <r>   11.0228    1.0000 </r>
       <r>   11.8240    1.0000 </r>
       <r>   12.1145    1.0000 </r>
       <r>   12.2478    1.0000 </r>
       <r>   12.6300    1.0000 </r>
       <r>   12.7765    1.0000 </r>
       <r>   13.1847    1.0000 </r>
       <r>   13.7328    0.0000 </r>
       <r>   13.9431    0.0000 </r>
       <r>   14.0765    0.0000 </r>
       <r>   14.3719    0.0000 </r>
       <r>   14.5940    0.0000 </r>
       <r>   15.0098    0.0000 </r>
       <r>   15.2653    0.0000 </r>
       <r>   15.3486    0.0000 </r>
       <r>   15.8637    0.0000 </r>
       <r>   16.2623    0.0000 </r>
       <r>   16.4529    0.0000 </r>
       <r>   16.6877    0.0000 </r>
       <r>   16.9826    0.0000 </r>
       <r>   17.1167    0.0000 </r>
      </set>
      <set comment="kpoint 9">
       <r>  -49.4103    1.0000 </r>
       <r>  -49.3833    1.0000 </r>
       <r>  -49.2794    1.0000 </r>
       <r>  -49.2717    1.0000 </r>
       <r>  -49.2616    1.0000 </r>
       <r>  -49.2417    1.0000 </r>
       <r>  -23.5600    1.0000 </r>
       <r>  -23.5012    1.0000 </r>
       <r>  -23.4348    1.0000 </r>
       <r>  -23.3791    1.0000 </r>
       <r>  -23.1275    1.0000 </r>
       <r>  -23.0958    1.0000 </r>
       <r>  -22.9933    1.0000 </r>
       <r>  -22.9524    1.0000 </r>
       <r>  -22.8971    1.0000 </r>
       <r>  -22.8790    1.0000 </r>
       <r>  -22.7978    1.0000 </r>
       <r>  -22.7830    1.0000 </r>
       <r>  -22.6509    1.0000 </r>
       <r>  -22.6403    1.0000 </r>
       <r>  -22.3780    1.0000 </r>
       <r>  -22.3482    1.0000 </r>
       <r>  -22.2367    1.0000 </r>
       <r>  -22.1861    1.0000 </r>
       <r>    0.4078    1.0000 </r>
       <r>    0.7831    1.0000 </r>
       <r>    3.1582    1.0000 </r>
       <r>    3.5899    1.0000 </r>
       <r>    4.4395    1.0000 </r>
       <r>    4.5333    1.0000 </r>
       <r>    7.1134    1.0000 </r>
       <r>    7.1842    1.0000 </r>
       <r>    7.5077    1.0000 </r>
       <r>    7.9113    1.0000 </r>
       <r>    8.5477    1.0000 </r>
       <r>    8.7037    1.0000 </r>
       <r>    8.9868    1.0000 </r>
       <r>    9.0166    1.0000 </r>
       <r>    9.1254    1.0000 </r>
       <r>    9.3359    1.0000 </r>
       <r>    9.6234    1.0000 </r>
       <r>    9.8151    1.0000 </r>
       <r>   10.4834    1.0000 </r>
       <r>   10.6543    1.0000 </r>
       <r>   10.8357    1.0000 </r>
       <r>   10.8841    1.0000 </r>
       <r>   11.7921    1.0000 </r>
       <r>   11.9637    1.0000 </r>
       <r>   12.4093    1.0000 </r>
       <r>   12.7156    1.0000 </r>
       <r>   12.7982    1.0000 </r>
       <r>   12.9095    1.0000 </r>
       <r>   13.8196    0.0000 </r>
       <r>   13.9072    0.0000 </r>
       <r>   13.9986    0.0000 </r>
       <r>   14.2823    0.0000 </r>
       <r>   14.7117    0.0000 </r>
       <r>   14.9647    0.0000 </r>
       <r>   15.1325    0.0000 </r>
       <r>   15.3068    0.0000 </r>
       <r>   15.4334    0.0000 </r>
       <r>   16.6538    0.0000 </r>
       <r>   16.8518    0.0000 </r>
       <r>   16.8716    0.0000 </r>
       <r>   16.9219    0.0000 </r>
       <r>   17.0909    0.0000 </r>
      </set>
      <set comment="kpoint 10">
       <r>  -49.4418    1.0000 </r>
       <r>  -49.3515    1.0000 </r>
       <r>  -49.2948    1.0000 </r>
       <r>  -49.2778    1.0000 </r>
       <r>  -49.2565    1.0000 </r>
       <r>  -49.2249    1.0000 </r>
       <r>  -23.6121    1.0000 </r>
       <r>  -23.5127    1.0000 </r>
       <r>  -23.4719    1.0000 </r>
       <r>  -23.3571    1.0000 </r>
       <r>  -23.2556    1.0000 </r>
       <r>  -23.2196    1.0000 </r>
       <r>  -23.0388    1.0000 </r>
       <r>  -23.0192    1.0000 </r>
       <r>  -22.8830    1.0000 </r>
       <r>  -22.7938    1.0000 </r>
       <r>  -22.7163    1.0000 </r>
       <r>  -22.6632    1.0000 </r>
       <r>  -22.5908    1.0000 </r>
       <r>  -22.5698    1.0000 </r>
       <r>  -22.3707    1.0000 </r>
       <r>  -22.3417    1.0000 </r>
       <r>  -22.2456    1.0000 </r>
       <r>  -22.1486    1.0000 </r>
       <r>   -0.1840    1.0000 </r>
       <r>    1.0726    1.0000 </r>
       <r>    3.1543    1.0000 </r>
       <r>    3.6644    1.0000 </r>
       <r>    4.7013    1.0000 </r>
       <r>    5.0828    1.0000 </r>
       <r>    6.8429    1.0000 </r>
       <r>    7.1826    1.0000 </r>
       <r>    7.2931    1.0000 </r>
       <r>    7.8830    1.0000 </r>
       <r>    7.9891    1.0000 </r>
       <r>    8.3371    1.0000 </r>
       <r>    8.5327    1.0000 </r>
       <r>    8.9590    1.0000 </r>
       <r>    8.9871    1.0000 </r>
       <r>    9.3729    1.0000 </r>
       <r>    9.8870    1.0000 </r>
       <r>    9.9061    1.0000 </r>
       <r>   10.3163    1.0000 </r>
       <r>   10.3555    1.0000 </r>
       <r>   11.0999    1.0000 </r>
       <r>   11.5356    1.0000 </r>
       <r>   11.5526    1.0000 </r>
       <r>   12.2082    1.0000 </r>
       <r>   12.5753    1.0000 </r>
       <r>   12.8086    1.0000 </r>
       <r>   12.9327    1.0000 </r>
       <r>   13.3643    0.0122 </r>
       <r>   13.4213    0.0000 </r>
       <r>   13.9112    0.0000 </r>
       <r>   14.2545    0.0000 </r>
       <r>   14.3961    0.0000 </r>
       <r>   15.0020    0.0000 </r>
       <r>   15.2423    0.0000 </r>
       <r>   15.2985    0.0000 </r>
       <r>   15.4067    0.0000 </r>
       <r>   15.6321    0.0000 </r>
       <r>   16.4994    0.0000 </r>
       <r>   16.7849    0.0000 </r>
       <r>   16.8772    0.0000 </r>
       <r>   17.1195    0.0000 </r>
       <r>   17.7565    0.0000 </r>
      </set>
      <set comment="kpoint 11">
       <r>  -49.4666    1.0000 </r>
       <r>  -49.3287    1.0000 </r>
       <r>  -49.3034    1.0000 </r>
       <r>  -49.2915    1.0000 </r>
       <r>  -49.2431    1.0000 </r>
       <r>  -49.2129    1.0000 </r>
       <r>  -23.6577    1.0000 </r>
       <r>  -23.5818    1.0000 </r>
       <r>  -23.4521    1.0000 </r>
       <r>  -23.4076    1.0000 </r>
       <r>  -23.3597    1.0000 </r>
       <r>  -23.3413    1.0000 </r>
       <r>  -23.0956    1.0000 </r>
       <r>  -23.0517    1.0000 </r>
       <r>  -22.8315    1.0000 </r>
       <r>  -22.7673    1.0000 </r>
       <r>  -22.6781    1.0000 </r>
       <r>  -22.5888    1.0000 </r>
       <r>  -22.4904    1.0000 </r>
       <r>  -22.4313    1.0000 </r>
       <r>  -22.3493    1.0000 </r>
       <r>  -22.3319    1.0000 </r>
       <r>  -22.2385    1.0000 </r>
       <r>  -22.1085    1.0000 </r>
       <r>   -0.6579    1.0000 </r>
       <r>    1.0235    1.0000 </r>
       <r>    3.1741    1.0000 </r>
       <r>    4.1240    1.0000 </r>
       <r>    5.0924    1.0000 </r>
       <r>    5.8928    1.0000 </r>
       <r>    6.6117    1.0000 </r>
       <r>    6.8944    1.0000 </r>
       <r>    7.0424    1.0000 </r>
       <r>    7.2545    1.0000 </r>
       <r>    7.6868    1.0000 </r>
       <r>    7.8468    1.0000 </r>
       <r>    8.3517    1.0000 </r>
       <r>    8.7531    1.0000 </r>
       <r>    8.9999    1.0000 </r>
       <r>    9.2034    1.0000 </r>
       <r>    9.6178    1.0000 </r>
       <r>    9.9818    1.0000 </r>
       <r>   10.2847    1.0000 </r>
       <r>   10.3976    1.0000 </r>
       <r>   10.6734    1.0000 </r>
       <r>   11.9989    1.0000 </r>
       <r>   12.3565    1.0000 </r>
       <r>   12.5230    1.0000 </r>
       <r>   12.5389    1.0000 </r>
       <r>   12.9959    1.0000 </r>
       <r>   13.0796    1.0000 </r>
       <r>   13.2985    0.9919 </r>
       <r>   13.5543    0.0000 </r>
       <r>   13.8852    0.0000 </r>
       <r>   14.5388    0.0000 </r>
       <r>   15.0649    0.0000 </r>
       <r>   15.1746    0.0000 </r>
       <r>   15.6460    0.0000 </r>
       <r>   15.7792    0.0000 </r>
       <r>   15.9107    0.0000 </r>
       <r>   15.9479    0.0000 </r>
       <r>   16.4208    0.0000 </r>
       <r>   16.7245    0.0000 </r>
       <r>   16.7630    0.0000 </r>
       <r>   16.9509    0.0000 </r>
       <r>   17.8804    0.0000 </r>
      </set>
      <set comment="kpoint 12">
       <r>  -49.4809    1.0000 </r>
       <r>  -49.3228    1.0000 </r>
       <r>  -49.3002    1.0000 </r>
       <r>  -49.3002    1.0000 </r>
       <r>  -49.2338    1.0000 </r>
       <r>  -49.2076    1.0000 </r>
       <r>  -23.6754    1.0000 </r>
       <r>  -23.6344    1.0000 </r>
       <r>  -23.4499    1.0000 </r>
       <r>  -23.4444    1.0000 </r>
       <r>  -23.4262    1.0000 </r>
       <r>  -23.4108    1.0000 </r>
       <r>  -23.1384    1.0000 </r>
       <r>  -23.0438    1.0000 </r>
       <r>  -22.7991    1.0000 </r>
       <r>  -22.7966    1.0000 </r>
       <r>  -22.6099    1.0000 </r>
       <r>  -22.5654    1.0000 </r>
       <r>  -22.4424    1.0000 </r>
       <r>  -22.3467    1.0000 </r>
       <r>  -22.3221    1.0000 </r>
       <r>  -22.3154    1.0000 </r>
       <r>  -22.2213    1.0000 </r>
       <r>  -22.0840    1.0000 </r>
       <r>   -0.9289    1.0000 </r>
       <r>    0.8988    1.0000 </r>
       <r>    3.2361    1.0000 </r>
       <r>    4.6575    1.0000 </r>
       <r>    5.3904    1.0000 </r>
       <r>    6.5359    1.0000 </r>
       <r>    6.5516    1.0000 </r>
       <r>    6.5676    1.0000 </r>
       <r>    6.7931    1.0000 </r>
       <r>    6.9639    1.0000 </r>
       <r>    7.4424    1.0000 </r>
       <r>    7.4500    1.0000 </r>
       <r>    8.2292    1.0000 </r>
       <r>    8.5931    1.0000 </r>
       <r>    8.7188    1.0000 </r>
       <r>    9.1474    1.0000 </r>
       <r>    9.4114    1.0000 </r>
       <r>    9.9183    1.0000 </r>
       <r>   10.1115    1.0000 </r>
       <r>   10.5033    1.0000 </r>
       <r>   10.7789    1.0000 </r>
       <r>   11.9535    1.0000 </r>
       <r>   12.6455    1.0000 </r>
       <r>   12.7177    1.0000 </r>
       <r>   12.8553    1.0000 </r>
       <r>   13.0019    1.0000 </r>
       <r>   13.2168    1.0000 </r>
       <r>   13.3069    0.9645 </r>
       <r>   13.8763    0.0000 </r>
       <r>   14.0386    0.0000 </r>
       <r>   15.0615    0.0000 </r>
       <r>   15.1176    0.0000 </r>
       <r>   15.5516    0.0000 </r>
       <r>   15.5653    0.0000 </r>
       <r>   15.7752    0.0000 </r>
       <r>   16.3899    0.0000 </r>
       <r>   16.4344    0.0000 </r>
       <r>   16.4618    0.0000 </r>
       <r>   16.6253    0.0000 </r>
       <r>   16.7434    0.0000 </r>
       <r>   16.8762    0.0000 </r>
       <r>   17.5288    0.0000 </r>
      </set>
      <set comment="kpoint 13">
       <r>  -49.4236    1.0000 </r>
       <r>  -49.3628    1.0000 </r>
       <r>  -49.3003    1.0000 </r>
       <r>  -49.2615    1.0000 </r>
       <r>  -49.2608    1.0000 </r>
       <r>  -49.2389    1.0000 </r>
       <r>  -23.5252    1.0000 </r>
       <r>  -23.5040    1.0000 </r>
       <r>  -23.4834    1.0000 </r>
       <r>  -23.3131    1.0000 </r>
       <r>  -23.2112    1.0000 </r>
       <r>  -23.0931    1.0000 </r>
       <r>  -23.0623    1.0000 </r>
       <r>  -23.0049    1.0000 </r>
       <r>  -22.9233    1.0000 </r>
       <r>  -22.8312    1.0000 </r>
       <r>  -22.8000    1.0000 </r>
       <r>  -22.7375    1.0000 </r>
       <r>  -22.6063    1.0000 </r>
       <r>  -22.5221    1.0000 </r>
       <r>  -22.4281    1.0000 </r>
       <r>  -22.3647    1.0000 </r>
       <r>  -22.2148    1.0000 </r>
       <r>  -22.2118    1.0000 </r>
       <r>    0.1186    1.0000 </r>
       <r>    1.1487    1.0000 </r>
       <r>    2.8675    1.0000 </r>
       <r>    3.5346    1.0000 </r>
       <r>    4.3914    1.0000 </r>
       <r>    5.8440    1.0000 </r>
       <r>    5.9240    1.0000 </r>
       <r>    7.1120    1.0000 </r>
       <r>    7.3888    1.0000 </r>
       <r>    7.9288    1.0000 </r>
       <r>    8.5861    1.0000 </r>
       <r>    8.6586    1.0000 </r>
       <r>    8.9194    1.0000 </r>
       <r>    8.9478    1.0000 </r>
       <r>    9.0490    1.0000 </r>
       <r>    9.4461    1.0000 </r>
       <r>   10.0909    1.0000 </r>
       <r>   10.1563    1.0000 </r>
       <r>   10.1900    1.0000 </r>
       <r>   10.2652    1.0000 </r>
       <r>   10.6737    1.0000 </r>
       <r>   11.2374    1.0000 </r>
       <r>   11.5749    1.0000 </r>
       <r>   12.2204    1.0000 </r>
       <r>   12.3189    1.0000 </r>
       <r>   12.7289    1.0000 </r>
       <r>   12.7402    1.0000 </r>
       <r>   13.5629    0.0000 </r>
       <r>   13.5774    0.0000 </r>
       <r>   13.7268    0.0000 </r>
       <r>   14.1916    0.0000 </r>
       <r>   14.2293    0.0000 </r>
       <r>   14.5569    0.0000 </r>
       <r>   15.2882    0.0000 </r>
       <r>   15.5617    0.0000 </r>
       <r>   15.6233    0.0000 </r>
       <r>   15.8892    0.0000 </r>
       <r>   15.9724    0.0000 </r>
       <r>   16.1648    0.0000 </r>
       <r>   16.3630    0.0000 </r>
       <r>   16.8820    0.0000 </r>
       <r>   17.2226    0.0000 </r>
      </set>
      <set comment="kpoint 14">
       <r>  -49.3930    1.0000 </r>
       <r>  -49.3860    1.0000 </r>
       <r>  -49.2958    1.0000 </r>
       <r>  -49.2795    1.0000 </r>
       <r>  -49.2521    1.0000 </r>
       <r>  -49.2421    1.0000 </r>
       <r>  -23.5527    1.0000 </r>
       <r>  -23.4642    1.0000 </r>
       <r>  -23.4111    1.0000 </r>
       <r>  -23.3087    1.0000 </r>
       <r>  -23.1311    1.0000 </r>
       <r>  -23.0834    1.0000 </r>
       <r>  -23.0105    1.0000 </r>
       <r>  -22.9916    1.0000 </r>
       <r>  -22.9125    1.0000 </r>
       <r>  -22.8313    1.0000 </r>
       <r>  -22.8197    1.0000 </r>
       <r>  -22.7606    1.0000 </r>
       <r>  -22.7048    1.0000 </r>
       <r>  -22.5863    1.0000 </r>
       <r>  -22.4665    1.0000 </r>
       <r>  -22.3812    1.0000 </r>
       <r>  -22.2531    1.0000 </r>
       <r>  -22.1888    1.0000 </r>
       <r>    0.6600    1.0000 </r>
       <r>    0.9523    1.0000 </r>
       <r>    2.4694    1.0000 </r>
       <r>    3.4652    1.0000 </r>
       <r>    4.6339    1.0000 </r>
       <r>    5.2630    1.0000 </r>
       <r>    6.2884    1.0000 </r>
       <r>    7.0830    1.0000 </r>
       <r>    7.3920    1.0000 </r>
       <r>    7.9755    1.0000 </r>
       <r>    8.4980    1.0000 </r>
       <r>    8.5567    1.0000 </r>
       <r>    9.1386    1.0000 </r>
[...]
       <r>   10.2520    1.0000 </r>
       <r>   10.3243    1.0000 </r>
       <r>   11.2140    1.0000 </r>
       <r>   11.2703    1.0000 </r>
       <r>   11.3995    1.0000 </r>
       <r>   12.2491    1.0000 </r>
       <r>   12.5894    1.0000 </r>
       <r>   12.7617    1.0000 </r>
       <r>   13.0700    1.0000 </r>
       <r>   13.3339    0.4599 </r>
       <r>   13.3869    0.0001 </r>
       <r>   13.9807    0.0000 </r>
       <r>   14.0830    0.0000 </r>
       <r>   14.2316    0.0000 </r>
       <r>   14.8937    0.0000 </r>
       <r>   15.1176    0.0000 </r>
       <r>   15.3772    0.0000 </r>
       <r>   15.5733    0.0000 </r>
       <r>   15.6268    0.0000 </r>
       <r>   16.3485    0.0000 </r>
       <r>   16.4432    0.0000 </r>
       <r>   16.6870    0.0000 </r>
       <r>   17.1397    0.0000 </r>
       <r>   17.2628    0.0000 </r>
      </set>
      <set comment="kpoint 165">
       <r>  -49.4333    1.0000 </r>
       <r>  -49.3458    1.0000 </r>
       <r>  -49.3006    1.0000 </r>
       <r>  -49.2779    1.0000 </r>
       <r>  -49.2712    1.0000 </r>
       <r>  -49.2189    1.0000 </r>
       <r>  -23.6402    1.0000 </r>
       <r>  -23.4441    1.0000 </r>
       <r>  -23.4291    1.0000 </r>
       <r>  -23.3699    1.0000 </r>
       <r>  -23.2523    1.0000 </r>
       <r>  -23.1497    1.0000 </r>
       <r>  -23.0309    1.0000 </r>
       <r>  -22.9936    1.0000 </r>
       <r>  -22.8905    1.0000 </r>
       <r>  -22.7955    1.0000 </r>
       <r>  -22.7945    1.0000 </r>
       <r>  -22.6192    1.0000 </r>
       <r>  -22.5845    1.0000 </r>
       <r>  -22.5785    1.0000 </r>
       <r>  -22.4637    1.0000 </r>
       <r>  -22.4045    1.0000 </r>
       <r>  -22.2488    1.0000 </r>
       <r>  -22.1382    1.0000 </r>
       <r>    0.0272    1.0000 </r>
       <r>    1.2561    1.0000 </r>
       <r>    2.6897    1.0000 </r>
       <r>    3.2638    1.0000 </r>
       <r>    4.9386    1.0000 </r>
       <r>    6.0711    1.0000 </r>
       <r>    6.2785    1.0000 </r>
       <r>    6.7772    1.0000 </r>
       <r>    6.8266    1.0000 </r>
       <r>    8.0237    1.0000 </r>
       <r>    8.2074    1.0000 </r>
       <r>    8.5180    1.0000 </r>
       <r>    8.8497    1.0000 </r>
       <r>    8.9469    1.0000 </r>
       <r>    9.0028    1.0000 </r>
       <r>    9.2066    1.0000 </r>
       <r>   10.1406    1.0000 </r>
       <r>   10.1520    1.0000 </r>
       <r>   10.3642    1.0000 </r>
       <r>   10.5122    1.0000 </r>
       <r>   11.0770    1.0000 </r>
       <r>   11.4893    1.0000 </r>
       <r>   11.6476    1.0000 </r>
       <r>   12.1256    1.0000 </r>
       <r>   12.6989    1.0000 </r>
       <r>   12.7247    1.0000 </r>
       <r>   13.0720    1.0000 </r>
       <r>   13.1580    1.0000 </r>
       <r>   13.5738    0.0000 </r>
       <r>   13.6047    0.0000 </r>
       <r>   14.1692    0.0000 </r>
       <r>   14.2842    0.0000 </r>
       <r>   15.0090    0.0000 </r>
       <r>   15.0537    0.0000 </r>
       <r>   15.0824    0.0000 </r>
       <r>   15.5866    0.0000 </r>
       <r>   15.7554    0.0000 </r>
       <r>   16.1514    0.0000 </r>
       <r>   16.3974    0.0000 </r>
       <r>   16.8560    0.0000 </r>
       <r>   16.9725    0.0000 </r>
       <r>   17.6390    0.0000 </r>
      </set>
     </set>
    </set>
   </array>
  </eigenvalues>
  <separator name="orbital magnetization" >
   <v name="MAGDIPOLOUT">      0.00000000      0.00000000      0.00000000</v>
  </separator>
  <dos>
   <i name="efermi">     13.33245487 </i>
   <total>
    <array>
     <dimension dim="1">gridpoints</dimension>
     <dimension dim="2">spin</dimension>
     <field>energy</field>
     <field>total</field>
     <field>integrated</field>
     <set>
      <set comment="spin 1">
       <r>   -52.9021     0.0000     0.0000 </r>
       <r>   -52.6518     0.0000     0.0000 </r>
       <r>   -52.4015     0.0000     0.0000 </r>
       <r>   -52.1512     0.0000     0.0000 </r>
       <r>   -51.9010     0.0000     0.0000 </r>
       <r>   -51.6507     0.0000     0.0000 </r>
       <r>   -51.4004     0.0000     0.0000 </r>
       <r>   -51.1501     0.0000     0.0000 </r>
       <r>   -50.8998     0.0000     0.0000 </r>
       <r>   -50.6495     0.0000     0.0000 </r>
       <r>   -50.3993     0.0000     0.0000 </r>
       <r>   -50.1490     0.0000     0.0000 </r>
       <r>   -49.8987     0.0000     0.0000 </r>
       <r>   -49.6484     0.0000     0.0000 </r>
       <r>   -49.3981     6.2705     1.5694 </r>
       <r>   -49.1479    30.1327    12.0000 </r>
       <r>   -48.8976     0.0000    12.0000 </r>
       <r>   -48.6473     0.0000    12.0000 </r>
       <r>   -48.3970     0.0000    12.0000 </r>
       <r>   -48.1467     0.0000    12.0000 </r>
       <r>   -47.8964     0.0000    12.0000 </r>
       <r>   -47.6462     0.0000    12.0000 </r>
       <r>   -47.3959     0.0000    12.0000 </r>
       <r>   -47.1456     0.0000    12.0000 </r>
       <r>   -46.8953     0.0000    12.0000 </r>
       <r>   -46.6450     0.0000    12.0000 </r>
       <r>   -46.3948     0.0000    12.0000 </r>
       <r>   -46.1445     0.0000    12.0000 </r>
       <r>   -45.8942     0.0000    12.0000 </r>
       <r>   -45.6439     0.0000    12.0000 </r>
       <r>   -45.3936     0.0000    12.0000 </r>
       <r>   -45.1434     0.0000    12.0000 </r>
       <r>   -44.8931     0.0000    12.0000 </r>
       <r>   -44.6428     0.0000    12.0000 </r>
       <r>   -44.3925     0.0000    12.0000 </r>
       <r>   -44.1422     0.0000    12.0000 </r>
       <r>   -43.8919     0.0000    12.0000 </r>
       <r>   -43.6417     0.0000    12.0000 </r>
       <r>   -43.3914     0.0000    12.0000 </r>
       <r>   -43.1411     0.0000    12.0000 </r>
       <r>   -42.8908     0.0000    12.0000 </r>
       <r>   -42.6405     0.0000    12.0000 </r>
       <r>   -42.3903     0.0000    12.0000 </r>
       <r>   -42.1400     0.0000    12.0000 </r>
       <r>   -41.8897     0.0000    12.0000 </r>
       <r>   -41.6394     0.0000    12.0000 </r>
       <r>   -41.3891     0.0000    12.0000 </r>
       <r>   -41.1388     0.0000    12.0000 </r>
       <r>   -40.8886     0.0000    12.0000 </r>
       <r>   -40.6383     0.0000    12.0000 </r>
       <r>   -40.3880     0.0000    12.0000 </r>
       <r>   -40.1377     0.0000    12.0000 </r>
       <r>   -39.8874     0.0000    12.0000 </r>
       <r>   -39.6372     0.0000    12.0000 </r>
       <r>   -39.3869     0.0000    12.0000 </r>
       <r>   -39.1366     0.0000    12.0000 </r>
       <r>   -38.8863     0.0000    12.0000 </r>
       <r>   -38.6360     0.0000    12.0000 </r>
       <r>   -38.3857     0.0000    12.0000 </r>
       <r>   -38.1355     0.0000    12.0000 </r>
       <r>   -37.8852     0.0000    12.0000 </r>
       <r>   -37.6349     0.0000    12.0000 </r>
       <r>   -37.3846     0.0000    12.0000 </r>
       <r>   -37.1343     0.0000    12.0000 </r>
       <r>   -36.8841     0.0000    12.0000 </r>
       <r>   -36.6338     0.0000    12.0000 </r>
       <r>   -36.3835     0.0000    12.0000 </r>
       <r>   -36.1332     0.0000    12.0000 </r>
       <r>   -35.8829     0.0000    12.0000 </r>
       <r>   -35.6326     0.0000    12.0000 </r>
       <r>   -35.3824     0.0000    12.0000 </r>
       <r>   -35.1321     0.0000    12.0000 </r>
       <r>   -34.8818     0.0000    12.0000 </r>
       <r>   -34.6315     0.0000    12.0000 </r>
       <r>   -34.3812     0.0000    12.0000 </r>
       <r>   -34.1310     0.0000    12.0000 </r>
       <r>   -33.8807     0.0000    12.0000 </r>
       <r>   -33.6304     0.0000    12.0000 </r>
       <r>   -33.3801     0.0000    12.0000 </r>
       <r>   -33.1298     0.0000    12.0000 </r>
       <r>   -32.8796     0.0000    12.0000 </r>
       <r>   -32.6293     0.0000    12.0000 </r>
       <r>   -32.3790     0.0000    12.0000 </r>
       <r>   -32.1287     0.0000    12.0000 </r>
       <r>   -31.8784     0.0000    12.0000 </r>
       <r>   -31.6281     0.0000    12.0000 </r>
       <r>   -31.3779     0.0000    12.0000 </r>
       <r>   -31.1276     0.0000    12.0000 </r>
       <r>   -30.8773     0.0000    12.0000 </r>
       <r>   -30.6270     0.0000    12.0000 </r>
       <r>   -30.3767     0.0000    12.0000 </r>
       <r>   -30.1265     0.0000    12.0000 </r>
       <r>   -29.8762     0.0000    12.0000 </r>
       <r>   -29.6259     0.0000    12.0000 </r>
       <r>   -29.3756     0.0000    12.0000 </r>
       <r>   -29.1253     0.0000    12.0000 </r>
       <r>   -28.8750     0.0000    12.0000 </r>
       <r>   -28.6248     0.0000    12.0000 </r>
       <r>   -28.3745     0.0000    12.0000 </r>
       <r>   -28.1242     0.0000    12.0000 </r>
       <r>   -27.8739     0.0000    12.0000 </r>
       <r>   -27.6236     0.0000    12.0000 </r>
       <r>   -27.3734     0.0000    12.0000 </r>
       <r>   -27.1231     0.0000    12.0000 </r>
       <r>   -26.8728     0.0000    12.0000 </r>
       <r>   -26.6225     0.0000    12.0000 </r>
       <r>   -26.3722     0.0000    12.0000 </r>
       <r>   -26.1219     0.0000    12.0000 </r>
       <r>   -25.8717     0.0000    12.0000 </r>
       <r>   -25.6214     0.0000    12.0000 </r>
       <r>   -25.3711     0.0000    12.0000 </r>
       <r>   -25.1208     0.0000    12.0000 </r>
       <r>   -24.8705     0.0000    12.0000 </r>
       <r>   -24.6203     0.0000    12.0000 </r>
       <r>   -24.3700     0.0000    12.0000 </r>
       <r>   -24.1197     0.0000    12.0000 </r>
       <r>   -23.8694     0.0000    12.0000 </r>
       <r>   -23.6191     2.4792    12.6205 </r>
       <r>   -23.3689    15.1202    17.6767 </r>
       <r>   -23.1186    13.5277    23.2989 </r>
       <r>   -22.8683    17.0375    30.3336 </r>
       <r>   -22.6180    16.1661    37.3065 </r>
       <r>   -22.3677    13.0960    42.2742 </r>
       <r>   -22.1174    11.3019    47.8044 </r>
       <r>   -21.8672     0.0000    48.0000 </r>
       <r>   -21.6169     0.0000    48.0000 </r>
       <r>   -21.3666     0.0000    48.0000 </r>
       <r>   -21.1163     0.0000    48.0000 </r>
       <r>   -20.8660     0.0000    48.0000 </r>
       <r>   -20.6158     0.0000    48.0000 </r>
       <r>   -20.3655     0.0000    48.0000 </r>
       <r>   -20.1152     0.0000    48.0000 </r>
       <r>   -19.8649     0.0000    48.0000 </r>
       <r>   -19.6146     0.0000    48.0000 </r>
       <r>   -19.3643     0.0000    48.0000 </r>
       <r>   -19.1141     0.0000    48.0000 </r>
       <r>   -18.8638     0.0000    48.0000 </r>
       <r>   -18.6135     0.0000    48.0000 </r>
       <r>   -18.3632     0.0000    48.0000 </r>
       <r>   -18.1129     0.0000    48.0000 </r>
       <r>   -17.8627     0.0000    48.0000 </r>
       <r>   -17.6124     0.0000    48.0000 </r>
       <r>   -17.3621     0.0000    48.0000 </r>
       <r>   -17.1118     0.0000    48.0000 </r>
       <r>   -16.8615     0.0000    48.0000 </r>
       <r>   -16.6112     0.0000    48.0000 </r>
       <r>   -16.3610     0.0000    48.0000 </r>
       <r>   -16.1107     0.0000    48.0000 </r>
       <r>   -15.8604     0.0000    48.0000 </r>
       <r>   -15.6101     0.0000    48.0000 </r>
       <r>   -15.3598     0.0000    48.0000 </r>
       <r>   -15.1096     0.0000    48.0000 </r>
       <r>   -14.8593     0.0000    48.0000 </r>
       <r>   -14.6090     0.0000    48.0000 </r>
       <r>   -14.3587     0.0000    48.0000 </r>
       <r>   -14.1084     0.0000    48.0000 </r>
       <r>   -13.8581     0.0000    48.0000 </r>
       <r>   -13.6079     0.0000    48.0000 </r>
       <r>   -13.3576     0.0000    48.0000 </r>
       <r>   -13.1073     0.0000    48.0000 </r>
       <r>   -12.8570     0.0000    48.0000 </r>
       <r>   -12.6067     0.0000    48.0000 </r>
       <r>   -12.3565     0.0000    48.0000 </r>
       <r>   -12.1062     0.0000    48.0000 </r>
       <r>   -11.8559     0.0000    48.0000 </r>
       <r>   -11.6056     0.0000    48.0000 </r>
       <r>   -11.3553     0.0000    48.0000 </r>
       <r>   -11.1051     0.0000    48.0000 </r>
       <r>   -10.8548     0.0000    48.0000 </r>
       <r>   -10.6045     0.0000    48.0000 </r>
       <r>   -10.3542     0.0000    48.0000 </r>
       <r>   -10.1039     0.0000    48.0000 </r>
       <r>    -9.8536     0.0000    48.0000 </r>
       <r>    -9.6034     0.0000    48.0000 </r>
       <r>    -9.3531     0.0000    48.0000 </r>
       <r>    -9.1028     0.0000    48.0000 </r>
       <r>    -8.8525     0.0000    48.0000 </r>
       <r>    -8.6022     0.0000    48.0000 </r>
       <r>    -8.3520     0.0000    48.0000 </r>
       <r>    -8.1017     0.0000    48.0000 </r>
       <r>    -7.8514     0.0000    48.0000 </r>
       <r>    -7.6011     0.0000    48.0000 </r>
       <r>    -7.3508     0.0000    48.0000 </r>
       <r>    -7.1005     0.0000    48.0000 </r>
       <r>    -6.8503     0.0000    48.0000 </r>
       <r>    -6.6000     0.0000    48.0000 </r>
       <r>    -6.3497     0.0000    48.0000 </r>
       <r>    -6.0994     0.0000    48.0000 </r>
       <r>    -5.8491     0.0000    48.0000 </r>
       <r>    -5.5989     0.0000    48.0000 </r>
       <r>    -5.3486     0.0000    48.0000 </r>
       <r>    -5.0983     0.0000    48.0000 </r>
       <r>    -4.8480     0.0000    48.0000 </r>
       <r>    -4.5977     0.0000    48.0000 </r>
       <r>    -4.3474     0.0000    48.0000 </r>
       <r>    -4.0972     0.0000    48.0000 </r>
       <r>    -3.8469     0.0000    48.0000 </r>
       <r>    -3.5966     0.0000    48.0000 </r>
       <r>    -3.3463     0.0000    48.0000 </r>
       <r>    -3.0960     0.0000    48.0000 </r>
       <r>    -2.8458     0.0000    48.0000 </r>
       <r>    -2.5955     0.0000    48.0000 </r>
       <r>    -2.3452     0.0000    48.0000 </r>
       <r>    -2.0949     0.0000    48.0000 </r>
       <r>    -1.8446     0.0000    48.0000 </r>
       <r>    -1.5944     0.0000    48.0000 </r>
       <r>    -1.3441     0.0000    48.0000 </r>
       <r>    -1.0938     0.0038    48.0010 </r>
       <r>    -0.8435     0.1950    48.0523 </r>
       <r>    -0.5932     0.4920    48.2030 </r>
       <r>    -0.3429     0.5113    48.3398 </r>
       <r>    -0.0927     0.4894    48.5357 </r>
       <r>     0.1576     0.7268    48.8104 </r>
       <r>     0.4079     0.9093    49.1547 </r>
       <r>     0.6582     1.0128    49.5556 </r>
       <r>     0.9085     1.7325    50.2357 </r>
       <r>     1.1587     3.5801    51.4689 </r>
       <r>     1.4090     1.0314    51.9213 </r>
       <r>     1.6593     0.1224    52.0133 </r>
       <r>     1.9096     0.2277    52.0952 </r>
       <r>     2.1599     0.3757    52.2155 </r>
       <r>     2.4102     0.5220    52.3980 </r>
       <r>     2.6604     0.6910    52.6764 </r>
       <r>     2.9107     1.1442    53.0260 </r>
       <r>     3.1610     1.4315    53.5492 </r>
       <r>     3.4113     1.4901    54.1820 </r>
       <r>     3.6616     1.9262    54.9022 </r>
       <r>     3.9118     1.2072    55.4376 </r>
       <r>     4.1621     1.5292    56.0320 </r>
       <r>     4.4124     1.0617    56.5539 </r>
       <r>     4.6627     1.2024    57.0266 </r>
       <r>     4.9130     1.0323    57.5466 </r>
       <r>     5.1633     2.4725    58.4070 </r>
       <r>     5.4135     1.5775    59.0962 </r>
       <r>     5.6638     0.8046    59.4305 </r>
       <r>     5.9141     1.1686    59.8966 </r>
       <r>     6.1644     1.6542    60.4835 </r>
       <r>     6.4147     1.7732    61.2112 </r>
       <r>     6.6649     2.4518    62.0407 </r>
       <r>     6.9152     3.2261    63.1373 </r>
       <r>     7.1655     2.4537    64.1349 </r>
       <r>     7.4158     2.4224    65.1271 </r>
       <r>     7.6661     2.6698    66.1995 </r>
       <r>     7.9163     3.2043    67.3922 </r>
       <r>     8.1666     3.6332    68.6940 </r>
       <r>     8.4169     4.8093    70.5926 </r>
       <r>     8.6672     4.5028    72.4777 </r>
       <r>     8.9175     3.6671    73.9525 </r>
       <r>     9.1678     5.5500    76.1877 </r>
       <r>     9.4180     5.8194    78.3315 </r>
       <r>     9.6683     5.0545    80.2234 </r>
       <r>     9.9186     4.7450    81.9168 </r>
       <r>    10.1689     4.2056    83.9970 </r>
       <r>    10.4192     5.1141    85.9328 </r>
       <r>    10.6694     4.6733    87.7148 </r>
       <r>    10.9197     2.9058    89.1925 </r>
       <r>    11.1700     3.5453    90.4984 </r>
       <r>    11.4203     2.4267    91.5067 </r>
       <r>    11.6706     3.1404    92.7166 </r>
       <r>    11.9209     4.0000    94.3275 </r>
       <r>    12.1711     3.7840    95.6832 </r>
       <r>    12.4214     3.7773    97.1225 </r>
       <r>    12.6717     5.1421    99.2245 </r>
       <r>    12.9220     5.4453   101.4045 </r>
       <r>    13.1723     4.1009   103.1757 </r>
       <r>    13.4225     3.8760   104.5847 </r>
       <r>    13.6728     2.9353   105.7242 </r>
       <r>    13.9231     5.2701   107.8086 </r>
       <r>    14.1734     3.9159   109.5599 </r>
       <r>    14.4237     3.7748   111.0732 </r>
       <r>    14.6740     3.9689   112.6669 </r>
       <r>    14.9242     3.4505   113.9990 </r>
       <r>    15.1745     3.7804   115.6302 </r>
       <r>    15.4248     4.1506   117.1881 </r>
       <r>    15.6751     5.5168   119.1863 </r>
       <r>    15.9254     3.8605   120.8482 </r>
       <r>    16.1756     3.3029   122.1878 </r>
       <r>    16.4259     5.4820   124.0387 </r>
       <r>    16.6762     4.2821   125.9433 </r>
       <r>    16.9265     5.0325   127.9470 </r>
       <r>    17.1768     3.7027   129.5830 </r>
       <r>    17.4271     1.7484   130.3959 </r>
       <r>    17.6773     1.2218   130.9377 </r>
       <r>    17.9276     1.1204   131.3672 </r>
       <r>    18.1779     1.0567   131.7818 </r>
       <r>    18.4282     0.3126   131.9012 </r>
       <r>    18.6785     0.0416   131.9896 </r>
       <r>    18.9287     0.0277   132.0000 </r>
       <r>    19.1790     0.0000   132.0000 </r>
       <r>    19.4293     0.0000   132.0000 </r>
       <r>    19.6796     0.0000   132.0000 </r>
       <r>    19.9299     0.0000   132.0000 </r>
       <r>    20.1801     0.0000   132.0000 </r>
       <r>    20.4304     0.0000   132.0000 </r>
       <r>    20.6807     0.0000   132.0000 </r>
       <r>    20.9310     0.0000   132.0000 </r>
       <r>    21.1813     0.0000   132.0000 </r>
       <r>    21.4316     0.0000   132.0000 </r>
       <r>    21.6818     0.0000   132.0000 </r>
       <r>    21.9321     0.0000   132.0000 </r>
       <r>    22.1824     0.0000   132.0000 </r>
      </set>
     </set>
    </array>
   </total>
  </dos>
 </calculation>
 <structure name="finalpos" >
  <crystal>
   <varray name="basis" >
    <v>       4.93269365       0.00000000      -2.68838682 </v>
    <v>      -1.73966228       4.61573849      -2.68838682 </v>
    <v>       0.00000000       0.00000000       5.61773000 </v>
   </varray>
   <i name="volume">    127.90461117 </i>
   <varray name="rec_basis" >
    <v>       0.20272899       0.07640814       0.00000000 </v>
    <v>       0.00000000       0.21665006       0.00000000 </v>
    <v>       0.09701676       0.14024415       0.17800784 </v>
   </varray>
  </crystal>
  <varray name="positions" >
   <v>       0.24782000       0.25218000       0.50000000 </v>
   <v>       0.75218000       0.74782000       0.50000000 </v>
   <v>       0.25218000       0.75218000       0.00436000 </v>
   <v>       0.74782000       0.24782000       0.99564000 </v>
   <v>       0.50000000       0.00000000       0.00000000 </v>
   <v>       0.00000000       0.00000000       0.00000000 </v>
   <v>       0.00000000       0.00000000       0.50000000 </v>
   <v>       0.00000000       0.50000000       0.00000000 </v>
   <v>       0.50000000       0.50000000       0.50000000 </v>
   <v>       0.50000000       0.50000000       0.00000000 </v>
   <v>       0.50000000       0.00000000       0.50000000 </v>
   <v>       0.00000000       0.50000000       0.50000000 </v>
  </varray>
 </structure>
</modeling>
