<?xml version="1.0" encoding="ISO-8859-1"?>
<modeling>
 <generator>
  <i name="program" type="string">vasp </i>
  <i name="version" type="string">6.2.0  </i>
  <i name="subversion" type="string">18Jan21 (build Jan 05 2022 15:41:44) complex                          parallel </i>
  <i name="platform" type="string">LinuxIFC </i>
  <i name="date" type="string">2025 05 07 </i>
  <i name="time" type="string">18:05:54 </i>
 </generator>
 <incar>
  <i type="string" name="SYSTEM">routine with relax: pwdword</i>
  <i type="string" name="PREC">Acc</i>
  <i type="int" name="IALGO">    38</i>
  <i type="string" name="ALGO">A</i>
  <i type="logical" name="ADDGRID"> T  </i>
  <i type="int" name="ICHARG">     2</i>
  <i type="int" name="NELM">   100</i>
  <i type="int" name="NELMIN">     6</i>
  <i name="EDIFF">      0.00000000</i>
  <i type="int" name="NSW">     0</i>
  <i type="int" name="ISIF">    -1</i>
  <i name="SYMPREC">      0.00010000</i>
  <i name="ENCUT">    600.00000000</i>
  <i type="logical" name="LREAL"> F  </i>
  <i type="int" name="ISMEAR">     0</i>
  <i name="SIGMA">      0.02000000</i>
  <i type="logical" name="LASPH"> T  </i>
  <i type="string" name="METAGGA">R2SCAN</i>
  <i type="logical" name="LMIXTAU"> F  </i>
 </incar>
 <primitive_cell>
  <structure name="primitive_cell" >
   <crystal>
    <varray name="basis" >
     <v>       4.89811064       0.00000000      -2.80676402 </v>
     <v>      -1.64507334       4.61359096      -2.80676402 </v>
     <v>       0.00000000       0.00000000       5.64530000 </v>
    </varray>
    <i name="volume">    127.57180605 </i>
    <varray name="rec_basis" >
     <v>       0.20416035       0.07279769       0.00000000 </v>
     <v>       0.00000000       0.21675090       0.00000000 </v>
     <v>       0.10150567       0.14395950       0.17713850 </v>
    </varray>
   </crystal>
   <varray name="positions" >
    <v>       0.00000000       0.00000000       0.00000000 </v>
    <v>       0.50000000       0.50000000       1.00000000 </v>
    <v>       0.25000000       0.25000000       1.00000000 </v>
    <v>       0.73866000       0.23866000       0.97732000 </v>
    <v>       0.75000000       0.75000000       1.00000000 </v>
    <v>       0.26134000       0.76134000       0.02268000 </v>
    <v>       0.23866000       0.26134000       0.50000000 </v>
    <v>       0.76134000       0.73866000       0.50000000 </v>
    <v>       0.24066000       0.74066000       0.98133000 </v>
    <v>       0.75934000       0.25934000       0.01867000 </v>
    <v>       0.74066000       0.75934000       0.50000000 </v>
    <v>       0.25934000       0.24066000       0.50000000 </v>
   </varray>
  </structure>
  <varray name="primitive_index" >
   <v type="int" >        1 </v>
   <v type="int" >        2 </v>
   <v type="int" >        3 </v>
   <v type="int" >        4 </v>
   <v type="int" >        5 </v>
   <v type="int" >        6 </v>
   <v type="int" >        7 </v>
   <v type="int" >        8 </v>
   <v type="int" >        9 </v>
   <v type="int" >       10 </v>
   <v type="int" >       11 </v>
   <v type="int" >       12 </v>
  </varray>
 </primitive_cell>
 <kpoints>
  <generation param="Gamma">
   <v type="int" name="divisions">       8        8        9 </v>
   <v name="usershift">      0.00000000       0.00000000       0.00000000 </v>
   <v name="genvec1">      0.12500000      -0.00000000       0.00000000 </v>
   <v name="genvec2">      0.00000000       0.12500000       0.00000000 </v>
   <v name="genvec3">      0.00000000       0.00000000       0.11111111 </v>
   <v name="shift">      0.00000000       0.00000000       0.00000000 </v>
  </generation>
  <varray name="kpointlist" >
   <v>       0.00000000       0.00000000       0.00000000 </v>
   <v>       0.12500000       0.00000000       0.00000000 </v>
   <v>       0.25000000       0.00000000       0.00000000 </v>
   <v>       0.37500000       0.00000000       0.00000000 </v>
   <v>       0.50000000       0.00000000       0.00000000 </v>
   <v>       0.12500000       0.12500000       0.00000000 </v>
   <v>       0.25000000       0.12500000       0.00000000 </v>
   <v>       0.37500000       0.12500000       0.00000000 </v>
   <v>       0.50000000       0.12500000       0.00000000 </v>
   <v>      -0.37500000       0.12500000       0.00000000 </v>
   <v>      -0.25000000       0.12500000       0.00000000 </v>
   <v>      -0.12500000       0.12500000       0.00000000 </v>
   <v>       0.25000000       0.25000000       0.00000000 </v>
   <v>       0.37500000       0.25000000       0.00000000 </v>
   <v>       0.50000000       0.25000000       0.00000000 </v>
   <v>      -0.37500000       0.25000000       0.00000000 </v>
   <v>      -0.25000000       0.25000000       0.00000000 </v>
   <v>       0.37500000       0.37500000       0.00000000 </v>
   <v>       0.50000000       0.37500000       0.00000000 </v>
   <v>      -0.37500000       0.37500000       0.00000000 </v>
   <v>       0.50000000       0.50000000       0.00000000 </v>
   <v>      -0.00000000       0.00000000       0.11111111 </v>
   <v>       0.12500000       0.00000000       0.11111111 </v>
   <v>       0.25000000       0.00000000       0.11111111 </v>
   <v>       0.37500000      -0.00000000       0.11111111 </v>
   <v>       0.50000000       0.00000000       0.11111111 </v>
   <v>      -0.37500000       0.00000000       0.11111111 </v>
   <v>      -0.25000000       0.00000000       0.11111111 </v>
   <v>      -0.12500000       0.00000000       0.11111111 </v>
   <v>       0.12500000       0.12500000       0.11111111 </v>
   <v>       0.25000000       0.12500000       0.11111111 </v>
   <v>       0.37500000       0.12500000       0.11111111 </v>
   <v>       0.50000000       0.12500000       0.11111111 </v>
   <v>      -0.37500000       0.12500000       0.11111111 </v>
   <v>      -0.25000000       0.12500000       0.11111111 </v>
   <v>      -0.12500000       0.12500000       0.11111111 </v>
   <v>       0.25000000       0.25000000       0.11111111 </v>
   <v>       0.37500000       0.25000000       0.11111111 </v>
   <v>       0.50000000       0.25000000       0.11111111 </v>
   <v>      -0.37500000       0.25000000       0.11111111 </v>
   <v>      -0.25000000       0.25000000       0.11111111 </v>
   <v>      -0.12500000       0.25000000       0.11111111 </v>
   <v>       0.37500000       0.37500000       0.11111111 </v>
   <v>       0.50000000       0.37500000       0.11111111 </v>
   <v>      -0.37500000       0.37500000       0.11111111 </v>
   <v>      -0.25000000       0.37500000       0.11111111 </v>
   <v>      -0.12500000       0.37500000       0.11111111 </v>
   <v>       0.50000000       0.50000000       0.11111111 </v>
   <v>      -0.37500000       0.50000000       0.11111111 </v>
   <v>      -0.25000000       0.50000000       0.11111111 </v>
   <v>      -0.12500000       0.50000000       0.11111111 </v>
   <v>      -0.37500000      -0.37500000       0.11111111 </v>
   <v>      -0.25000000      -0.37500000       0.11111111 </v>
   <v>      -0.12500000      -0.37500000       0.11111111 </v>
   <v>      -0.25000000      -0.25000000       0.11111111 </v>
   <v>      -0.12500000      -0.25000000       0.11111111 </v>
   <v>      -0.12500000      -0.12500000       0.11111111 </v>
   <v>      -0.00000000       0.00000000       0.22222222 </v>
   <v>       0.12500000       0.00000000       0.22222222 </v>
   <v>       0.25000000       0.00000000       0.22222222 </v>
   <v>       0.37500000       0.00000000       0.22222222 </v>
   <v>       0.50000000       0.00000000       0.22222222 </v>
   <v>      -0.37500000       0.00000000       0.22222222 </v>
   <v>      -0.25000000       0.00000000       0.22222222 </v>
   <v>      -0.12500000       0.00000000       0.22222222 </v>
   <v>       0.12500000       0.12500000       0.22222222 </v>
   <v>       0.25000000       0.12500000       0.22222222 </v>
   <v>       0.37500000       0.12500000       0.22222222 </v>
   <v>       0.50000000       0.12500000       0.22222222 </v>
   <v>      -0.37500000       0.12500000       0.22222222 </v>
   <v>      -0.25000000       0.12500000       0.22222222 </v>
   <v>      -0.12500000       0.12500000       0.22222222 </v>
   <v>       0.25000000       0.25000000       0.22222222 </v>
   <v>       0.37500000       0.25000000       0.22222222 </v>
   <v>       0.50000000       0.25000000       0.22222222 </v>
   <v>      -0.37500000       0.25000000       0.22222222 </v>
   <v>      -0.25000000       0.25000000       0.22222222 </v>
   <v>      -0.12500000       0.25000000       0.22222222 </v>
   <v>       0.37500000       0.37500000       0.22222222 </v>
   <v>       0.50000000       0.37500000       0.22222222 </v>
   <v>      -0.37500000       0.37500000       0.22222222 </v>
   <v>      -0.25000000       0.37500000       0.22222222 </v>
   <v>      -0.12500000       0.37500000       0.22222222 </v>
   <v>       0.50000000       0.50000000       0.22222222 </v>
   <v>      -0.37500000       0.50000000       0.22222222 </v>
   <v>      -0.25000000       0.50000000       0.22222222 </v>
   <v>      -0.12500000       0.50000000       0.22222222 </v>
   <v>      -0.37500000      -0.37500000       0.22222222 </v>
   <v>      -0.25000000      -0.37500000       0.22222222 </v>
   <v>      -0.12500000      -0.37500000       0.22222222 </v>
   <v>      -0.25000000      -0.25000000       0.22222222 </v>
   <v>      -0.12500000      -0.25000000       0.22222222 </v>
   <v>      -0.12500000      -0.12500000       0.22222222 </v>
   <v>       0.00000000       0.00000000       0.33333333 </v>
   <v>       0.12500000       0.00000000       0.33333333 </v>
   <v>       0.25000000       0.00000000       0.33333333 </v>
   <v>       0.37500000       0.00000000       0.33333333 </v>
   <v>       0.50000000      -0.00000000       0.33333333 </v>
   <v>      -0.37500000       0.00000000       0.33333333 </v>
   <v>      -0.25000000       0.00000000       0.33333333 </v>
   <v>      -0.12500000       0.00000000       0.33333333 </v>
   <v>       0.12500000       0.12500000       0.33333333 </v>
   <v>       0.25000000       0.12500000       0.33333333 </v>
   <v>       0.37500000       0.12500000       0.33333333 </v>
   <v>       0.50000000       0.12500000       0.33333333 </v>
   <v>      -0.37500000       0.12500000       0.33333333 </v>
   <v>      -0.25000000       0.12500000       0.33333333 </v>
   <v>      -0.12500000       0.12500000       0.33333333 </v>
   <v>       0.25000000       0.25000000       0.33333333 </v>
   <v>       0.37500000       0.25000000       0.33333333 </v>
   <v>       0.50000000       0.25000000       0.33333333 </v>
   <v>      -0.37500000       0.25000000       0.33333333 </v>
   <v>      -0.25000000       0.25000000       0.33333333 </v>
   <v>      -0.12500000       0.25000000       0.33333333 </v>
   <v>       0.37500000       0.37500000       0.33333333 </v>
   <v>       0.50000000       0.37500000       0.33333333 </v>
   <v>      -0.37500000       0.37500000       0.33333333 </v>
   <v>      -0.25000000       0.37500000       0.33333333 </v>
   <v>      -0.12500000       0.37500000       0.33333333 </v>
   <v>       0.50000000       0.50000000       0.33333333 </v>
   <v>      -0.37500000       0.50000000       0.33333333 </v>
   <v>      -0.25000000       0.50000000       0.33333333 </v>
   <v>      -0.12500000       0.50000000       0.33333333 </v>
   <v>      -0.37500000      -0.37500000       0.33333333 </v>
   <v>      -0.25000000      -0.37500000       0.33333333 </v>
   <v>      -0.12500000      -0.37500000       0.33333333 </v>
   <v>      -0.25000000      -0.25000000       0.33333333 </v>
   <v>      -0.12500000      -0.25000000       0.33333333 </v>
   <v>      -0.12500000      -0.12500000       0.33333333 </v>
   <v>      -0.00000000       0.00000000       0.44444444 </v>
   <v>       0.12500000       0.00000000       0.44444444 </v>
   <v>       0.25000000       0.00000000       0.44444444 </v>
   <v>       0.37500000       0.00000000       0.44444444 </v>
   <v>       0.50000000       0.00000000       0.44444444 </v>
   <v>      -0.37500000       0.00000000       0.44444444 </v>
   <v>      -0.25000000       0.00000000       0.44444444 </v>
   <v>      -0.12500000       0.00000000       0.44444444 </v>
   <v>       0.12500000       0.12500000       0.44444444 </v>
   <v>       0.25000000       0.12500000       0.44444444 </v>
   <v>       0.37500000       0.12500000       0.44444444 </v>
   <v>       0.50000000       0.12500000       0.44444444 </v>
   <v>      -0.37500000       0.12500000       0.44444444 </v>
   <v>      -0.25000000       0.12500000       0.44444444 </v>
   <v>      -0.12500000       0.12500000       0.44444444 </v>
   <v>       0.25000000       0.25000000       0.44444444 </v>
   <v>       0.37500000       0.25000000       0.44444444 </v>
   <v>       0.50000000       0.25000000       0.44444444 </v>
   <v>      -0.37500000       0.25000000       0.44444444 </v>
   <v>      -0.25000000       0.25000000       0.44444444 </v>
   <v>      -0.12500000       0.25000000       0.44444444 </v>
   <v>       0.37500000       0.37500000       0.44444444 </v>
   <v>       0.50000000       0.37500000       0.44444444 </v>
   <v>      -0.37500000       0.37500000       0.44444444 </v>
   <v>      -0.25000000       0.37500000       0.44444444 </v>
   <v>      -0.12500000       0.37500000       0.44444444 </v>
   <v>       0.50000000       0.50000000       0.44444444 </v>
   <v>      -0.37500000       0.50000000       0.44444444 </v>
   <v>      -0.25000000       0.50000000       0.44444444 </v>
   <v>      -0.12500000       0.50000000       0.44444444 </v>
   <v>      -0.37500000      -0.37500000       0.44444444 </v>
   <v>      -0.25000000      -0.37500000       0.44444444 </v>
   <v>      -0.12500000      -0.37500000       0.44444444 </v>
   <v>      -0.25000000      -0.25000000       0.44444444 </v>
   <v>      -0.12500000      -0.25000000       0.44444444 </v>
   <v>      -0.12500000      -0.12500000       0.44444444 </v>
  </varray>
  <varray name="weights" >
   <v>       0.00173611 </v>
   <v>       0.00694444 </v>
   <v>       0.00694444 </v>
   <v>       0.00694444 </v>
   <v>       0.00347222 </v>
   <v>       0.00347222 </v>
   <v>       0.00694444 </v>
   <v>       0.00694444 </v>
   <v>       0.00694444 </v>
   <v>       0.00694444 </v>
   <v>       0.00694444 </v>
   <v>       0.00347222 </v>
   <v>       0.00347222 </v>
   <v>       0.00694444 </v>
   <v>       0.00694444 </v>
   <v>       0.00694444 </v>
   <v>       0.00347222 </v>
   <v>       0.00347222 </v>
   <v>       0.00694444 </v>
   <v>       0.00347222 </v>
   <v>       0.00173611 </v>
   <v>       0.00347222 </v>
   <v>       0.00694444 </v>
   <v>       0.00694444 </v>
   <v>       0.00694444 </v>
   <v>       0.00694444 </v>
   <v>       0.00694444 </v>
   <v>       0.00694444 </v>
   <v>       0.00694444 </v>
   <v>       0.00347222 </v>
   <v>       0.00694444 </v>
   <v>       0.00694444 </v>
   <v>       0.00694444 </v>
   <v>       0.00694444 </v>
   <v>       0.00694444 </v>
   <v>       0.00694444 </v>
   <v>       0.00347222 </v>
   <v>       0.00694444 </v>
   <v>       0.00694444 </v>
   <v>       0.00694444 </v>
   <v>       0.00694444 </v>
   <v>       0.00694444 </v>
   <v>       0.00347222 </v>
   <v>       0.00694444 </v>
   <v>       0.00694444 </v>
   <v>       0.00694444 </v>
   <v>       0.00694444 </v>
   <v>       0.00347222 </v>
   <v>       0.00694444 </v>
   <v>       0.00694444 </v>
   <v>       0.00694444 </v>
   <v>       0.00347222 </v>
   <v>       0.00694444 </v>
   <v>       0.00694444 </v>
   <v>       0.00347222 </v>
   <v>       0.00694444 </v>
   <v>       0.00347222 </v>
   <v>       0.00347222 </v>
   <v>       0.00694444 </v>
   <v>       0.00694444 </v>
   <v>       0.00694444 </v>
   <v>       0.00694444 </v>
   <v>       0.00694444 </v>
   <v>       0.00694444 </v>
   <v>       0.00694444 </v>
   <v>       0.00347222 </v>
   <v>       0.00694444 </v>
   <v>       0.00694444 </v>
   <v>       0.00694444 </v>
   <v>       0.00694444 </v>
   <v>       0.00694444 </v>
   <v>       0.00694444 </v>
   <v>       0.00347222 </v>
   <v>       0.00694444 </v>
   <v>       0.00694444 </v>
   <v>       0.00694444 </v>
   <v>       0.00694444 </v>
   <v>       0.00694444 </v>
   <v>       0.00347222 </v>
   <v>       0.00694444 </v>
   <v>       0.00694444 </v>
   <v>       0.00694444 </v>
   <v>       0.00694444 </v>
   <v>       0.00347222 </v>
   <v>       0.00694444 </v>
   <v>       0.00694444 </v>
   <v>       0.00694444 </v>
   <v>       0.00347222 </v>
   <v>       0.00694444 </v>
   <v>       0.00694444 </v>
   <v>       0.00347222 </v>
   <v>       0.00694444 </v>
   <v>       0.00347222 </v>
   <v>       0.00347222 </v>
   <v>       0.00694444 </v>
   <v>       0.00694444 </v>
   <v>       0.00694444 </v>
   <v>       0.00694444 </v>
   <v>       0.00694444 </v>
   <v>       0.00694444 </v>
   <v>       0.00694444 </v>
   <v>       0.00347222 </v>
   <v>       0.00694444 </v>
   <v>       0.00694444 </v>
   <v>       0.00694444 </v>
   <v>       0.00694444 </v>
   <v>       0.00694444 </v>
   <v>       0.00694444 </v>
   <v>       0.00347222 </v>
   <v>       0.00694444 </v>
   <v>       0.00694444 </v>
   <v>       0.00694444 </v>
   <v>       0.00694444 </v>
   <v>       0.00694444 </v>
   <v>       0.00347222 </v>
   <v>       0.00694444 </v>
   <v>       0.00694444 </v>
   <v>       0.00694444 </v>
   <v>       0.00694444 </v>
   <v>       0.00347222 </v>
   <v>       0.00694444 </v>
   <v>       0.00694444 </v>
   <v>       0.00694444 </v>
   <v>       0.00347222 </v>
   <v>       0.00694444 </v>
   <v>       0.00694444 </v>
   <v>       0.00347222 </v>
   <v>       0.00694444 </v>
   <v>       0.00347222 </v>
   <v>       0.00347222 </v>
   <v>       0.00694444 </v>
   <v>       0.00694444 </v>
   <v>       0.00694444 </v>
   <v>       0.00694444 </v>
   <v>       0.00694444 </v>
   <v>       0.00694444 </v>
   <v>       0.00694444 </v>
   <v>       0.00347222 </v>
   <v>       0.00694444 </v>
   <v>       0.00694444 </v>
   <v>       0.00694444 </v>
   <v>       0.00694444 </v>
   <v>       0.00694444 </v>
   <v>       0.00694444 </v>
   <v>       0.00347222 </v>
   <v>       0.00694444 </v>
   <v>       0.00694444 </v>
   <v>       0.00694444 </v>
   <v>       0.00694444 </v>
   <v>       0.00694444 </v>
   <v>       0.00347222 </v>
   <v>       0.00694444 </v>
   <v>       0.00694444 </v>
   <v>       0.00694444 </v>
   <v>       0.00694444 </v>
   <v>       0.00347222 </v>
   <v>       0.00694444 </v>
   <v>       0.00694444 </v>
   <v>       0.00694444 </v>
   <v>       0.00347222 </v>
   <v>       0.00694444 </v>
   <v>       0.00694444 </v>
   <v>       0.00347222 </v>
   <v>       0.00694444 </v>
   <v>       0.00347222 </v>
  </varray>
 </kpoints>
 <parameters>
  <separator name="general" >
   <i type="string" name="SYSTEM">routine with relax: pwdword</i>
   <i type="logical" name="LCOMPAT"> F  </i>
  </separator>
  <separator name="electronic" >
   <i type="string" name="PREC">acc</i>
   <i name="ENMAX">    600.00000000</i>
   <i name="ENAUG">    535.51400000</i>
   <i name="EDIFF">      0.00000000</i>
   <i type="int" name="IALGO">    58</i>
   <i type="int" name="IWAVPR">    10</i>
   <i type="int" name="NBANDS">    66</i>
   <i type="int" name="NBANDSLOW">    -1</i>
   <i type="int" name="NBANDSHIGH">    -1</i>
   <i name="NELECT">    106.00000000</i>
   <i type="int" name="TURBO">     0</i>
   <i type="int" name="IRESTART">     0</i>
   <i type="int" name="NREBOOT">     0</i>
   <i type="int" name="NMIN">     0</i>
   <i name="EREF">      0.00000000</i>
   <separator name="electronic smearing" >
    <i type="int" name="ISMEAR">     0</i>
    <i name="SIGMA">      0.02000000</i>
    <i name="KSPACING">      0.50000000</i>
    <i type="logical" name="KGAMMA"> T  </i>
    <i type="logical" name="KBLOWUP"> F  </i>
   </separator>
   <separator name="electronic projectors" >
    <i type="logical" name="LREAL"> F  </i>
    <v name="ROPT">      0.00000000      0.00000000      0.00000000</v>
    <i type="int" name="LMAXPAW">  -100</i>
    <i type="int" name="LMAXMIX">     2</i>
    <i type="logical" name="NLSPLINE"> F  </i>
   </separator>
   <separator name="electronic startup" >
    <i type="int" name="ISTART">     0</i>
    <i type="int" name="ICHARG">     2</i>
    <i type="int" name="INIWAV">     1</i>
   </separator>
   <separator name="electronic spin" >
    <i type="int" name="ISPIN">     1</i>
    <i type="logical" name="LNONCOLLINEAR"> F  </i>
    <v name="MAGMOM">      1.00000000      1.00000000      1.00000000      1.00000000      1.00000000      1.00000000      1.00000000      1.00000000      1.00000000      1.00000000      1.00000000      1.00000000</v>
    <i name="NUPDOWN">     -1.00000000</i>
    <i type="logical" name="LSORBIT"> F  </i>
    <v name="SAXIS">      0.00000000      0.00000000      1.00000000</v>
    <i type="logical" name="LSPIRAL"> F  </i>
    <v name="QSPIRAL">      0.00000000      0.00000000      0.00000000</v>
    <i type="logical" name="LZEROZ"> F  </i>
   </separator>
   <separator name="electronic exchange-correlation" >
    <i type="logical" name="LASPH"> T  </i>
    <i type="logical" name="LMETAGGA"> F  </i>
   </separator>
   <separator name="electronic convergence" >
    <i type="int" name="NELM">   100</i>
    <i type="int" name="NELMDL">    -5</i>
    <i type="int" name="NELMIN">     6</i>
    <i name="ENINI">    600.00000000</i>
    <separator name="electronic convergence detail" >
     <i type="logical" name="LDIAG"> T  </i>
     <i type="logical" name="LSUBROT"> F  </i>
     <i name="WEIMIN">      0.00000000</i>
     <i name="EBREAK">      0.00000000</i>
     <i name="DEPER">      0.30000000</i>
     <i type="int" name="NRMM">     4</i>
     <i name="TIME">      0.40000000</i>
    </separator>
   </separator>
   <separator name="electronic mixer" >
    <i name="AMIX">      0.40000000</i>
    <i name="BMIX">      1.00000000</i>
    <i name="AMIN">      0.10000000</i>
    <i name="AMIX_MAG">      1.60000000</i>
    <i name="BMIX_MAG">      1.00000000</i>
    <separator name="electronic mixer details" >
     <i type="int" name="IMIX">     4</i>
     <i type="logical" name="MIXFIRST"> F  </i>
     <i type="int" name="MAXMIX">   -45</i>
     <i name="WC">    100.00000000</i>
     <i type="int" name="INIMIX">     1</i>
     <i type="int" name="MIXPRE">     1</i>
     <i type="int" name="MREMOVE">     5</i>
    </separator>
   </separator>
   <separator name="electronic dipolcorrection" >
    <i type="logical" name="LDIPOL"> F  </i>
    <i type="logical" name="LMONO"> F  </i>
    <i type="int" name="IDIPOL">     0</i>
    <i name="EPSILON">      1.00000000</i>
    <v name="DIPOL">   -100.00000000   -100.00000000   -100.00000000</v>
    <i name="EFIELD">      0.00000000</i>
   </separator>
  </separator>
  <separator name="grids" >
   <i type="int" name="NGX">    48</i>
   <i type="int" name="NGY">    48</i>
   <i type="int" name="NGZ">    48</i>
   <i type="int" name="NGXF">    96</i>
   <i type="int" name="NGYF">    96</i>
   <i type="int" name="NGZF">    96</i>
   <i type="logical" name="ADDGRID"> T  </i>
  </separator>
  <separator name="ionic" >
   <i type="int" name="NSW">     0</i>
   <i type="int" name="IBRION">    -1</i>
   <i type="int" name="MDALGO">     0</i>
   <i type="int" name="ISIF">    -1</i>
   <i name="PSTRESS">      0.00000000</i>
   <i name="EDIFFG">      0.00000001</i>
   <i type="int" name="NFREE">     0</i>
   <i name="POTIM">      0.50000000</i>
   <i name="SMASS">     -3.00000000</i>
   <i name="SCALEE">      1.00000000</i>
  </separator>
  <separator name="ionic md" >
   <i name="TEBEG">      0.00010000</i>
   <i name="TEEND">      0.00010000</i>
   <i type="int" name="NBLOCK">     1</i>
   <i type="int" name="KBLOCK">     1</i>
   <i type="int" name="NPACO">   256</i>
   <i name="APACO">     16.00000000</i>
  </separator>
  <separator name="symmetry" >
   <i type="int" name="ISYM">     2</i>
   <i name="SYMPREC">      0.00010000</i>
  </separator>
  <separator name="dos" >
   <i type="int" name="LORBIT">     0</i>
   <v name="RWIGS">     -1.00000000     -1.00000000     -1.00000000</v>
   <i type="int" name="NEDOS">   301</i>
   <i name="EMIN">     10.00000000</i>
   <i name="EMAX">    -10.00000000</i>
   <i name="EFERMI">      0.00000000</i>
  </separator>
  <separator name="writing" >
   <i type="int" name="NWRITE">     2</i>
   <i type="logical" name="LWAVE"> T  </i>
   <i type="logical" name="LDOWNSAMPLE"> F  </i>
   <i type="logical" name="LCHARG"> T  </i>
   <i type="logical" name="LPARD"> F  </i>
   <i type="logical" name="LVTOT"> F  </i>
   <i type="logical" name="LVHAR"> F  </i>
   <i type="logical" name="LELF"> F  </i>
   <i type="logical" name="LOPTICS"> F  </i>
   <v name="STM">      0.00000000      0.00000000      0.00000000      0.00000000      0.00000000      0.00000000      0.00000000</v>
  </separator>
  <separator name="performance" >
   <i type="int" name="NPAR">     6</i>
   <i type="int" name="NSIM">     4</i>
   <i type="int" name="NBLK">    -1</i>
   <i type="logical" name="LPLANE"> T  </i>
   <i type="logical" name="LSCALAPACK"> T  </i>
   <i type="logical" name="LSCAAWARE"> F  </i>
   <i type="logical" name="LSCALU"> F  </i>
   <i type="logical" name="LASYNC"> F  </i>
   <i type="logical" name="LORBITALREAL"> F  </i>
  </separator>
  <separator name="miscellaneous" >
   <i type="int" name="IDIOT">     3</i>
   <i type="int" name="PHON_NSTRUCT">    -1</i>
   <i type="logical" name="LMUSIC"> F  </i>
   <v name="POMASS">     10.81100000     95.94000000     28.08500000</v>
   <v name="DARWINR">      0.00000000      0.00000000      0.00000000</v>
   <v name="DARWINV">      1.00000000      1.00000000      1.00000000</v>
   <i type="logical" name="LCORR"> T  </i>
  </separator>
  <i type="logical" name="GGA_COMPAT"> T  </i>
  <i type="logical" name="LBERRY"> F  </i>
  <i type="int" name="ICORELEVEL">     0</i>
  <i type="logical" name="LDAU"> F  </i>
  <i type="int" name="I_CONSTRAINED_M">     0</i>
  <separator name="electronic exchange-correlation" >
   <i type="string" name="GGA">--</i>
   <i type="int" name="VOSKOWN">     0</i>
   <i type="logical" name="LHFCALC"> F  </i>
   <i type="string" name="PRECFOCK"></i>
   <i type="logical" name="LSYMGRAD"> F  </i>
   <i type="logical" name="LHFONE"> F  </i>
   <i type="logical" name="LRHFCALC"> F  </i>
   <i type="logical" name="LTHOMAS"> F  </i>
   <i type="logical" name="LMODELHF"> F  </i>
   <i type="logical" name="LFOCKACE"> F  </i>
   <i name="ENCUT4O">     -1.00000000</i>
   <i type="int" name="EXXOEP">     0</i>
   <i type="int" name="FOURORBIT">     0</i>
   <i name="AEXX">      0.00000000</i>
   <i name="HFALPHA">      0.00000000</i>
   <i name="MCALPHA">      0.00000000</i>
   <i name="ALDAX">      1.00000000</i>
   <i name="AGGAX">      1.00000000</i>
   <i name="ALDAC">      1.00000000</i>
   <i name="AGGAC">      1.00000000</i>
   <i type="int" name="NKREDX">     1</i>
   <i type="int" name="NKREDY">     1</i>
   <i type="int" name="NKREDZ">     1</i>
   <i type="logical" name="SHIFTRED"> F  </i>
   <i type="logical" name="ODDONLY"> F  </i>
   <i type="logical" name="EVENONLY"> F  </i>
   <i type="int" name="LMAXFOCK">     0</i>
   <i type="int" name="NMAXFOCKAE">     0</i>
   <i type="logical" name="LFOCKAEDFT"> F  </i>
   <i name="HFSCREEN">      0.00000000</i>
   <i name="HFSCREENC">      0.00000000</i>
   <i type="int" name="NBANDSGWLOW">     0</i>
  </separator>
  <separator name="vdW DFT" >
   <i type="logical" name="LUSE_VDW"> F  </i>
   <i name="Zab_VDW">     -0.84910000</i>
   <i name="PARAM1">      0.12340000</i>
   <i name="PARAM2">      1.00000000</i>
   <i name="PARAM3">      0.00000000</i>
  </separator>
  <separator name="model GW" >
   <i type="int" name="MODEL_GW">     0</i>
   <i name="MODEL_EPS0">      6.37859030</i>
   <i name="MODEL_ALPHA">      1.00000000</i>
  </separator>
  <separator name="linear response parameters" >
   <i type="logical" name="LEPSILON"> F  </i>
   <i type="logical" name="LRPA"> F  </i>
   <i type="logical" name="LNABLA"> F  </i>
   <i type="logical" name="LVEL"> F  </i>
   <i type="int" name="KINTER">     0</i>
   <i name="CSHIFT">      0.10000000</i>
   <i name="OMEGAMAX">     -1.00000000</i>
   <i name="DEG_THRESHOLD">      0.00200000</i>
   <i name="RTIME">     -0.10000000</i>
   <i name="WPLASMAI">      0.00000000</i>
   <v name="DFIELD">      0.00000000      0.00000000      0.00000000</v>
   <v name="WPLASMA">      0.00000000      0.00000000      0.00000000      0.00000000      0.00000000      0.00000000      0.00000000      0.00000000      0.00000000</v>
  </separator>
  <separator name="orbital magnetization" >
   <i type="logical" name="NUCIND"> F  </i>
   <v name="MAGPOS">      0.00000000      0.00000000      0.00000000</v>
   <i type="logical" name="LNICSALL"> T  </i>
   <i type="logical" name="ORBITALMAG"> F  </i>
   <i type="logical" name="LMAGBLOCH"> F  </i>
   <i type="logical" name="LCHIMAG"> F  </i>
   <i type="logical" name="LGAUGE"> T  </i>
   <i type="int" name="MAGATOM">     0</i>
   <v name="MAGDIPOL">      0.00000000      0.00000000      0.00000000</v>
   <v name="AVECCONST">      0.00000000      0.00000000      0.00000000</v>
  </separator>
  <separator name="response functions" >
   <i type="logical" name="LFINITE_TEMPERATURE"> F  </i>
   <i type="logical" name="LADDER"> F  </i>
   <i type="logical" name="LRPAFORCE"> F  </i>
   <i type="logical" name="LFXC"> F  </i>
   <i type="logical" name="LHARTREE"> T  </i>
   <i type="int" name="IBSE">     0</i>
   <v type="int" name="KPOINT">    -1     0     0     0</v>
   <i type="logical" name="LTCTC"> F  </i>
   <i type="logical" name="LTCTE"> F  </i>
   <i type="logical" name="LTETE"> F  </i>
   <i type="logical" name="LTRIPLET"> F  </i>
   <i type="logical" name="LFXCEPS"> F  </i>
   <i type="logical" name="LFXHEG"> F  </i>
   <i type="int" name="NATURALO">     2</i>
   <i type="logical" name="LHOLEGF"> F  </i>
   <i type="logical" name="L2ORDER"> F  </i>
   <i type="logical" name="LDMP1"> F  </i>
   <i type="logical" name="LMP2LT"> F  </i>
   <i type="logical" name="LSMP2LT"> F  </i>
   <i type="logical" name="LGWLF"> F  </i>
   <i name="ENCUTGW">     -2.00000000</i>
   <i name="ENCUTGWSOFT">     -2.00000000</i>
   <i name="ENCUTLF">     -1.00000000</i>
   <i type="logical" name="LESF_SPLINES"> F  </i>
   <i type="int" name="LMAXMP2">    -1</i>
   <i name="SCISSOR">      0.00000000</i>
   <i type="int" name="NOMEGA">     0</i>
   <i type="int" name="NOMEGAR">     0</i>
   <i type="int" name="NBANDSGW">    -1</i>
   <i type="int" name="NBANDSO">    -1</i>
   <i type="int" name="NBANDSV">    -1</i>
   <i type="int" name="NELM">   100</i>
   <i type="int" name="NELMHF">     1</i>
   <i type="int" name="DIM">     3</i>
   <i type="int" name="IESPILON">     4</i>
   <i type="int" name="ANTIRES">     0</i>
   <i name="OMEGAMAX">    -30.00000000</i>
   <i name="OMEGAMIN">    -30.00000000</i>
   <i name="OMEGATL">   -200.00000000</i>
   <i type="int" name="OMEGAGRID">     0</i>
   <i name="CSHIFT">     -0.10000000</i>
   <i type="logical" name="LSELFENERGY"> F  </i>
   <i type="logical" name="LSPECTRAL"> F  </i>
   <i type="logical" name="LSPECTRALGW"> F  </i>
   <i type="logical" name="LSINGLES"> F  </i>
   <i type="logical" name="LFERMIGW"> F  </i>
   <i type="logical" name="ODDONLYGW"> F  </i>
   <i type="logical" name="EVENONLYGW"> F  </i>
   <i type="int" name="NKREDLFX">     1</i>
   <i type="int" name="NKREDLFY">     1</i>
   <i type="int" name="NKREDLFZ">     1</i>
   <i type="int" name="MAXMEM">  2800</i>
   <i type="int" name="TELESCOPE">     0</i>
   <i type="int" name="NTAUPAR">    -1</i>
   <i type="int" name="NOMEGAPAR">    -1</i>
   <i name="DAMP_NEWTON">      0.80000001</i>
   <i name="LAMBDA">      1.00000000</i>
  </separator>
  <separator name="External order field" >
   <i name="OFIELD_KAPPA">      0.00000000</i>
   <v name="OFIELD_K">      0.00000000      0.00000000      0.00000000</v>
   <i name="OFIELD_Q6_NEAR">      0.00000000</i>
   <i name="OFIELD_Q6_FAR">      0.00000000</i>
   <i name="OFIELD_A">      0.00000000</i>
  </separator>
 </parameters>
 <atominfo>
  <atoms>      12 </atoms>
  <types>       3 </types>
  <array name="atoms" >
   <dimension dim="1">ion</dimension>
   <field type="string">element</field>
   <field type="int">atomtype</field>
   <set>
    <rc><c>B </c><c>   1</c></rc>
    <rc><c>B </c><c>   1</c></rc>
    <rc><c>Mo</c><c>   2</c></rc>
    <rc><c>Mo</c><c>   2</c></rc>
    <rc><c>Mo</c><c>   2</c></rc>
    <rc><c>Mo</c><c>   2</c></rc>
    <rc><c>Mo</c><c>   2</c></rc>
    <rc><c>Mo</c><c>   2</c></rc>
    <rc><c>Si</c><c>   3</c></rc>
    <rc><c>Si</c><c>   3</c></rc>
    <rc><c>Si</c><c>   3</c></rc>
    <rc><c>Si</c><c>   3</c></rc>
   </set>
  </array>
  <array name="atomtypes" >
   <dimension dim="1">type</dimension>
   <field type="int">atomspertype</field>
   <field type="string">element</field>
   <field>mass</field>
   <field>valence</field>
   <field type="string">pseudopotential</field>
   <set>
    <rc><c>   2</c><c>B </c><c>     10.81100000</c><c>      3.00000000</c><c>  PAW_PBE B 06Sep2000                   </c></rc>
    <rc><c>   6</c><c>Mo</c><c>     95.94000000</c><c>     14.00000000</c><c>  PAW_PBE Mo_sv 02Feb2006               </c></rc>
    <rc><c>   4</c><c>Si</c><c>     28.08500000</c><c>      4.00000000</c><c>  PAW_PBE Si 05Jan2001                  </c></rc>
   </set>
  </array>
 </atominfo>
 <structure name="initialpos" >
  <crystal>
   <varray name="basis" >
    <v>       4.89811064       0.00000000      -2.80676402 </v>
    <v>      -1.64507334       4.61359096      -2.80676402 </v>
    <v>       0.00000000       0.00000000       5.64530000 </v>
   </varray>
   <i name="volume">    127.57180605 </i>
   <varray name="rec_basis" >
    <v>       0.20416035       0.07279769       0.00000000 </v>
    <v>       0.00000000       0.21675090       0.00000000 </v>
    <v>       0.10150567       0.14395950       0.17713850 </v>
   </varray>
  </crystal>
  <varray name="positions" >
   <v>       0.00000000       0.00000000       0.00000000 </v>
   <v>       0.50000000       0.50000000       0.00000000 </v>
   <v>       0.25000000       0.25000000       0.00000000 </v>
   <v>       0.73866000       0.23866000       0.97732000 </v>
   <v>       0.75000000       0.75000000       0.00000000 </v>
   <v>       0.26134000       0.76134000       0.02268000 </v>
   <v>       0.23866000       0.26134000       0.50000000 </v>
   <v>       0.76134000       0.73866000       0.50000000 </v>
   <v>       0.24066000       0.74066000       0.98133000 </v>
   <v>       0.75934000       0.25934000       0.01867000 </v>
   <v>       0.74066000       0.75934000       0.50000000 </v>
   <v>       0.25934000       0.24066000       0.50000000 </v>
  </varray>
 </structure>
 <calculation>
  <scstep>
   <time name="total">   27.21   27.63</time>
   <energy>
    <i name="alphaZ">    722.32689327 </i>
    <i name="ewald">   7180.08872631 </i>
    <i name="hartreedc">  -2922.28642177 </i>
    <i name="XCdc">    461.62602782 </i>
    <i name="pawpsdc">   9333.50011946 </i>
    <i name="pawaedc">  -9270.82734050 </i>
    <i name="eentropy">     -0.00033257 </i>
    <i name="bandstr">  -1872.68788918 </i>
    <i name="atom">  11728.30056431 </i>
    <i name="e_fr_energy">  15360.04034715 </i>
    <i name="e_wo_entrp">  15360.04067972 </i>
    <i name="e_0_energy">  15360.04051344 </i>
   </energy>
  </scstep>
  <scstep>
   <time name="total">   25.51   25.75</time>
   <energy>
    <i name="e_fr_energy">  13892.33535558 </i>
    <i name="e_wo_entrp">  13892.33603272 </i>
    <i name="e_0_energy">  13892.33569415 </i>
   </energy>
  </scstep>
  <scstep>
   <time name="total">   27.33   27.58</time>
   <energy>
    <i name="e_fr_energy">  13840.34773107 </i>
    <i name="e_wo_entrp">  13840.34847408 </i>
    <i name="e_0_energy">  13840.34810258 </i>
   </energy>
  </scstep>
  <scstep>
   <time name="total">   27.03   27.29</time>
   <energy>
    <i name="e_fr_energy">  13839.26733643 </i>
    <i name="e_wo_entrp">  13839.26840664 </i>
    <i name="e_0_energy">  13839.26787154 </i>
   </energy>
  </scstep>
  <scstep>
   <time name="total">   29.64   29.92</time>
   <energy>
    <i name="e_fr_energy">  13839.23304829 </i>
    <i name="e_wo_entrp">  13839.23405132 </i>
    <i name="e_0_energy">  13839.23354980 </i>
   </energy>
  </scstep>
  <scstep>
   <time name="total">   28.87   29.12</time>
   <energy>
    <i name="e_fr_energy">  14994.49488624 </i>
    <i name="e_wo_entrp">  14994.49549700 </i>
    <i name="e_0_energy">  14994.49519162 </i>
   </energy>
  </scstep>
  <scstep>
   <time name="total">   27.80   28.06</time>
   <energy>
    <i name="e_fr_energy">  14579.91791534 </i>
    <i name="e_wo_entrp">  14579.91897325 </i>
    <i name="e_0_energy">  14579.91844430 </i>
   </energy>
  </scstep>
  <scstep>
   <time name="total">   28.33   28.59</time>
   <energy>
    <i name="e_fr_energy">  14508.33339175 </i>
    <i name="e_wo_entrp">  14508.33507697 </i>
    <i name="e_0_energy">  14508.33423436 </i>
   </energy>
  </scstep>
  <scstep>
   <time name="total">   28.45   28.70</time>
   <energy>
    <i name="e_fr_energy">  14483.88315823 </i>
    <i name="e_wo_entrp">  14483.88480113 </i>
    <i name="e_0_energy">  14483.88397968 </i>
   </energy>
  </scstep>
  <scstep>
   <time name="total">   29.62   29.88</time>
   <energy>
    <i name="e_fr_energy">  14470.74445620 </i>
    <i name="e_wo_entrp">  14470.74650342 </i>
    <i name="e_0_energy">  14470.74547981 </i>
   </energy>
  </scstep>
  <scstep>
   <time name="total">   28.39   28.64</time>
   <energy>
    <i name="e_fr_energy">  14461.47995710 </i>
    <i name="e_wo_entrp">  14461.48227220 </i>
    <i name="e_0_energy">  14461.48111465 </i>
   </energy>
  </scstep>
  <scstep>
   <time name="total">   28.33   28.58</time>
   <energy>
    <i name="e_fr_energy">  14460.20676478 </i>
    <i name="e_wo_entrp">  14460.20832213 </i>
    <i name="e_0_energy">  14460.20754345 </i>
   </energy>
  </scstep>
  <scstep>
   <time name="total">   28.83   29.08</time>
   <energy>
    <i name="e_fr_energy">  14457.91557872 </i>
    <i name="e_wo_entrp">  14457.91778868 </i>
    <i name="e_0_energy">  14457.91668370 </i>
   </energy>
  </scstep>
  <scstep>
   <time name="total">   28.31   28.57</time>
   <energy>
    <i name="e_fr_energy">  14456.80704310 </i>
    <i name="e_wo_entrp">  14456.80898422 </i>
    <i name="e_0_energy">  14456.80801366 </i>
   </energy>
  </scstep>
  <scstep>
   <time name="total">   28.40   28.66</time>
   <energy>
    <i name="e_fr_energy">  14456.11199745 </i>
    <i name="e_wo_entrp">  14456.11425775 </i>
    <i name="e_0_energy">  14456.11312760 </i>
   </energy>
  </scstep>
  <scstep>
   <time name="total">   28.29   28.54</time>
   <energy>
    <i name="e_fr_energy">  14455.52721864 </i>
    <i name="e_wo_entrp">  14455.52936849 </i>
    <i name="e_0_energy">  14455.52829356 </i>
   </energy>
  </scstep>
  <scstep>
   <time name="total">   29.30   29.54</time>
   <energy>
    <i name="e_fr_energy">  14455.11230984 </i>
    <i name="e_wo_entrp">  14455.11425812 </i>
    <i name="e_0_energy">  14455.11328398 </i>
   </energy>
  </scstep>
  <scstep>
   <time name="total">   28.20   28.44</time>
   <energy>
    <i name="e_fr_energy">  14454.84144347 </i>
    <i name="e_wo_entrp">  14454.84320936 </i>
    <i name="e_0_energy">  14454.84232642 </i>
   </energy>
  </scstep>
  <scstep>
   <time name="total">   28.24   28.48</time>
   <energy>
    <i name="e_fr_energy">  14454.61538538 </i>
    <i name="e_wo_entrp">  14454.61718581 </i>
    <i name="e_0_energy">  14454.61628559 </i>
   </energy>
  </scstep>
  <scstep>
   <time name="total">   28.41   28.66</time>
   <energy>
    <i name="e_fr_energy">  14454.42031356 </i>
    <i name="e_wo_entrp">  14454.42242236 </i>
    <i name="e_0_energy">  14454.42136796 </i>
   </energy>
  </scstep>
  <scstep>
   <time name="total">   28.43   28.67</time>
   <energy>
    <i name="e_fr_energy">  14454.27520427 </i>
    <i name="e_wo_entrp">  14454.27753717 </i>
    <i name="e_0_energy">  14454.27637072 </i>
   </energy>
  </scstep>
  <scstep>
   <time name="total">   28.33   28.58</time>
   <energy>
    <i name="e_fr_energy">  14454.17001760 </i>
    <i name="e_wo_entrp">  14454.17218023 </i>
    <i name="e_0_energy">  14454.17109891 </i>
   </energy>
  </scstep>
  <scstep>
   <time name="total">   28.47   28.72</time>
   <energy>
    <i name="e_fr_energy">  14454.08898818 </i>
    <i name="e_wo_entrp">  14454.09093161 </i>
    <i name="e_0_energy">  14454.08995989 </i>
   </energy>
  </scstep>
  <scstep>
   <time name="total">   28.54   28.79</time>
   <energy>
    <i name="e_fr_energy">  14454.03309154 </i>
    <i name="e_wo_entrp">  14454.03488059 </i>
    <i name="e_0_energy">  14454.03398607 </i>
   </energy>
  </scstep>
  <scstep>
   <time name="total">   28.40   28.64</time>
   <energy>
    <i name="e_fr_energy">  14453.99782338 </i>
    <i name="e_wo_entrp">  14453.99968861 </i>
    <i name="e_0_energy">  14453.99875600 </i>
   </energy>
  </scstep>
  <scstep>
   <time name="total">   28.30   28.55</time>
   <energy>
    <i name="e_fr_energy">  14453.96884781 </i>
    <i name="e_wo_entrp">  14453.97068252 </i>
    <i name="e_0_energy">  14453.96976516 </i>
   </energy>
  </scstep>
  <scstep>
   <time name="total">   28.53   28.78</time>
   <energy>
    <i name="e_fr_energy">  14453.94555306 </i>
    <i name="e_wo_entrp">  14453.94737712 </i>
    <i name="e_0_energy">  14453.94646509 </i>
   </energy>
  </scstep>
  <scstep>
   <time name="total">   28.62   28.86</time>
   <energy>
    <i name="e_fr_energy">  14453.93034544 </i>
    <i name="e_wo_entrp">  14453.93215914 </i>
    <i name="e_0_energy">  14453.93125229 </i>
   </energy>
  </scstep>
  <scstep>
   <time name="total">   28.18   28.42</time>
   <energy>
    <i name="e_fr_energy">  14453.91915270 </i>
    <i name="e_wo_entrp">  14453.92097031 </i>
    <i name="e_0_energy">  14453.92006151 </i>
   </energy>
  </scstep>
  <scstep>
   <time name="total">   28.37   28.61</time>
   <energy>
    <i name="e_fr_energy">  14453.90986821 </i>
    <i name="e_wo_entrp">  14453.91170913 </i>
    <i name="e_0_energy">  14453.91078867 </i>
   </energy>
  </scstep>
  <scstep>
   <time name="total">   28.48   28.74</time>
   <energy>
    <i name="e_fr_energy">  14453.90322732 </i>
    <i name="e_wo_entrp">  14453.90509731 </i>
    <i name="e_0_energy">  14453.90416232 </i>
   </energy>
  </scstep>
  <scstep>
   <time name="total">   28.49   28.74</time>
   <energy>
    <i name="e_fr_energy">  14453.89844554 </i>
    <i name="e_wo_entrp">  14453.90033958 </i>
    <i name="e_0_energy">  14453.89939256 </i>
   </energy>
  </scstep>
  <scstep>
   <time name="total">   28.47   28.71</time>
   <energy>
    <i name="e_fr_energy">  14453.89473608 </i>
    <i name="e_wo_entrp">  14453.89664709 </i>
    <i name="e_0_energy">  14453.89569158 </i>
   </energy>
  </scstep>
  <scstep>
   <time name="total">   28.33   28.58</time>
   <energy>
    <i name="e_fr_energy">  14453.89218542 </i>
    <i name="e_wo_entrp">  14453.89411143 </i>
    <i name="e_0_energy">  14453.89314842 </i>
   </energy>
  </scstep>
  <scstep>
   <time name="total">   28.78   29.02</time>
   <energy>
    <i name="e_fr_energy">  14453.89040273 </i>
    <i name="e_wo_entrp">  14453.89233118 </i>
    <i name="e_0_energy">  14453.89136696 </i>
   </energy>
  </scstep>
  <scstep>
   <time name="total">   28.24   28.49</time>
   <energy>
    <i name="e_fr_energy">  14453.88897353 </i>
    <i name="e_wo_entrp">  14453.89088975 </i>
    <i name="e_0_energy">  14453.88993164 </i>
   </energy>
  </scstep>
  <scstep>
   <time name="total">   28.44   28.69</time>
   <energy>
    <i name="e_fr_energy">  14453.88790524 </i>
    <i name="e_wo_entrp">  14453.88980788 </i>
    <i name="e_0_energy">  14453.88885656 </i>
   </energy>
  </scstep>
  <scstep>
   <time name="total">   28.53   28.77</time>
   <energy>
    <i name="e_fr_energy">  14453.88575068 </i>
    <i name="e_wo_entrp">  14453.88765047 </i>
    <i name="e_0_energy">  14453.88670057 </i>
   </energy>
  </scstep>
  <scstep>
   <time name="total">   28.36   28.61</time>
   <energy>
    <i name="e_fr_energy">  14453.88519400 </i>
    <i name="e_wo_entrp">  14453.88708957 </i>
    <i name="e_0_energy">  14453.88614178 </i>
   </energy>
  </scstep>
  <scstep>
   <time name="total">   28.16   28.41</time>
   <energy>
    <i name="e_fr_energy">  14453.88503483 </i>
    <i name="e_wo_entrp">  14453.88692930 </i>
    <i name="e_0_energy">  14453.88598206 </i>
   </energy>
  </scstep>
  <scstep>
   <time name="total">   28.40   28.65</time>
   <energy>
    <i name="e_fr_energy">  14453.88499748 </i>
    <i name="e_wo_entrp">  14453.88689164 </i>
    <i name="e_0_energy">  14453.88594456 </i>
   </energy>
  </scstep>
  <scstep>
   <time name="total">   28.57   28.82</time>
   <energy>
    <i name="e_fr_energy">  14453.88498646 </i>
    <i name="e_wo_entrp">  14453.88688070 </i>
    <i name="e_0_energy">  14453.88593358 </i>
   </energy>
  </scstep>
  <scstep>
   <time name="total">   28.30   28.55</time>
   <energy>
    <i name="e_fr_energy">  14453.88498109 </i>
    <i name="e_wo_entrp">  14453.88687547 </i>
    <i name="e_0_energy">  14453.88592828 </i>
   </energy>
  </scstep>
  <scstep>
   <time name="total">   28.27   28.53</time>
   <energy>
    <i name="e_fr_energy">  14453.88497996 </i>
    <i name="e_wo_entrp">  14453.88687440 </i>
    <i name="e_0_energy">  14453.88592718 </i>
   </energy>
  </scstep>
  <scstep>
   <time name="total">   28.76   29.01</time>
   <energy>
    <i name="e_fr_energy">  14453.88498008 </i>
    <i name="e_wo_entrp">  14453.88687475 </i>
    <i name="e_0_energy">  14453.88592742 </i>
   </energy>
  </scstep>
  <scstep>
   <time name="total">   27.78   28.02</time>
   <energy>
    <i name="e_fr_energy">  14453.88497963 </i>
    <i name="e_wo_entrp">  14453.88687443 </i>
    <i name="e_0_energy">  14453.88592703 </i>
   </energy>
  </scstep>
  <scstep>
   <time name="total">   28.52   28.77</time>
   <energy>
    <i name="e_fr_energy">  14453.88497868 </i>
    <i name="e_wo_entrp">  14453.88687349 </i>
    <i name="e_0_energy">  14453.88592609 </i>
   </energy>
  </scstep>
  <scstep>
   <time name="total">   28.40   28.65</time>
   <energy>
    <i name="e_fr_energy">  14453.88497862 </i>
    <i name="e_wo_entrp">  14453.88687345 </i>
    <i name="e_0_energy">  14453.88592603 </i>
   </energy>
  </scstep>
  <scstep>
   <time name="total">   28.58   28.83</time>
   <energy>
    <i name="e_fr_energy">  14453.88497895 </i>
    <i name="e_wo_entrp">  14453.88687378 </i>
    <i name="e_0_energy">  14453.88592636 </i>
   </energy>
  </scstep>
  <scstep>
   <time name="total">   28.30   28.55</time>
   <energy>
    <i name="e_fr_energy">  14453.88497871 </i>
    <i name="e_wo_entrp">  14453.88687355 </i>
    <i name="e_0_energy">  14453.88592613 </i>
   </energy>
  </scstep>
  <scstep>
   <time name="total">   28.08   28.33</time>
   <energy>
    <i name="e_fr_energy">  14453.88497874 </i>
    <i name="e_wo_entrp">  14453.88687359 </i>
    <i name="e_0_energy">  14453.88592616 </i>
   </energy>
  </scstep>
  <scstep>
   <time name="total">   28.29   28.54</time>
   <energy>
    <i name="e_fr_energy">  14453.88497883 </i>
    <i name="e_wo_entrp">  14453.88687368 </i>
    <i name="e_0_energy">  14453.88592625 </i>
   </energy>
  </scstep>
  <scstep>
   <time name="total">   28.91   29.16</time>
   <energy>
    <i name="e_fr_energy">  14453.88497957 </i>
    <i name="e_wo_entrp">  14453.88687447 </i>
    <i name="e_0_energy">  14453.88592702 </i>
   </energy>
  </scstep>
  <scstep>
   <time name="total">   27.77   28.01</time>
   <energy>
    <i name="e_fr_energy">  14453.88497975 </i>
    <i name="e_wo_entrp">  14453.88687469 </i>
    <i name="e_0_energy">  14453.88592722 </i>
   </energy>
  </scstep>
  <scstep>
   <time name="total">   28.01   28.26</time>
   <energy>
    <i name="e_fr_energy">  14453.88497933 </i>
    <i name="e_wo_entrp">  14453.88687430 </i>
    <i name="e_0_energy">  14453.88592682 </i>
   </energy>
  </scstep>
  <scstep>
   <time name="total">   28.53   28.78</time>
   <energy>
    <i name="e_fr_energy">  14453.88497912 </i>
    <i name="e_wo_entrp">  14453.88687410 </i>
    <i name="e_0_energy">  14453.88592661 </i>
   </energy>
  </scstep>
  <scstep>
   <time name="total">   28.59   28.84</time>
   <energy>
    <i name="e_fr_energy">  14453.88497886 </i>
    <i name="e_wo_entrp">  14453.88687383 </i>
    <i name="e_0_energy">  14453.88592634 </i>
   </energy>
  </scstep>
  <scstep>
   <time name="total">   29.04   29.28</time>
   <energy>
    <i name="e_fr_energy">  14453.88497880 </i>
    <i name="e_wo_entrp">  14453.88687377 </i>
    <i name="e_0_energy">  14453.88592628 </i>
   </energy>
  </scstep>
  <scstep>
   <time name="total">   28.54   28.79</time>
   <energy>
    <i name="e_fr_energy">  14453.88497904 </i>
    <i name="e_wo_entrp">  14453.88687401 </i>
    <i name="e_0_energy">  14453.88592652 </i>
   </energy>
  </scstep>
  <scstep>
   <time name="total">   28.74   28.98</time>
   <energy>
    <i name="e_fr_energy">  14453.88497892 </i>
    <i name="e_wo_entrp">  14453.88687389 </i>
    <i name="e_0_energy">  14453.88592640 </i>
   </energy>
  </scstep>
  <scstep>
   <time name="total">   28.48   28.72</time>
   <energy>
    <i name="e_fr_energy">  14453.88497904 </i>
    <i name="e_wo_entrp">  14453.88687401 </i>
    <i name="e_0_energy">  14453.88592652 </i>
   </energy>
  </scstep>
  <scstep>
   <time name="total">   28.72   28.97</time>
   <energy>
    <i name="e_fr_energy">  14453.88497889 </i>
    <i name="e_wo_entrp">  14453.88687386 </i>
    <i name="e_0_energy">  14453.88592637 </i>
   </energy>
  </scstep>
  <scstep>
   <time name="total">   28.59   28.83</time>
   <energy>
    <i name="e_fr_energy">  14453.88497936 </i>
    <i name="e_wo_entrp">  14453.88687434 </i>
    <i name="e_0_energy">  14453.88592685 </i>
   </energy>
  </scstep>
  <scstep>
   <time name="total">   27.84   28.09</time>
   <energy>
    <i name="e_fr_energy">  14453.88497924 </i>
    <i name="e_wo_entrp">  14453.88687424 </i>
    <i name="e_0_energy">  14453.88592674 </i>
   </energy>
  </scstep>
  <scstep>
   <time name="total">   28.48   28.73</time>
   <energy>
    <i name="e_fr_energy">  14453.88497912 </i>
    <i name="e_wo_entrp">  14453.88687412 </i>
    <i name="e_0_energy">  14453.88592662 </i>
   </energy>
  </scstep>
  <scstep>
   <time name="total">   27.79   28.03</time>
   <energy>
    <i name="e_fr_energy">  14453.88497957 </i>
    <i name="e_wo_entrp">  14453.88687459 </i>
    <i name="e_0_energy">  14453.88592708 </i>
   </energy>
  </scstep>
  <scstep>
   <time name="total">   28.40   28.63</time>
   <energy>
    <i name="e_fr_energy">  14453.88497945 </i>
    <i name="e_wo_entrp">  14453.88687447 </i>
    <i name="e_0_energy">  14453.88592696 </i>
   </energy>
  </scstep>
  <scstep>
   <time name="total">   27.58   27.81</time>
   <energy>
    <i name="e_fr_energy">  14453.88497948 </i>
    <i name="e_wo_entrp">  14453.88687451 </i>
    <i name="e_0_energy">  14453.88592700 </i>
   </energy>
  </scstep>
  <scstep>
   <time name="total">   28.50   28.74</time>
   <energy>
    <i name="e_fr_energy">  14453.88497906 </i>
    <i name="e_wo_entrp">  14453.88687410 </i>
    <i name="e_0_energy">  14453.88592658 </i>
   </energy>
  </scstep>
  <scstep>
   <time name="total">   28.39   28.63</time>
   <energy>
    <i name="e_fr_energy">  14453.88497909 </i>
    <i name="e_wo_entrp">  14453.88687413 </i>
    <i name="e_0_energy">  14453.88592661 </i>
   </energy>
  </scstep>
  <scstep>
   <time name="total">   27.81   28.05</time>
   <energy>
    <i name="e_fr_energy">  14453.88497966 </i>
    <i name="e_wo_entrp">  14453.88687471 </i>
    <i name="e_0_energy">  14453.88592718 </i>
   </energy>
  </scstep>
  <scstep>
   <time name="total">   27.70   27.95</time>
   <energy>
    <i name="e_fr_energy">  14453.88497936 </i>
    <i name="e_wo_entrp">  14453.88687442 </i>
    <i name="e_0_energy">  14453.88592689 </i>
   </energy>
  </scstep>
  <scstep>
   <time name="total">   28.51   28.76</time>
   <energy>
    <i name="e_fr_energy">  14453.88497924 </i>
    <i name="e_wo_entrp">  14453.88687430 </i>
    <i name="e_0_energy">  14453.88592677 </i>
   </energy>
  </scstep>
  <scstep>
   <time name="total">   28.13   28.37</time>
   <energy>
    <i name="e_fr_energy">  14453.88497951 </i>
    <i name="e_wo_entrp">  14453.88687457 </i>
    <i name="e_0_energy">  14453.88592704 </i>
   </energy>
  </scstep>
  <scstep>
   <time name="total">   27.86   28.10</time>
   <energy>
    <i name="e_fr_energy">  14453.88497972 </i>
    <i name="e_wo_entrp">  14453.88687479 </i>
    <i name="e_0_energy">  14453.88592726 </i>
   </energy>
  </scstep>
  <scstep>
   <time name="total">   27.72   27.96</time>
   <energy>
    <i name="e_fr_energy">  14453.88497960 </i>
    <i name="e_wo_entrp">  14453.88687468 </i>
    <i name="e_0_energy">  14453.88592714 </i>
   </energy>
  </scstep>
  <scstep>
   <time name="total">   27.86   28.13</time>
   <energy>
    <i name="e_fr_energy">  14453.88497936 </i>
    <i name="e_wo_entrp">  14453.88687445 </i>
    <i name="e_0_energy">  14453.88592691 </i>
   </energy>
  </scstep>
  <scstep>
   <time name="total">   27.69   27.94</time>
   <energy>
    <i name="e_fr_energy">  14453.88497901 </i>
    <i name="e_wo_entrp">  14453.88687410 </i>
    <i name="e_0_energy">  14453.88592655 </i>
   </energy>
  </scstep>
  <scstep>
   <time name="total">   28.39   28.63</time>
   <energy>
    <i name="e_fr_energy">  14453.88497889 </i>
    <i name="e_wo_entrp">  14453.88687398 </i>
    <i name="e_0_energy">  14453.88592643 </i>
   </energy>
  </scstep>
  <scstep>
   <time name="total">   28.20   28.45</time>
   <energy>
    <i name="e_fr_energy">  14453.88497862 </i>
    <i name="e_wo_entrp">  14453.88687371 </i>
    <i name="e_0_energy">  14453.88592617 </i>
   </energy>
  </scstep>
  <scstep>
   <time name="total">   28.31   28.55</time>
   <energy>
    <i name="e_fr_energy">  14453.88497883 </i>
    <i name="e_wo_entrp">  14453.88687392 </i>
    <i name="e_0_energy">  14453.88592637 </i>
   </energy>
  </scstep>
  <scstep>
   <time name="total">   28.31   28.57</time>
   <energy>
    <i name="e_fr_energy">  14453.88497895 </i>
    <i name="e_wo_entrp">  14453.88687404 </i>
    <i name="e_0_energy">  14453.88592649 </i>
   </energy>
  </scstep>
  <scstep>
   <time name="total">   32.20   32.49</time>
   <energy>
    <i name="alphaZ">    722.32689327 </i>
    <i name="ewald">   7180.08872631 </i>
    <i name="hartreedc">  -5020.82792733 </i>
    <i name="XCdc">    558.96630888 </i>
    <i name="pawpsdc">**************** </i>
    <i name="pawaedc">**************** </i>
    <i name="eentropy">     -0.00189510 </i>
    <i name="bandstr">  -1083.95548102 </i>
    <i name="atom">  11728.30056431 </i>
    <i name="e_fr_energy">  14453.88497895 </i>
    <i name="e_wo_entrp">  14453.88687405 </i>
    <i name="e_0_energy">  14453.88592650 </i>
   </energy>
  </scstep>
  <structure>
   <crystal>
    <varray name="basis" >
     <v>       4.89811064       0.00000000      -2.80676402 </v>
     <v>      -1.64507334       4.61359096      -2.80676402 </v>
     <v>       0.00000000       0.00000000       5.64530000 </v>
    </varray>
    <i name="volume">    127.57180605 </i>
    <varray name="rec_basis" >
     <v>       0.20416035       0.07279769       0.00000000 </v>
     <v>       0.00000000       0.21675090       0.00000000 </v>
     <v>       0.10150567       0.14395950       0.17713850 </v>
    </varray>
   </crystal>
   <varray name="positions" >
    <v>       0.00000000       0.00000000       0.00000000 </v>
    <v>       0.50000000       0.50000000       0.00000000 </v>
    <v>       0.25000000       0.25000000       0.00000000 </v>
    <v>       0.73866000       0.23866000       0.97732000 </v>
    <v>       0.75000000       0.75000000       0.00000000 </v>
    <v>       0.26134000       0.76134000       0.02268000 </v>
    <v>       0.23866000       0.26134000       0.50000000 </v>
    <v>       0.76134000       0.73866000       0.50000000 </v>
    <v>       0.24066000       0.74066000       0.98133000 </v>
    <v>       0.75934000       0.25934000       0.01867000 </v>
    <v>       0.74066000       0.75934000       0.50000000 </v>
    <v>       0.25934000       0.24066000       0.50000000 </v>
   </varray>
  </structure>
  <varray name="forces" >
   <v>       0.00000000       0.00000000       0.00000000 </v>
   <v>       0.00000000       0.00000000       0.00000000 </v>
   <v>       0.00000000       0.00000000       0.00000000 </v>
   <v>       0.00000000       0.00000000       0.00000000 </v>
   <v>       0.00000000       0.00000000       0.00000000 </v>
   <v>       0.00000000       0.00000000       0.00000000 </v>
   <v>       0.00000000       0.00000000       0.00000000 </v>
   <v>       0.00000000       0.00000000       0.00000000 </v>
   <v>       0.00000000       0.00000000       0.00000000 </v>
   <v>       0.00000000       0.00000000       0.00000000 </v>
   <v>       0.00000000       0.00000000       0.00000000 </v>
   <v>       0.00000000       0.00000000       0.00000000 </v>
  </varray>
  <varray name="stress" >
   <v>       0.00000000       0.00000000       0.00000000 </v>
   <v>       0.00000000       0.00000000       0.00000000 </v>
   <v>       0.00000000       0.00000000       0.00000000 </v>
  </varray>
  <energy>
   <i name="e_fr_energy">  14453.88497895 </i>
   <i name="e_wo_entrp">  14453.88687405 </i>
   <i name="e_0_energy">  14453.88592650 </i>
  </energy>
  <time name="totalsc"> 2356.32 2377.11</time>
  <eigenvalues>
   <array>
    <dimension dim="1">band</dimension>
    <dimension dim="2">kpoint</dimension>
    <dimension dim="3">spin</dimension>
    <field>eigene</field>
    <field>occ</field>
    <set>
     <set comment="spin 1">
      <set comment="kpoint 1">
       <r>  -53.8305    1.0000 </r>
       <r>  -53.8302    1.0000 </r>
       <r>  -31.8209    1.0000 </r>
       <r>  -31.8159    1.0000 </r>
       <r>  -31.8116    1.0000 </r>
       <r>  -31.8065    1.0000 </r>
       <r>  -27.4404    1.0000 </r>
       <r>  -27.4402    1.0000 </r>
       <r>  -27.4264    1.0000 </r>
       <r>  -27.4262    1.0000 </r>
       <r>  -27.3980    1.0000 </r>
       <r>  -27.3730    1.0000 </r>
       <r>  -20.0780    1.0000 </r>
       <r>  -19.8714    1.0000 </r>
       <r>  -19.8695    1.0000 </r>
       <r>  -19.7306    1.0000 </r>
       <r>  -19.2998    1.0000 </r>
       <r>  -19.2765    1.0000 </r>
       <r>  -19.2749    1.0000 </r>
       <r>  -19.1667    1.0000 </r>
       <r>  -19.0075    1.0000 </r>
       <r>  -18.9634    1.0000 </r>
       <r>  -18.9610    1.0000 </r>
       <r>  -18.8916    1.0000 </r>
       <r>   -3.4556    1.0000 </r>
       <r>   -0.7661    1.0000 </r>
       <r>   -0.7202    1.0000 </r>
       <r>   -0.7200    1.0000 </r>
       <r>    0.3749    1.0000 </r>
       <r>    0.7777    1.0000 </r>
       <r>    0.7782    1.0000 </r>
       <r>    1.5102    1.0000 </r>
       <r>    1.5576    1.0000 </r>
       <r>    1.8727    1.0000 </r>
       <r>    1.9920    1.0000 </r>
       <r>    2.0455    1.0000 </r>
       <r>    2.0456    1.0000 </r>
       <r>    2.9848    1.0000 </r>
       <r>    2.9854    1.0000 </r>
       <r>    3.0304    1.0000 </r>
       <r>    3.0318    1.0000 </r>
       <r>    3.0758    1.0000 </r>
       <r>    3.4239    1.0000 </r>
       <r>    3.9561    1.0000 </r>
       <r>    4.1352    1.0000 </r>
       <r>    4.1389    1.0000 </r>
       <r>    5.8351    1.0000 </r>
       <r>    7.2416    1.0000 </r>
       <r>    8.0895    1.0000 </r>
       <r>    8.0896    1.0000 </r>
       <r>    8.3032    0.4570 </r>
       <r>    8.5360    0.0000 </r>
       <r>    9.2135    0.0000 </r>
       <r>    9.2941    0.0000 </r>
       <r>    9.4234    0.0000 </r>
       <r>    9.4239    0.0000 </r>
       <r>    9.5193    0.0000 </r>
       <r>    9.6868    0.0000 </r>
       <r>    9.6869    0.0000 </r>
       <r>   11.3722    0.0000 </r>
       <r>   11.3723    0.0000 </r>
       <r>   12.3111    0.0000 </r>
       <r>   13.0695    0.0000 </r>
       <r>   16.7197    0.0000 </r>
       <r>   16.7432    0.0000 </r>
       <r>   17.0539    0.0000 </r>
      </set>
      <set comment="kpoint 2">
       <r>  -53.8305    1.0000 </r>
       <r>  -53.8302    1.0000 </r>
       <r>  -31.8206    1.0000 </r>
       <r>  -31.8158    1.0000 </r>
       <r>  -31.8115    1.0000 </r>
       <r>  -31.8066    1.0000 </r>
       <r>  -27.4393    1.0000 </r>
       <r>  -27.4390    1.0000 </r>
       <r>  -27.4263    1.0000 </r>
       <r>  -27.4261    1.0000 </r>
       <r>  -27.3952    1.0000 </r>
       <r>  -27.3721    1.0000 </r>
       <r>  -20.0702    1.0000 </r>
       <r>  -19.8793    1.0000 </r>
       <r>  -19.8497    1.0000 </r>
       <r>  -19.7195    1.0000 </r>
       <r>  -19.3209    1.0000 </r>
       <r>  -19.2968    1.0000 </r>
       <r>  -19.2727    1.0000 </r>
       <r>  -19.1758    1.0000 </r>
       <r>  -19.0085    1.0000 </r>
       <r>  -18.9669    1.0000 </r>
       <r>  -18.9604    1.0000 </r>
       <r>  -18.8954    1.0000 </r>
       <r>   -3.3516    1.0000 </r>
       <r>   -0.8130    1.0000 </r>
       <r>   -0.6570    1.0000 </r>
       <r>   -0.6220    1.0000 </r>
       <r>    0.4233    1.0000 </r>
       <r>    0.7817    1.0000 </r>
       <r>    0.8401    1.0000 </r>
       <r>    1.5584    1.0000 </r>
       <r>    1.6103    1.0000 </r>
       <r>    1.8061    1.0000 </r>
       <r>    1.9125    1.0000 </r>
       <r>    1.9769    1.0000 </r>
       <r>    2.1023    1.0000 </r>
       <r>    2.8715    1.0000 </r>
       <r>    2.9726    1.0000 </r>
       <r>    2.9924    1.0000 </r>
       <r>    3.0349    1.0000 </r>
       <r>    3.0508    1.0000 </r>
       <r>    3.3945    1.0000 </r>
       <r>    3.9656    1.0000 </r>
       <r>    4.0109    1.0000 </r>
       <r>    4.1602    1.0000 </r>
       <r>    6.0719    1.0000 </r>
       <r>    6.9877    1.0000 </r>
       <r>    7.9432    1.0000 </r>
       <r>    8.0448    1.0000 </r>
       <r>    8.2517    0.9998 </r>
       <r>    8.4987    0.0000 </r>
       <r>    8.8284    0.0000 </r>
       <r>    8.9481    0.0000 </r>
       <r>    9.1239    0.0000 </r>
       <r>    9.2657    0.0000 </r>
       <r>    9.3395    0.0000 </r>
       <r>   10.3486    0.0000 </r>
       <r>   10.4895    0.0000 </r>
       <r>   10.7566    0.0000 </r>
       <r>   11.7107    0.0000 </r>
       <r>   12.5282    0.0000 </r>
       <r>   13.5581    0.0000 </r>
       <r>   16.1625    0.0000 </r>
       <r>   16.7595    0.0000 </r>
       <r>   17.1362    0.0000 </r>
      </set>
      <set comment="kpoint 3">
       <r>  -53.8305    1.0000 </r>
       <r>  -53.8303    1.0000 </r>
       <r>  -31.8199    1.0000 </r>
       <r>  -31.8160    1.0000 </r>
       <r>  -31.8114    1.0000 </r>
       <r>  -31.8072    1.0000 </r>
       <r>  -27.4364    1.0000 </r>
       <r>  -27.4360    1.0000 </r>
       <r>  -27.4265    1.0000 </r>
       <r>  -27.4261    1.0000 </r>
       <r>  -27.3877    1.0000 </r>
       <r>  -27.3701    1.0000 </r>
       <r>  -20.0485    1.0000 </r>
       <r>  -19.9039    1.0000 </r>
       <r>  -19.7901    1.0000 </r>
       <r>  -19.6847    1.0000 </r>
       <r>  -19.3835    1.0000 </r>
       <r>  -19.3572    1.0000 </r>
       <r>  -19.2643    1.0000 </r>
       <r>  -19.1951    1.0000 </r>
       <r>  -19.0101    1.0000 </r>
       <r>  -18.9783    1.0000 </r>
       <r>  -18.9558    1.0000 </r>
       <r>  -18.9059    1.0000 </r>
       <r>   -3.0527    1.0000 </r>
       <r>   -1.0753    1.0000 </r>
       <r>   -0.3774    1.0000 </r>
       <r>   -0.3391    1.0000 </r>
       <r>    0.5540    1.0000 </r>
       <r>    0.7670    1.0000 </r>
       <r>    1.0113    1.0000 </r>
       <r>    1.5742    1.0000 </r>
       <r>    1.5894    1.0000 </r>
       <r>    1.7057    1.0000 </r>
       <r>    1.7628    1.0000 </r>
       <r>    1.9134    1.0000 </r>
       <r>    2.2665    1.0000 </r>
       <r>    2.6757    1.0000 </r>
       <r>    2.7957    1.0000 </r>
       <r>    2.9868    1.0000 </r>
       <r>    3.0154    1.0000 </r>
       <r>    3.0682    1.0000 </r>
       <r>    3.3185    1.0000 </r>
       <r>    3.6870    1.0000 </r>
       <r>    3.9565    1.0000 </r>
       <r>    4.1804    1.0000 </r>
       <r>    6.5610    1.0000 </r>
       <r>    6.6149    1.0000 </r>
       <r>    7.6022    1.0000 </r>
       <r>    7.9310    1.0000 </r>
       <r>    8.1704    1.0000 </r>
       <r>    8.3715    0.0000 </r>
       <r>    8.4443    0.0000 </r>
       <r>    8.5015    0.0000 </r>
       <r>    8.8326    0.0000 </r>
       <r>    8.9244    0.0000 </r>
       <r>    9.2414    0.0000 </r>
       <r>    9.7617    0.0000 </r>
       <r>   11.2812    0.0000 </r>
       <r>   11.5044    0.0000 </r>
       <r>   12.3690    0.0000 </r>
       <r>   12.9067    0.0000 </r>
       <r>   14.3678    0.0000 </r>
       <r>   15.5947    0.0000 </r>
       <r>   16.7217    0.0000 </r>
       <r>   16.9107    0.0000 </r>
      </set>
      <set comment="kpoint 4">
       <r>  -53.8306    1.0000 </r>
       <r>  -53.8304    1.0000 </r>
       <r>  -31.8189    1.0000 </r>
       <r>  -31.8166    1.0000 </r>
       <r>  -31.8110    1.0000 </r>
       <r>  -31.8080    1.0000 </r>
       <r>  -27.4331    1.0000 </r>
       <r>  -27.4322    1.0000 </r>
       <r>  -27.4277    1.0000 </r>
       <r>  -27.4268    1.0000 </r>
       <r>  -27.3787    1.0000 </r>
       <r>  -27.3693    1.0000 </r>
       <r>  -20.0167    1.0000 </r>
       <r>  -19.9394    1.0000 </r>
       <r>  -19.6990    1.0000 </r>
       <r>  -19.6244    1.0000 </r>
       <r>  -19.4781    1.0000 </r>
       <r>  -19.4459    1.0000 </r>
       <r>  -19.2512    1.0000 </r>
       <r>  -19.2154    1.0000 </r>
       <r>  -19.0092    1.0000 </r>
       <r>  -18.9920    1.0000 </r>
       <r>  -18.9472    1.0000 </r>
       <r>  -18.9202    1.0000 </r>
       <r>   -2.5986    1.0000 </r>
       <r>   -1.5119    1.0000 </r>
       <r>    0.0149    1.0000 </r>
       <r>    0.0942    1.0000 </r>
       <r>    0.6626    1.0000 </r>
       <r>    0.7384    1.0000 </r>
       <r>    1.1129    1.0000 </r>
       <r>    1.2410    1.0000 </r>
       <r>    1.3119    1.0000 </r>
       <r>    1.7710    1.0000 </r>
       <r>    1.9434    1.0000 </r>
       <r>    1.9828    1.0000 </r>
       <r>    2.4696    1.0000 </r>
       <r>    2.5133    1.0000 </r>
       <r>    2.5335    1.0000 </r>
       <r>    2.9435    1.0000 </r>
       <r>    3.0477    1.0000 </r>
       <r>    3.1029    1.0000 </r>
       <r>    3.2296    1.0000 </r>
       <r>    3.3279    1.0000 </r>
       <r>    3.9140    1.0000 </r>
       <r>    4.0915    1.0000 </r>
       <r>    6.4642    1.0000 </r>
       <r>    7.0732    1.0000 </r>
       <r>    7.3582    1.0000 </r>
       <r>    7.8269    1.0000 </r>
       <r>    7.9990    1.0000 </r>
       <r>    8.0589    1.0000 </r>
       <r>    8.2104    1.0000 </r>
       <r>    8.4218    0.0000 </r>
       <r>    8.4893    0.0000 </r>
       <r>    8.6904    0.0000 </r>
       <r>    9.0541    0.0000 </r>
       <r>    9.0573    0.0000 </r>
       <r>   12.2146    0.0000 </r>
       <r>   12.3693    0.0000 </r>
       <r>   12.9034    0.0000 </r>
       <r>   13.0521    0.0000 </r>
       <r>   15.3566    0.0000 </r>
       <r>   15.3706    0.0000 </r>
       <r>   16.3527    0.0000 </r>
       <r>   16.5106    0.0000 </r>
      </set>
      <set comment="kpoint 5">
       <r>  -53.8305    1.0000 </r>
       <r>  -53.8305    1.0000 </r>
       <r>  -31.8183    1.0000 </r>
       <r>  -31.8174    1.0000 </r>
       <r>  -31.8109    1.0000 </r>
       <r>  -31.8085    1.0000 </r>
       <r>  -27.4300    1.0000 </r>
       <r>  -27.4300    1.0000 </r>
       <r>  -27.4289    1.0000 </r>
       <r>  -27.4289    1.0000 </r>
       <r>  -27.3719    1.0000 </r>
       <r>  -27.3719    1.0000 </r>
       <r>  -19.9798    1.0000 </r>
       <r>  -19.9782    1.0000 </r>
       <r>  -19.5904    1.0000 </r>
       <r>  -19.5882    1.0000 </r>
       <r>  -19.5417    1.0000 </r>
       <r>  -19.5411    1.0000 </r>
       <r>  -19.2363    1.0000 </r>
       <r>  -19.2327    1.0000 </r>
       <r>  -19.0044    1.0000 </r>
       <r>  -19.0022    1.0000 </r>
       <r>  -18.9359    1.0000 </r>
       <r>  -18.9338    1.0000 </r>
       <r>   -2.0544    1.0000 </r>
       <r>   -2.0543    1.0000 </r>
       <r>    0.4018    1.0000 </r>
       <r>    0.4018    1.0000 </r>
       <r>    0.6179    1.0000 </r>
       <r>    0.6181    1.0000 </r>
       <r>    0.9618    1.0000 </r>
       <r>    0.9619    1.0000 </r>
       <r>    1.5483    1.0000 </r>
       <r>    1.5484    1.0000 </r>
       <r>    2.2168    1.0000 </r>
       <r>    2.2171    1.0000 </r>
       <r>    2.2489    1.0000 </r>
       <r>    2.2490    1.0000 </r>
       <r>    2.8008    1.0000 </r>
       <r>    2.8012    1.0000 </r>
       <r>    3.0856    1.0000 </r>
       <r>    3.0859    1.0000 </r>
       <r>    3.1694    1.0000 </r>
       <r>    3.1696    1.0000 </r>
       <r>    3.9498    1.0000 </r>
       <r>    3.9500    1.0000 </r>
       <r>    6.7654    1.0000 </r>
       <r>    6.7657    1.0000 </r>
       <r>    7.6722    1.0000 </r>
       <r>    7.6725    1.0000 </r>
       <r>    7.8658    1.0000 </r>
       <r>    7.8659    1.0000 </r>
       <r>    8.2792    0.9442 </r>
       <r>    8.2795    0.9418 </r>
       <r>    8.4623    0.0000 </r>
       <r>    8.4626    0.0000 </r>
       <r>    8.9112    0.0000 </r>
       <r>    8.9114    0.0000 </r>
       <r>   12.8252    0.0000 </r>
       <r>   12.8253    0.0000 </r>
       <r>   12.9457    0.0000 </r>
       <r>   12.9463    0.0000 </r>
       <r>   15.5149    0.0000 </r>
       <r>   15.5162    0.0000 </r>
       <r>   16.3809    0.0000 </r>
       <r>   16.4409    0.0000 </r>
      </set>
      <set comment="kpoint 6">
       <r>  -53.8306    1.0000 </r>
       <r>  -53.8302    1.0000 </r>
       <r>  -31.8204    1.0000 </r>
       <r>  -31.8159    1.0000 </r>
       <r>  -31.8115    1.0000 </r>
       <r>  -31.8069    1.0000 </r>
       <r>  -27.4393    1.0000 </r>
       <r>  -27.4361    1.0000 </r>
       <r>  -27.4267    1.0000 </r>
       <r>  -27.4245    1.0000 </r>
       <r>  -27.3902    1.0000 </r>
       <r>  -27.3705    1.0000 </r>
       <r>  -20.0684    1.0000 </r>
       <r>  -19.8629    1.0000 </r>
       <r>  -19.8568    1.0000 </r>
       <r>  -19.7092    1.0000 </r>
       <r>  -19.3378    1.0000 </r>
       <r>  -19.2990    1.0000 </r>
       <r>  -19.2904    1.0000 </r>
       <r>  -19.1867    1.0000 </r>
       <r>  -19.0136    1.0000 </r>
       <r>  -18.9679    1.0000 </r>
       <r>  -18.9624    1.0000 </r>
       <r>  -18.9007    1.0000 </r>
       <r>   -3.1891    1.0000 </r>
       <r>   -0.8402    1.0000 </r>
       <r>   -0.6294    1.0000 </r>
       <r>   -0.4603    1.0000 </r>
       <r>    0.4757    1.0000 </r>
       <r>    0.8638    1.0000 </r>
       <r>    0.8652    1.0000 </r>
       <r>    1.6307    1.0000 </r>
       <r>    1.6903    1.0000 </r>
       <r>    1.7481    1.0000 </r>
       <r>    1.8854    1.0000 </r>
       <r>    1.9678    1.0000 </r>
       <r>    2.0218    1.0000 </r>
       <r>    2.8420    1.0000 </r>
       <r>    2.9149    1.0000 </r>
       <r>    2.9496    1.0000 </r>
       <r>    2.9854    1.0000 </r>
       <r>    3.0360    1.0000 </r>
       <r>    3.3666    1.0000 </r>
       <r>    3.7383    1.0000 </r>
       <r>    3.8763    1.0000 </r>
       <r>    4.2279    1.0000 </r>
       <r>    6.6513    1.0000 </r>
       <r>    6.6779    1.0000 </r>
       <r>    7.7599    1.0000 </r>
       <r>    7.9818    1.0000 </r>
       <r>    8.1372    1.0000 </r>
       <r>    8.3514    0.0002 </r>
       <r>    8.3572    0.0000 </r>
       <r>    8.4149    0.0000 </r>
       <r>    9.0096    0.0000 </r>
       <r>    9.1162    0.0000 </r>
       <r>    9.1353    0.0000 </r>
       <r>   11.0012    0.0000 </r>
       <r>   11.0234    0.0000 </r>
       <r>   11.1658    0.0000 </r>
       <r>   11.2645    0.0000 </r>
       <r>   12.9419    0.0000 </r>
       <r>   13.9508    0.0000 </r>
       <r>   15.8263    0.0000 </r>
       <r>   16.7489    0.0000 </r>
       <r>   17.1695    0.0000 </r>
      </set>
      <set comment="kpoint 7">
       <r>  -53.8307    1.0000 </r>
       <r>  -53.8303    1.0000 </r>
       <r>  -31.8197    1.0000 </r>
       <r>  -31.8160    1.0000 </r>
       <r>  -31.8115    1.0000 </r>
       <r>  -31.8075    1.0000 </r>
       <r>  -27.4377    1.0000 </r>
       <r>  -27.4324    1.0000 </r>
       <r>  -27.4278    1.0000 </r>
       <r>  -27.4232    1.0000 </r>
       <r>  -27.3822    1.0000 </r>
       <r>  -27.3690    1.0000 </r>
       <r>  -20.0476    1.0000 </r>
       <r>  -19.8839    1.0000 </r>
       <r>  -19.8005    1.0000 </r>
       <r>  -19.6761    1.0000 </r>
       <r>  -19.3939    1.0000 </r>
       <r>  -19.3558    1.0000 </r>
       <r>  -19.2858    1.0000 </r>
       <r>  -19.2102    1.0000 </r>
       <r>  -19.0169    1.0000 </r>
       <r>  -18.9757    1.0000 </r>
       <r>  -18.9589    1.0000 </r>
       <r>  -18.9117    1.0000 </r>
       <r>   -2.8467    1.0000 </r>
       <r>   -1.1062    1.0000 </r>
       <r>   -0.4028    1.0000 </r>
       <r>   -0.1304    1.0000 </r>
       <r>    0.6085    1.0000 </r>
       <r>    0.8336    1.0000 </r>
       <r>    1.0434    1.0000 </r>
       <r>    1.4990    1.0000 </r>
       <r>    1.5728    1.0000 </r>
       <r>    1.7936    1.0000 </r>
       <r>    1.8607    1.0000 </r>
       <r>    1.8907    1.0000 </r>
       <r>    2.1298    1.0000 </r>
       <r>    2.6985    1.0000 </r>
       <r>    2.7610    1.0000 </r>
       <r>    2.9183    1.0000 </r>
       <r>    2.9761    1.0000 </r>
       <r>    3.0052    1.0000 </r>
       <r>    3.2897    1.0000 </r>
       <r>    3.5439    1.0000 </r>
       <r>    3.7201    1.0000 </r>
       <r>    4.3214    1.0000 </r>
       <r>    6.3593    1.0000 </r>
       <r>    7.2983    1.0000 </r>
       <r>    7.4647    1.0000 </r>
       <r>    7.8410    1.0000 </r>
       <r>    7.9227    1.0000 </r>
       <r>    8.0179    1.0000 </r>
       <r>    8.0648    1.0000 </r>
       <r>    8.3612    0.0000 </r>
       <r>    8.6623    0.0000 </r>
       <r>    8.8733    0.0000 </r>
       <r>    9.0187    0.0000 </r>
       <r>   10.0125    0.0000 </r>
       <r>   11.4613    0.0000 </r>
       <r>   11.9999    0.0000 </r>
       <r>   12.1097    0.0000 </r>
       <r>   13.5293    0.0000 </r>
       <r>   14.5680    0.0000 </r>
       <r>   15.4707    0.0000 </r>
       <r>   16.3345    0.0000 </r>
       <r>   17.0334    0.0000 </r>
      </set>
      <set comment="kpoint 8">
       <r>  -53.8307    1.0000 </r>
       <r>  -53.8303    1.0000 </r>
       <r>  -31.8187    1.0000 </r>
       <r>  -31.8165    1.0000 </r>
       <r>  -31.8113    1.0000 </r>
       <r>  -31.8082    1.0000 </r>
       <r>  -27.4351    1.0000 </r>
       <r>  -27.4301    1.0000 </r>
       <r>  -27.4290    1.0000 </r>
       <r>  -27.4231    1.0000 </r>
       <r>  -27.3746    1.0000 </r>
       <r>  -27.3696    1.0000 </r>
       <r>  -20.0112    1.0000 </r>
       <r>  -19.9163    1.0000 </r>
       <r>  -19.7091    1.0000 </r>
       <r>  -19.6183    1.0000 </r>
       <r>  -19.4848    1.0000 </r>
       <r>  -19.4420    1.0000 </r>
       <r>  -19.2722    1.0000 </r>
       <r>  -19.2338    1.0000 </r>
       <r>  -19.0151    1.0000 </r>
       <r>  -18.9864    1.0000 </r>
       <r>  -18.9494    1.0000 </r>
       <r>  -18.9256    1.0000 </r>
       <r>   -2.3711    1.0000 </r>
       <r>   -1.5787    1.0000 </r>
       <r>    0.0035    1.0000 </r>
       <r>    0.2523    1.0000 </r>
       <r>    0.6581    1.0000 </r>
       <r>    0.7966    1.0000 </r>
       <r>    1.0379    1.0000 </r>
       <r>    1.2496    1.0000 </r>
       <r>    1.3173    1.0000 </r>
       <r>    1.7228    1.0000 </r>
       <r>    2.0250    1.0000 </r>
       <r>    2.0839    1.0000 </r>
       <r>    2.3416    1.0000 </r>
       <r>    2.4869    1.0000 </r>
       <r>    2.5003    1.0000 </r>
       <r>    2.9420    1.0000 </r>
       <r>    2.9454    1.0000 </r>
       <r>    3.0136    1.0000 </r>
       <r>    3.1978    1.0000 </r>
       <r>    3.2000    1.0000 </r>
       <r>    3.7916    1.0000 </r>
       <r>    4.3285    1.0000 </r>
       <r>    6.4375    1.0000 </r>
       <r>    7.0997    1.0000 </r>
       <r>    7.4850    1.0000 </r>
       <r>    7.7541    1.0000 </r>
       <r>    7.8231    1.0000 </r>
       <r>    7.9730    1.0000 </r>
       <r>    8.0348    1.0000 </r>
       <r>    8.3645    0.0000 </r>
       <r>    8.4989    0.0000 </r>
       <r>    8.5835    0.0000 </r>
       <r>    8.8964    0.0000 </r>
       <r>    9.3314    0.0000 </r>
       <r>   11.7621    0.0000 </r>
       <r>   12.5015    0.0000 </r>
       <r>   13.0618    0.0000 </r>
       <r>   13.5064    0.0000 </r>
       <r>   15.3763    0.0000 </r>
       <r>   15.4016    0.0000 </r>
       <r>   15.8678    0.0000 </r>
       <r>   16.6000    0.0000 </r>
      </set>
      <set comment="kpoint 9">
       <r>  -53.8307    1.0000 </r>
       <r>  -53.8304    1.0000 </r>
       <r>  -31.8180    1.0000 </r>
       <r>  -31.8171    1.0000 </r>
       <r>  -31.8111    1.0000 </r>
       <r>  -31.8086    1.0000 </r>
       <r>  -27.4333    1.0000 </r>
       <r>  -27.4324    1.0000 </r>
       <r>  -27.4267    1.0000 </r>
       <r>  -27.4248    1.0000 </r>
       <r>  -27.3741    1.0000 </r>
       <r>  -27.3701    1.0000 </r>
       <r>  -19.9658    1.0000 </r>
       <r>  -19.9522    1.0000 </r>
       <r>  -19.5991    1.0000 </r>
       <r>  -19.5941    1.0000 </r>
       <r>  -19.5378    1.0000 </r>
       <r>  -19.5349    1.0000 </r>
       <r>  -19.2564    1.0000 </r>
       <r>  -19.2528    1.0000 </r>
       <r>  -19.0066    1.0000 </r>
       <r>  -18.9950    1.0000 </r>
       <r>  -18.9397    1.0000 </r>
       <r>  -18.9354    1.0000 </r>
       <r>   -2.1353    1.0000 </r>
       <r>   -1.8329    1.0000 </r>
       <r>    0.3021    1.0000 </r>
       <r>    0.4775    1.0000 </r>
       <r>    0.5363    1.0000 </r>
       <r>    0.5939    1.0000 </r>
       <r>    1.0006    1.0000 </r>
       <r>    1.0327    1.0000 </r>
       <r>    1.4766    1.0000 </r>
       <r>    1.5545    1.0000 </r>
       <r>    2.1881    1.0000 </r>
       <r>    2.2075    1.0000 </r>
       <r>    2.2738    1.0000 </r>
       <r>    2.3364    1.0000 </r>
       <r>    2.6545    1.0000 </r>
       <r>    2.7145    1.0000 </r>
       <r>    2.9767    1.0000 </r>
       <r>    3.0341    1.0000 </r>
       <r>    3.1010    1.0000 </r>
       <r>    3.1240    1.0000 </r>
       <r>    3.9793    1.0000 </r>
       <r>    4.3271    1.0000 </r>
       <r>    6.7770    1.0000 </r>
       <r>    6.7981    1.0000 </r>
       <r>    7.1425    1.0000 </r>
       <r>    7.7132    1.0000 </r>
       <r>    7.9811    1.0000 </r>
       <r>    8.0211    1.0000 </r>
       <r>    8.1187    1.0000 </r>
       <r>    8.4436    0.0000 </r>
       <r>    8.5008    0.0000 </r>
       <r>    8.5570    0.0000 </r>
       <r>    8.8600    0.0000 </r>
       <r>    9.2475    0.0000 </r>
       <r>   11.7856    0.0000 </r>
       <r>   12.5805    0.0000 </r>
       <r>   12.8203    0.0000 </r>
       <r>   13.8419    0.0000 </r>
       <r>   15.3449    0.0000 </r>
       <r>   15.4413    0.0000 </r>
[...]
       <r>    3.1781    1.0000 </r>
       <r>    3.1932    1.0000 </r>
       <r>    4.1049    1.0000 </r>
       <r>    4.4238    1.0000 </r>
       <r>    6.4877    1.0000 </r>
       <r>    7.1686    1.0000 </r>
       <r>    7.2977    1.0000 </r>
       <r>    7.8573    1.0000 </r>
       <r>    7.9088    1.0000 </r>
       <r>    8.0959    1.0000 </r>
       <r>    8.1695    1.0000 </r>
       <r>    8.2963    0.6471 </r>
       <r>    8.4871    0.0000 </r>
       <r>    8.8580    0.0000 </r>
       <r>    9.0294    0.0000 </r>
       <r>    9.7835    0.0000 </r>
       <r>   11.2859    0.0000 </r>
       <r>   11.8539    0.0000 </r>
       <r>   12.2907    0.0000 </r>
       <r>   14.0855    0.0000 </r>
       <r>   14.9084    0.0000 </r>
       <r>   15.2720    0.0000 </r>
       <r>   16.3040    0.0000 </r>
       <r>   17.0703    0.0000 </r>
      </set>
      <set comment="kpoint 165">
       <r>  -53.8306    1.0000 </r>
       <r>  -53.8304    1.0000 </r>
       <r>  -31.8179    1.0000 </r>
       <r>  -31.8159    1.0000 </r>
       <r>  -31.8118    1.0000 </r>
       <r>  -31.8088    1.0000 </r>
       <r>  -27.4403    1.0000 </r>
       <r>  -27.4329    1.0000 </r>
       <r>  -27.4236    1.0000 </r>
       <r>  -27.4233    1.0000 </r>
       <r>  -27.3808    1.0000 </r>
       <r>  -27.3693    1.0000 </r>
       <r>  -19.9340    1.0000 </r>
       <r>  -19.8036    1.0000 </r>
       <r>  -19.7805    1.0000 </r>
       <r>  -19.5978    1.0000 </r>
       <r>  -19.5106    1.0000 </r>
       <r>  -19.3958    1.0000 </r>
       <r>  -19.3717    1.0000 </r>
       <r>  -19.2918    1.0000 </r>
       <r>  -18.9943    1.0000 </r>
       <r>  -18.9817    1.0000 </r>
       <r>  -18.9636    1.0000 </r>
       <r>  -18.9273    1.0000 </r>
       <r>   -2.4771    1.0000 </r>
       <r>   -1.0166    1.0000 </r>
       <r>   -0.3537    1.0000 </r>
       <r>    0.0553    1.0000 </r>
       <r>    0.7379    1.0000 </r>
       <r>    0.9086    1.0000 </r>
       <r>    0.9928    1.0000 </r>
       <r>    1.0316    1.0000 </r>
       <r>    1.5299    1.0000 </r>
       <r>    1.7160    1.0000 </r>
       <r>    1.9534    1.0000 </r>
       <r>    1.9656    1.0000 </r>
       <r>    2.0530    1.0000 </r>
       <r>    2.6592    1.0000 </r>
       <r>    2.6845    1.0000 </r>
       <r>    2.7327    1.0000 </r>
       <r>    2.7840    1.0000 </r>
       <r>    2.8250    1.0000 </r>
       <r>    2.8781    1.0000 </r>
       <r>    3.0355    1.0000 </r>
       <r>    4.5176    1.0000 </r>
       <r>    4.7313    1.0000 </r>
       <r>    6.6630    1.0000 </r>
       <r>    6.8036    1.0000 </r>
       <r>    7.0601    1.0000 </r>
       <r>    7.7799    1.0000 </r>
       <r>    7.8282    1.0000 </r>
       <r>    7.9885    1.0000 </r>
       <r>    8.2838    0.8964 </r>
       <r>    8.6287    0.0000 </r>
       <r>    8.6675    0.0000 </r>
       <r>    8.9496    0.0000 </r>
       <r>    9.4287    0.0000 </r>
       <r>   10.2078    0.0000 </r>
       <r>   10.7980    0.0000 </r>
       <r>   11.1712    0.0000 </r>
       <r>   11.6987    0.0000 </r>
       <r>   14.2141    0.0000 </r>
       <r>   15.1282    0.0000 </r>
       <r>   15.2121    0.0000 </r>
       <r>   16.9861    0.0000 </r>
       <r>   17.6217    0.0000 </r>
      </set>
     </set>
    </set>
   </array>
  </eigenvalues>
  <separator name="orbital magnetization" >
   <v name="MAGDIPOLOUT">      0.00000000      0.00000000      0.00000000</v>
  </separator>
  <dos>
   <i name="efermi">      8.30168400 </i>
   <total>
    <array>
     <dimension dim="1">gridpoints</dimension>
     <dimension dim="2">spin</dimension>
     <field>energy</field>
     <field>total</field>
     <field>integrated</field>
     <set>
      <set comment="spin 1">
       <r>   -57.5196     0.0000     0.0000 </r>
       <r>   -57.2492     0.0000     0.0000 </r>
       <r>   -56.9787     0.0000     0.0000 </r>
       <r>   -56.7083     0.0000     0.0000 </r>
       <r>   -56.4378     0.0000     0.0000 </r>
       <r>   -56.1674     0.0000     0.0000 </r>
       <r>   -55.8969     0.0000     0.0000 </r>
       <r>   -55.6265     0.0000     0.0000 </r>
       <r>   -55.3561     0.0000     0.0000 </r>
       <r>   -55.0856     0.0000     0.0000 </r>
       <r>   -54.8152     0.0000     0.0000 </r>
       <r>   -54.5447     0.0000     0.0000 </r>
       <r>   -54.2743     0.0000     0.0000 </r>
       <r>   -54.0038     0.0000     0.0000 </r>
       <r>   -53.7334    14.7906     4.0000 </r>
       <r>   -53.4630     0.0000     4.0000 </r>
       <r>   -53.1925     0.0000     4.0000 </r>
       <r>   -52.9221     0.0000     4.0000 </r>
       <r>   -52.6516     0.0000     4.0000 </r>
       <r>   -52.3812     0.0000     4.0000 </r>
       <r>   -52.1107     0.0000     4.0000 </r>
       <r>   -51.8403     0.0000     4.0000 </r>
       <r>   -51.5699     0.0000     4.0000 </r>
       <r>   -51.2994     0.0000     4.0000 </r>
       <r>   -51.0290     0.0000     4.0000 </r>
       <r>   -50.7585     0.0000     4.0000 </r>
       <r>   -50.4881     0.0000     4.0000 </r>
       <r>   -50.2176     0.0000     4.0000 </r>
       <r>   -49.9472     0.0000     4.0000 </r>
       <r>   -49.6768     0.0000     4.0000 </r>
       <r>   -49.4063     0.0000     4.0000 </r>
       <r>   -49.1359     0.0000     4.0000 </r>
       <r>   -48.8654     0.0000     4.0000 </r>
       <r>   -48.5950     0.0000     4.0000 </r>
       <r>   -48.3245     0.0000     4.0000 </r>
       <r>   -48.0541     0.0000     4.0000 </r>
       <r>   -47.7837     0.0000     4.0000 </r>
       <r>   -47.5132     0.0000     4.0000 </r>
       <r>   -47.2428     0.0000     4.0000 </r>
       <r>   -46.9723     0.0000     4.0000 </r>
       <r>   -46.7019     0.0000     4.0000 </r>
       <r>   -46.4314     0.0000     4.0000 </r>
       <r>   -46.1610     0.0000     4.0000 </r>
       <r>   -45.8906     0.0000     4.0000 </r>
       <r>   -45.6201     0.0000     4.0000 </r>
       <r>   -45.3497     0.0000     4.0000 </r>
       <r>   -45.0792     0.0000     4.0000 </r>
       <r>   -44.8088     0.0000     4.0000 </r>
       <r>   -44.5383     0.0000     4.0000 </r>
       <r>   -44.2679     0.0000     4.0000 </r>
       <r>   -43.9975     0.0000     4.0000 </r>
       <r>   -43.7270     0.0000     4.0000 </r>
       <r>   -43.4566     0.0000     4.0000 </r>
       <r>   -43.1861     0.0000     4.0000 </r>
       <r>   -42.9157     0.0000     4.0000 </r>
       <r>   -42.6452     0.0000     4.0000 </r>
       <r>   -42.3748     0.0000     4.0000 </r>
       <r>   -42.1044     0.0000     4.0000 </r>
       <r>   -41.8339     0.0000     4.0000 </r>
       <r>   -41.5635     0.0000     4.0000 </r>
       <r>   -41.2930     0.0000     4.0000 </r>
       <r>   -41.0226     0.0000     4.0000 </r>
       <r>   -40.7521     0.0000     4.0000 </r>
       <r>   -40.4817     0.0000     4.0000 </r>
       <r>   -40.2113     0.0000     4.0000 </r>
       <r>   -39.9408     0.0000     4.0000 </r>
       <r>   -39.6704     0.0000     4.0000 </r>
       <r>   -39.3999     0.0000     4.0000 </r>
       <r>   -39.1295     0.0000     4.0000 </r>
       <r>   -38.8590     0.0000     4.0000 </r>
       <r>   -38.5886     0.0000     4.0000 </r>
       <r>   -38.3182     0.0000     4.0000 </r>
       <r>   -38.0477     0.0000     4.0000 </r>
       <r>   -37.7773     0.0000     4.0000 </r>
       <r>   -37.5068     0.0000     4.0000 </r>
       <r>   -37.2364     0.0000     4.0000 </r>
       <r>   -36.9659     0.0000     4.0000 </r>
       <r>   -36.6955     0.0000     4.0000 </r>
       <r>   -36.4251     0.0000     4.0000 </r>
       <r>   -36.1546     0.0000     4.0000 </r>
       <r>   -35.8842     0.0000     4.0000 </r>
       <r>   -35.6137     0.0000     4.0000 </r>
       <r>   -35.3433     0.0000     4.0000 </r>
       <r>   -35.0728     0.0000     4.0000 </r>
       <r>   -34.8024     0.0000     4.0000 </r>
       <r>   -34.5320     0.0000     4.0000 </r>
       <r>   -34.2615     0.0000     4.0000 </r>
       <r>   -33.9911     0.0000     4.0000 </r>
       <r>   -33.7206     0.0000     4.0000 </r>
       <r>   -33.4502     0.0000     4.0000 </r>
       <r>   -33.1797     0.0000     4.0000 </r>
       <r>   -32.9093     0.0000     4.0000 </r>
       <r>   -32.6389     0.0000     4.0000 </r>
       <r>   -32.3684     0.0000     4.0000 </r>
       <r>   -32.0980     0.0000     4.0000 </r>
       <r>   -31.8275     5.1381     5.3896 </r>
       <r>   -31.5571     0.0000    12.0000 </r>
       <r>   -31.2866     0.0000    12.0000 </r>
       <r>   -31.0162     0.0000    12.0000 </r>
       <r>   -30.7458     0.0000    12.0000 </r>
       <r>   -30.4753     0.0000    12.0000 </r>
       <r>   -30.2049     0.0000    12.0000 </r>
       <r>   -29.9344     0.0000    12.0000 </r>
       <r>   -29.6640     0.0000    12.0000 </r>
       <r>   -29.3935     0.0000    12.0000 </r>
       <r>   -29.1231     0.0000    12.0000 </r>
       <r>   -28.8527     0.0000    12.0000 </r>
       <r>   -28.5822     0.0000    12.0000 </r>
       <r>   -28.3118     0.0000    12.0000 </r>
       <r>   -28.0413     0.0000    12.0000 </r>
       <r>   -27.7709     0.0000    12.0000 </r>
       <r>   -27.5004     0.0000    12.0000 </r>
       <r>   -27.2300    14.2898    24.0000 </r>
       <r>   -26.9596     0.0000    24.0000 </r>
       <r>   -26.6891     0.0000    24.0000 </r>
       <r>   -26.4187     0.0000    24.0000 </r>
       <r>   -26.1482     0.0000    24.0000 </r>
       <r>   -25.8778     0.0000    24.0000 </r>
       <r>   -25.6073     0.0000    24.0000 </r>
       <r>   -25.3369     0.0000    24.0000 </r>
       <r>   -25.0665     0.0000    24.0000 </r>
       <r>   -24.7960     0.0000    24.0000 </r>
       <r>   -24.5256     0.0000    24.0000 </r>
       <r>   -24.2551     0.0000    24.0000 </r>
       <r>   -23.9847     0.0000    24.0000 </r>
       <r>   -23.7142     0.0000    24.0000 </r>
       <r>   -23.4438     0.0000    24.0000 </r>
       <r>   -23.1734     0.0000    24.0000 </r>
       <r>   -22.9029     0.0000    24.0000 </r>
       <r>   -22.6325     0.0000    24.0000 </r>
       <r>   -22.3620     0.0000    24.0000 </r>
       <r>   -22.0916     0.0000    24.0000 </r>
       <r>   -21.8211     0.0000    24.0000 </r>
       <r>   -21.5507     0.0000    24.0000 </r>
       <r>   -21.2803     0.0000    24.0000 </r>
       <r>   -21.0098     0.0000    24.0000 </r>
       <r>   -20.7394     0.0000    24.0000 </r>
       <r>   -20.4689     0.0000    24.0000 </r>
       <r>   -20.1985     0.0044    24.0012 </r>
       <r>   -19.9280     5.9569    25.9304 </r>
       <r>   -19.6576     8.6040    30.4345 </r>
       <r>   -19.3872    10.2476    35.0144 </r>
       <r>   -19.1167     8.1785    40.0000 </r>
       <r>   -18.8463    24.9718    48.0000 </r>
       <r>   -18.5758     0.0000    48.0000 </r>
       <r>   -18.3054     0.0000    48.0000 </r>
       <r>   -18.0349     0.0000    48.0000 </r>
       <r>   -17.7645     0.0000    48.0000 </r>
       <r>   -17.4941     0.0000    48.0000 </r>
       <r>   -17.2236     0.0000    48.0000 </r>
       <r>   -16.9532     0.0000    48.0000 </r>
       <r>   -16.6827     0.0000    48.0000 </r>
       <r>   -16.4123     0.0000    48.0000 </r>
       <r>   -16.1418     0.0000    48.0000 </r>
       <r>   -15.8714     0.0000    48.0000 </r>
       <r>   -15.6010     0.0000    48.0000 </r>
       <r>   -15.3305     0.0000    48.0000 </r>
       <r>   -15.0601     0.0000    48.0000 </r>
       <r>   -14.7896     0.0000    48.0000 </r>
       <r>   -14.5192     0.0000    48.0000 </r>
       <r>   -14.2487     0.0000    48.0000 </r>
       <r>   -13.9783     0.0000    48.0000 </r>
       <r>   -13.7079     0.0000    48.0000 </r>
       <r>   -13.4374     0.0000    48.0000 </r>
       <r>   -13.1670     0.0000    48.0000 </r>
       <r>   -12.8965     0.0000    48.0000 </r>
       <r>   -12.6261     0.0000    48.0000 </r>
       <r>   -12.3556     0.0000    48.0000 </r>
       <r>   -12.0852     0.0000    48.0000 </r>
       <r>   -11.8148     0.0000    48.0000 </r>
       <r>   -11.5443     0.0000    48.0000 </r>
       <r>   -11.2739     0.0000    48.0000 </r>
       <r>   -11.0034     0.0000    48.0000 </r>
       <r>   -10.7330     0.0000    48.0000 </r>
       <r>   -10.4625     0.0000    48.0000 </r>
       <r>   -10.1921     0.0000    48.0000 </r>
       <r>    -9.9217     0.0000    48.0000 </r>
       <r>    -9.6512     0.0000    48.0000 </r>
       <r>    -9.3808     0.0000    48.0000 </r>
       <r>    -9.1103     0.0000    48.0000 </r>
       <r>    -8.8399     0.0000    48.0000 </r>
       <r>    -8.5694     0.0000    48.0000 </r>
       <r>    -8.2990     0.0000    48.0000 </r>
       <r>    -8.0286     0.0000    48.0000 </r>
       <r>    -7.7581     0.0000    48.0000 </r>
       <r>    -7.4877     0.0000    48.0000 </r>
       <r>    -7.2172     0.0000    48.0000 </r>
       <r>    -6.9468     0.0000    48.0000 </r>
       <r>    -6.6763     0.0000    48.0000 </r>
       <r>    -6.4059     0.0000    48.0000 </r>
       <r>    -6.1355     0.0000    48.0000 </r>
       <r>    -5.8650     0.0000    48.0000 </r>
       <r>    -5.5946     0.0000    48.0000 </r>
       <r>    -5.3241     0.0000    48.0000 </r>
       <r>    -5.0537     0.0000    48.0000 </r>
       <r>    -4.7832     0.0000    48.0000 </r>
       <r>    -4.5128     0.0000    48.0000 </r>
       <r>    -4.2424     0.0000    48.0000 </r>
       <r>    -3.9719     0.0000    48.0000 </r>
       <r>    -3.7015     0.0000    48.0000 </r>
       <r>    -3.4310     0.0123    48.0033 </r>
       <r>    -3.1606     0.2004    48.0993 </r>
       <r>    -2.8901     0.2081    48.2611 </r>
       <r>    -2.6197     0.5150    48.5594 </r>
       <r>    -2.3493     1.2233    48.9871 </r>
       <r>    -2.0788     1.0737    49.4050 </r>
       <r>    -1.8084     1.4814    50.0361 </r>
       <r>    -1.5379     0.8254    50.4732 </r>
       <r>    -1.2675     1.0854    51.0852 </r>
       <r>    -0.9970     1.3585    51.6035 </r>
       <r>    -0.7266     0.5579    51.9425 </r>
       <r>    -0.4562     1.0931    52.4484 </r>
       <r>    -0.1857     1.8122    53.3026 </r>
       <r>     0.0847     2.2379    54.4455 </r>
       <r>     0.3552     2.8720    55.5441 </r>
       <r>     0.6256     4.3435    57.3205 </r>
       <r>     0.8961     5.8278    59.8330 </r>
       <r>     1.1665     4.7810    62.0465 </r>
       <r>     1.4369     5.2590    64.4362 </r>
       <r>     1.7074     5.4093    66.7789 </r>
       <r>     1.9778     6.1779    69.2923 </r>
       <r>     2.2483     7.5118    72.8058 </r>
       <r>     2.5187     6.1094    75.8883 </r>
       <r>     2.7892     7.8097    79.3586 </r>
       <r>     3.0596    11.7378    84.4487 </r>
       <r>     3.3300     5.2998    87.2041 </r>
       <r>     3.6005     1.5773    88.2495 </r>
       <r>     3.8709     1.6297    88.8123 </r>
       <r>     4.1414     1.4560    89.4632 </r>
       <r>     4.4118     2.3240    90.5313 </r>
       <r>     4.6823     1.4081    91.2905 </r>
       <r>     4.9527     0.9682    91.7514 </r>
       <r>     5.2231     0.2821    91.9686 </r>
       <r>     5.4936     0.1795    92.0346 </r>
       <r>     5.7640     0.0989    92.0823 </r>
       <r>     6.0345     0.9728    92.3638 </r>
       <r>     6.3049     0.8667    92.8837 </r>
       <r>     6.5754     1.9379    93.6873 </r>
       <r>     6.8458     3.3558    95.1055 </r>
       <r>     7.1162     3.8964    96.7656 </r>
       <r>     7.3867     3.4590    98.4250 </r>
       <r>     7.6571     3.5980    99.9592 </r>
       <r>     7.9276     5.5530   102.0330 </r>
       <r>     8.1980     5.5979   104.8438 </r>
       <r>     8.4685     4.1027   107.1721 </r>
       <r>     8.7389     4.9246   109.4117 </r>
       <r>     9.0093     6.5891   112.1986 </r>
       <r>     9.2798     2.3966   113.4294 </r>
       <r>     9.5502     1.5402   114.1908 </r>
       <r>     9.8207     1.1638   114.7661 </r>
       <r>    10.0911     0.9566   115.2309 </r>
       <r>    10.3616     0.9381   115.6391 </r>
       <r>    10.6320     0.6800   115.9096 </r>
       <r>    10.9024     2.2446   116.6452 </r>
       <r>    11.1729     1.9002   117.4202 </r>
       <r>    11.4433     1.5772   118.1488 </r>
       <r>    11.7138     1.4600   118.8532 </r>
       <r>    11.9842     1.0198   119.3175 </r>
       <r>    12.2547     0.9922   119.8169 </r>
       <r>    12.5251     1.5758   120.4088 </r>
       <r>    12.7955     1.1716   120.9662 </r>
       <r>    13.0660     0.9742   121.4197 </r>
       <r>    13.3364     1.1051   121.9864 </r>
       <r>    13.6069     1.2348   122.5076 </r>
       <r>    13.8773     1.1449   122.9902 </r>
       <r>    14.1478     1.3427   123.6062 </r>
       <r>    14.4182     1.3598   124.2497 </r>
       <r>    14.6886     0.8347   124.6320 </r>
       <r>    14.9591     1.4215   125.1518 </r>
       <r>    15.2295     1.7088   125.9205 </r>
       <r>    15.5000     2.4787   127.1426 </r>
       <r>    15.7704     0.6910   127.6417 </r>
       <r>    16.0409     0.5236   127.9228 </r>
       <r>    16.3113     1.0012   128.2951 </r>
       <r>    16.5817     1.1023   128.9474 </r>
       <r>    16.8522     1.9442   129.7654 </r>
       <r>    17.1226     2.1127   130.6790 </r>
       <r>    17.3931     1.0035   131.1880 </r>
       <r>    17.6635     0.4853   131.4368 </r>
       <r>    17.9340     0.3695   131.6208 </r>
       <r>    18.2044     0.2655   131.7801 </r>
       <r>    18.4748     0.1998   131.8388 </r>
       <r>    18.7453     0.0693   131.8903 </r>
       <r>    19.0157     0.1014   131.9337 </r>
       <r>    19.2862     0.0447   131.9531 </r>
       <r>    19.5566     0.0514   131.9826 </r>
       <r>    19.8271     0.0470   131.9954 </r>
       <r>    20.0975     0.0000   132.0000 </r>
       <r>    20.3679     0.0000   132.0000 </r>
       <r>    20.6384     0.0000   132.0000 </r>
       <r>    20.9088     0.0000   132.0000 </r>
       <r>    21.1793     0.0000   132.0000 </r>
       <r>    21.4497     0.0000   132.0000 </r>
       <r>    21.7202     0.0000   132.0000 </r>
       <r>    21.9906     0.0000   132.0000 </r>
       <r>    22.2610     0.0000   132.0000 </r>
       <r>    22.5315     0.0000   132.0000 </r>
       <r>    22.8019     0.0000   132.0000 </r>
       <r>    23.0724     0.0000   132.0000 </r>
       <r>    23.3428     0.0000   132.0000 </r>
       <r>    23.6133     0.0000   132.0000 </r>
      </set>
     </set>
    </array>
   </total>
  </dos>
 </calculation>
 <structure name="finalpos" >
  <crystal>
   <varray name="basis" >
    <v>       4.89811064       0.00000000      -2.80676402 </v>
    <v>      -1.64507334       4.61359096      -2.80676402 </v>
    <v>       0.00000000       0.00000000       5.64530000 </v>
   </varray>
   <i name="volume">    127.57180605 </i>
   <varray name="rec_basis" >
    <v>       0.20416035       0.07279769       0.00000000 </v>
    <v>       0.00000000       0.21675090       0.00000000 </v>
    <v>       0.10150567       0.14395950       0.17713850 </v>
   </varray>
  </crystal>
  <varray name="positions" >
   <v>       0.00000000       0.00000000       0.00000000 </v>
   <v>       0.50000000       0.50000000       0.00000000 </v>
   <v>       0.25000000       0.25000000       0.00000000 </v>
   <v>       0.73866000       0.23866000       0.97732000 </v>
   <v>       0.75000000       0.75000000       0.00000000 </v>
   <v>       0.26134000       0.76134000       0.02268000 </v>
   <v>       0.23866000       0.26134000       0.50000000 </v>
   <v>       0.76134000       0.73866000       0.50000000 </v>
   <v>       0.24066000       0.74066000       0.98133000 </v>
   <v>       0.75934000       0.25934000       0.01867000 </v>
   <v>       0.74066000       0.75934000       0.50000000 </v>
   <v>       0.25934000       0.24066000       0.50000000 </v>
  </varray>
 </structure>
</modeling>
