<?xml version="1.0" encoding="ISO-8859-1"?>
<modeling>
 <generator>
  <i name="program" type="string">vasp </i>
  <i name="version" type="string">6.2.0  </i>
  <i name="subversion" type="string">18Jan21 (build Jan 05 2022 15:41:44) complex                          parallel </i>
  <i name="platform" type="string">LinuxIFC </i>
  <i name="date" type="string">2025 05 07 </i>
  <i name="time" type="string">14:20:51 </i>
 </generator>
 <incar>
  <i type="string" name="SYSTEM">routine with relax: pwdword</i>
  <i type="string" name="PREC">Acc</i>
  <i type="int" name="IALGO">    38</i>
  <i type="string" name="ALGO">A</i>
  <i type="logical" name="ADDGRID"> T  </i>
  <i type="int" name="ICHARG">     2</i>
  <i type="int" name="NELM">   100</i>
  <i type="int" name="NELMIN">     6</i>
  <i name="EDIFF">      0.00000000</i>
  <i type="int" name="NSW">     0</i>
  <i type="int" name="ISIF">    -1</i>
  <i name="ENCUT">    600.00000000</i>
  <i type="logical" name="LREAL"> F  </i>
  <i type="int" name="ISMEAR">     0</i>
  <i name="SIGMA">      0.02000000</i>
  <i type="logical" name="LASPH"> T  </i>
  <i type="string" name="METAGGA">R2SCAN</i>
  <i type="logical" name="LMIXTAU"> F  </i>
 </incar>
 <primitive_cell>
  <structure name="primitive_cell" >
   <crystal>
    <varray name="basis" >
     <v>       4.80312993       0.00000000      -2.73210697 </v>
     <v>      -1.62490337       4.51992768      -2.73210697 </v>
     <v>       0.00000000       0.00000000       5.52580000 </v>
    </varray>
    <i name="volume">    119.96401245 </i>
    <varray name="rec_basis" >
     <v>       0.20819757       0.07484654       0.00000000 </v>
     <v>       0.00000000       0.22124248       0.00000000 </v>
     <v>       0.10293859       0.14639452       0.18096927 </v>
    </varray>
   </crystal>
   <varray name="positions" >
    <v>       0.25000000       0.25000000       0.00000000 </v>
    <v>       0.75000000       0.75000000       0.00000000 </v>
    <v>       0.00000000       0.50000000       1.00000000 </v>
    <v>       0.00000000       0.00000000       0.00000000 </v>
    <v>       0.50000000       0.50000000       0.50000000 </v>
    <v>       0.50000000       0.00000000       0.00000000 </v>
    <v>       0.00000000       0.00000000       0.50000000 </v>
    <v>       0.50000000       0.50000000       0.00000000 </v>
    <v>       0.48613000       0.98613000       0.47226000 </v>
    <v>       0.00000000       0.50000000       0.50000000 </v>
   </varray>
  </structure>
  <varray name="primitive_index" >
   <v type="int" >        1 </v>
   <v type="int" >        2 </v>
   <v type="int" >        3 </v>
   <v type="int" >        4 </v>
   <v type="int" >        5 </v>
   <v type="int" >        6 </v>
   <v type="int" >        7 </v>
   <v type="int" >        8 </v>
   <v type="int" >        9 </v>
   <v type="int" >       10 </v>
  </varray>
 </primitive_cell>
 <kpoints>
  <generation param="Gamma">
   <v type="int" name="divisions">       8        8        9 </v>
   <v name="usershift">      0.00000000       0.00000000       0.00000000 </v>
   <v name="genvec1">      0.12500000       0.00000000       0.00000000 </v>
   <v name="genvec2">      0.00000000       0.12500000       0.00000000 </v>
   <v name="genvec3">      0.00000000      -0.00000000       0.11111111 </v>
   <v name="shift">      0.00000000       0.00000000       0.00000000 </v>
  </generation>
  <varray name="kpointlist" >
   <v>       0.00000000       0.00000000       0.00000000 </v>
   <v>       0.12500000      -0.00000000       0.00000000 </v>
   <v>       0.25000000      -0.00000000       0.00000000 </v>
   <v>       0.37500000      -0.00000000       0.00000000 </v>
   <v>       0.50000000      -0.00000000       0.00000000 </v>
   <v>       0.12500000       0.12500000       0.00000000 </v>
   <v>       0.25000000       0.12500000       0.00000000 </v>
   <v>       0.37500000       0.12500000       0.00000000 </v>
   <v>       0.50000000       0.12500000       0.00000000 </v>
   <v>      -0.37500000       0.12500000       0.00000000 </v>
   <v>      -0.25000000       0.12500000       0.00000000 </v>
   <v>      -0.12500000       0.12500000       0.00000000 </v>
   <v>       0.25000000       0.25000000       0.00000000 </v>
   <v>       0.37500000       0.25000000       0.00000000 </v>
   <v>       0.50000000       0.25000000       0.00000000 </v>
   <v>      -0.37500000       0.25000000       0.00000000 </v>
   <v>      -0.25000000       0.25000000       0.00000000 </v>
   <v>       0.37500000       0.37500000       0.00000000 </v>
   <v>       0.50000000       0.37500000       0.00000000 </v>
   <v>      -0.37500000       0.37500000       0.00000000 </v>
   <v>       0.50000000       0.50000000       0.00000000 </v>
   <v>      -0.00000000      -0.00000000       0.11111111 </v>
   <v>       0.12500000      -0.00000000       0.11111111 </v>
   <v>       0.25000000      -0.00000000       0.11111111 </v>
   <v>       0.37500000      -0.00000000       0.11111111 </v>
   <v>       0.50000000      -0.00000000       0.11111111 </v>
   <v>      -0.37500000      -0.00000000       0.11111111 </v>
   <v>      -0.25000000       0.00000000       0.11111111 </v>
   <v>      -0.12500000       0.00000000       0.11111111 </v>
   <v>       0.12500000       0.12500000       0.11111111 </v>
   <v>       0.25000000       0.12500000       0.11111111 </v>
   <v>       0.37500000       0.12500000       0.11111111 </v>
   <v>       0.50000000       0.12500000       0.11111111 </v>
   <v>      -0.37500000       0.12500000       0.11111111 </v>
   <v>      -0.25000000       0.12500000       0.11111111 </v>
   <v>      -0.12500000       0.12500000       0.11111111 </v>
   <v>       0.25000000       0.25000000       0.11111111 </v>
   <v>       0.37500000       0.25000000       0.11111111 </v>
   <v>       0.50000000       0.25000000       0.11111111 </v>
   <v>      -0.37500000       0.25000000       0.11111111 </v>
   <v>      -0.25000000       0.25000000       0.11111111 </v>
   <v>      -0.12500000       0.25000000       0.11111111 </v>
   <v>       0.37500000       0.37500000       0.11111111 </v>
   <v>       0.50000000       0.37500000       0.11111111 </v>
   <v>      -0.37500000       0.37500000       0.11111111 </v>
   <v>      -0.25000000       0.37500000       0.11111111 </v>
   <v>      -0.12500000       0.37500000       0.11111111 </v>
   <v>       0.50000000       0.50000000       0.11111111 </v>
   <v>      -0.37500000       0.50000000       0.11111111 </v>
   <v>      -0.25000000       0.50000000       0.11111111 </v>
   <v>      -0.12500000       0.50000000       0.11111111 </v>
   <v>      -0.37500000      -0.37500000       0.11111111 </v>
   <v>      -0.25000000      -0.37500000       0.11111111 </v>
   <v>      -0.12500000      -0.37500000       0.11111111 </v>
   <v>      -0.25000000      -0.25000000       0.11111111 </v>
   <v>      -0.12500000      -0.25000000       0.11111111 </v>
   <v>      -0.12500000      -0.12500000       0.11111111 </v>
   <v>       0.00000000      -0.00000000       0.22222222 </v>
   <v>       0.12500000      -0.00000000       0.22222222 </v>
   <v>       0.25000000      -0.00000000       0.22222222 </v>
   <v>       0.37500000      -0.00000000       0.22222222 </v>
   <v>       0.50000000      -0.00000000       0.22222222 </v>
   <v>      -0.37500000      -0.00000000       0.22222222 </v>
   <v>      -0.25000000      -0.00000000       0.22222222 </v>
   <v>      -0.12500000       0.00000000       0.22222222 </v>
   <v>       0.12500000       0.12500000       0.22222222 </v>
   <v>       0.25000000       0.12500000       0.22222222 </v>
   <v>       0.37500000       0.12500000       0.22222222 </v>
   <v>       0.50000000       0.12500000       0.22222222 </v>
   <v>      -0.37500000       0.12500000       0.22222222 </v>
   <v>      -0.25000000       0.12500000       0.22222222 </v>
   <v>      -0.12500000       0.12500000       0.22222222 </v>
   <v>       0.25000000       0.25000000       0.22222222 </v>
   <v>       0.37500000       0.25000000       0.22222222 </v>
   <v>       0.50000000       0.25000000       0.22222222 </v>
   <v>      -0.37500000       0.25000000       0.22222222 </v>
   <v>      -0.25000000       0.25000000       0.22222222 </v>
   <v>      -0.12500000       0.25000000       0.22222222 </v>
   <v>       0.37500000       0.37500000       0.22222222 </v>
   <v>       0.50000000       0.37500000       0.22222222 </v>
   <v>      -0.37500000       0.37500000       0.22222222 </v>
   <v>      -0.25000000       0.37500000       0.22222222 </v>
   <v>      -0.12500000       0.37500000       0.22222222 </v>
   <v>       0.50000000       0.50000000       0.22222222 </v>
   <v>      -0.37500000       0.50000000       0.22222222 </v>
   <v>      -0.25000000       0.50000000       0.22222222 </v>
   <v>      -0.12500000       0.50000000       0.22222222 </v>
   <v>      -0.37500000      -0.37500000       0.22222222 </v>
   <v>      -0.25000000      -0.37500000       0.22222222 </v>
   <v>      -0.12500000      -0.37500000       0.22222222 </v>
   <v>      -0.25000000      -0.25000000       0.22222222 </v>
   <v>      -0.12500000      -0.25000000       0.22222222 </v>
   <v>      -0.12500000      -0.12500000       0.22222222 </v>
   <v>      -0.00000000       0.00000000       0.33333333 </v>
   <v>       0.12500000       0.00000000       0.33333333 </v>
   <v>       0.25000000       0.00000000       0.33333333 </v>
   <v>       0.37500000      -0.00000000       0.33333333 </v>
   <v>       0.50000000      -0.00000000       0.33333333 </v>
   <v>      -0.37500000       0.00000000       0.33333333 </v>
   <v>      -0.25000000       0.00000000       0.33333333 </v>
   <v>      -0.12500000       0.00000000       0.33333333 </v>
   <v>       0.12500000       0.12500000       0.33333333 </v>
   <v>       0.25000000       0.12500000       0.33333333 </v>
   <v>       0.37500000       0.12500000       0.33333333 </v>
   <v>       0.50000000       0.12500000       0.33333333 </v>
   <v>      -0.37500000       0.12500000       0.33333333 </v>
   <v>      -0.25000000       0.12500000       0.33333333 </v>
   <v>      -0.12500000       0.12500000       0.33333333 </v>
   <v>       0.25000000       0.25000000       0.33333333 </v>
   <v>       0.37500000       0.25000000       0.33333333 </v>
   <v>       0.50000000       0.25000000       0.33333333 </v>
   <v>      -0.37500000       0.25000000       0.33333333 </v>
   <v>      -0.25000000       0.25000000       0.33333333 </v>
   <v>      -0.12500000       0.25000000       0.33333333 </v>
   <v>       0.37500000       0.37500000       0.33333333 </v>
   <v>       0.50000000       0.37500000       0.33333333 </v>
   <v>      -0.37500000       0.37500000       0.33333333 </v>
   <v>      -0.25000000       0.37500000       0.33333333 </v>
   <v>      -0.12500000       0.37500000       0.33333333 </v>
   <v>       0.50000000       0.50000000       0.33333333 </v>
   <v>      -0.37500000       0.50000000       0.33333333 </v>
   <v>      -0.25000000       0.50000000       0.33333333 </v>
   <v>      -0.12500000       0.50000000       0.33333333 </v>
   <v>      -0.37500000      -0.37500000       0.33333333 </v>
   <v>      -0.25000000      -0.37500000       0.33333333 </v>
   <v>      -0.12500000      -0.37500000       0.33333333 </v>
   <v>      -0.25000000      -0.25000000       0.33333333 </v>
   <v>      -0.12500000      -0.25000000       0.33333333 </v>
   <v>      -0.12500000      -0.12500000       0.33333333 </v>
   <v>       0.00000000      -0.00000000       0.44444444 </v>
   <v>       0.12500000      -0.00000000       0.44444444 </v>
   <v>       0.25000000      -0.00000000       0.44444444 </v>
   <v>       0.37500000      -0.00000000       0.44444444 </v>
   <v>       0.50000000      -0.00000000       0.44444444 </v>
   <v>      -0.37500000      -0.00000000       0.44444444 </v>
   <v>      -0.25000000       0.00000000       0.44444444 </v>
   <v>      -0.12500000      -0.00000000       0.44444444 </v>
   <v>       0.12500000       0.12500000       0.44444444 </v>
   <v>       0.25000000       0.12500000       0.44444444 </v>
   <v>       0.37500000       0.12500000       0.44444444 </v>
   <v>       0.50000000       0.12500000       0.44444444 </v>
   <v>      -0.37500000       0.12500000       0.44444444 </v>
   <v>      -0.25000000       0.12500000       0.44444444 </v>
   <v>      -0.12500000       0.12500000       0.44444444 </v>
   <v>       0.25000000       0.25000000       0.44444444 </v>
   <v>       0.37500000       0.25000000       0.44444444 </v>
   <v>       0.50000000       0.25000000       0.44444444 </v>
   <v>      -0.37500000       0.25000000       0.44444444 </v>
   <v>      -0.25000000       0.25000000       0.44444444 </v>
   <v>      -0.12500000       0.25000000       0.44444444 </v>
   <v>       0.37500000       0.37500000       0.44444444 </v>
   <v>       0.50000000       0.37500000       0.44444444 </v>
   <v>      -0.37500000       0.37500000       0.44444444 </v>
   <v>      -0.25000000       0.37500000       0.44444444 </v>
   <v>      -0.12500000       0.37500000       0.44444444 </v>
   <v>       0.50000000       0.50000000       0.44444444 </v>
   <v>      -0.37500000       0.50000000       0.44444444 </v>
   <v>      -0.25000000       0.50000000       0.44444444 </v>
   <v>      -0.12500000       0.50000000       0.44444444 </v>
   <v>      -0.37500000      -0.37500000       0.44444444 </v>
   <v>      -0.25000000      -0.37500000       0.44444444 </v>
   <v>      -0.12500000      -0.37500000       0.44444444 </v>
   <v>      -0.25000000      -0.25000000       0.44444444 </v>
   <v>      -0.12500000      -0.25000000       0.44444444 </v>
   <v>      -0.12500000      -0.12500000       0.44444444 </v>
  </varray>
  <varray name="weights" >
   <v>       0.00173611 </v>
   <v>       0.00694444 </v>
   <v>       0.00694444 </v>
   <v>       0.00694444 </v>
   <v>       0.00347222 </v>
   <v>       0.00347222 </v>
   <v>       0.00694444 </v>
   <v>       0.00694444 </v>
   <v>       0.00694444 </v>
   <v>       0.00694444 </v>
   <v>       0.00694444 </v>
   <v>       0.00347222 </v>
   <v>       0.00347222 </v>
   <v>       0.00694444 </v>
   <v>       0.00694444 </v>
   <v>       0.00694444 </v>
   <v>       0.00347222 </v>
   <v>       0.00347222 </v>
   <v>       0.00694444 </v>
   <v>       0.00347222 </v>
   <v>       0.00173611 </v>
   <v>       0.00347222 </v>
   <v>       0.00694444 </v>
   <v>       0.00694444 </v>
   <v>       0.00694444 </v>
   <v>       0.00694444 </v>
   <v>       0.00694444 </v>
   <v>       0.00694444 </v>
   <v>       0.00694444 </v>
   <v>       0.00347222 </v>
   <v>       0.00694444 </v>
   <v>       0.00694444 </v>
   <v>       0.00694444 </v>
   <v>       0.00694444 </v>
   <v>       0.00694444 </v>
   <v>       0.00694444 </v>
   <v>       0.00347222 </v>
   <v>       0.00694444 </v>
   <v>       0.00694444 </v>
   <v>       0.00694444 </v>
   <v>       0.00694444 </v>
   <v>       0.00694444 </v>
   <v>       0.00347222 </v>
   <v>       0.00694444 </v>
   <v>       0.00694444 </v>
   <v>       0.00694444 </v>
   <v>       0.00694444 </v>
   <v>       0.00347222 </v>
   <v>       0.00694444 </v>
   <v>       0.00694444 </v>
   <v>       0.00694444 </v>
   <v>       0.00347222 </v>
   <v>       0.00694444 </v>
   <v>       0.00694444 </v>
   <v>       0.00347222 </v>
   <v>       0.00694444 </v>
   <v>       0.00347222 </v>
   <v>       0.00347222 </v>
   <v>       0.00694444 </v>
   <v>       0.00694444 </v>
   <v>       0.00694444 </v>
   <v>       0.00694444 </v>
   <v>       0.00694444 </v>
   <v>       0.00694444 </v>
   <v>       0.00694444 </v>
   <v>       0.00347222 </v>
   <v>       0.00694444 </v>
   <v>       0.00694444 </v>
   <v>       0.00694444 </v>
   <v>       0.00694444 </v>
   <v>       0.00694444 </v>
   <v>       0.00694444 </v>
   <v>       0.00347222 </v>
   <v>       0.00694444 </v>
   <v>       0.00694444 </v>
   <v>       0.00694444 </v>
   <v>       0.00694444 </v>
   <v>       0.00694444 </v>
   <v>       0.00347222 </v>
   <v>       0.00694444 </v>
   <v>       0.00694444 </v>
   <v>       0.00694444 </v>
   <v>       0.00694444 </v>
   <v>       0.00347222 </v>
   <v>       0.00694444 </v>
   <v>       0.00694444 </v>
   <v>       0.00694444 </v>
   <v>       0.00347222 </v>
   <v>       0.00694444 </v>
   <v>       0.00694444 </v>
   <v>       0.00347222 </v>
   <v>       0.00694444 </v>
   <v>       0.00347222 </v>
   <v>       0.00347222 </v>
   <v>       0.00694444 </v>
   <v>       0.00694444 </v>
   <v>       0.00694444 </v>
   <v>       0.00694444 </v>
   <v>       0.00694444 </v>
   <v>       0.00694444 </v>
   <v>       0.00694444 </v>
   <v>       0.00347222 </v>
   <v>       0.00694444 </v>
   <v>       0.00694444 </v>
   <v>       0.00694444 </v>
   <v>       0.00694444 </v>
   <v>       0.00694444 </v>
   <v>       0.00694444 </v>
   <v>       0.00347222 </v>
   <v>       0.00694444 </v>
   <v>       0.00694444 </v>
   <v>       0.00694444 </v>
   <v>       0.00694444 </v>
   <v>       0.00694444 </v>
   <v>       0.00347222 </v>
   <v>       0.00694444 </v>
   <v>       0.00694444 </v>
   <v>       0.00694444 </v>
   <v>       0.00694444 </v>
   <v>       0.00347222 </v>
   <v>       0.00694444 </v>
   <v>       0.00694444 </v>
   <v>       0.00694444 </v>
   <v>       0.00347222 </v>
   <v>       0.00694444 </v>
   <v>       0.00694444 </v>
   <v>       0.00347222 </v>
   <v>       0.00694444 </v>
   <v>       0.00347222 </v>
   <v>       0.00347222 </v>
   <v>       0.00694444 </v>
   <v>       0.00694444 </v>
   <v>       0.00694444 </v>
   <v>       0.00694444 </v>
   <v>       0.00694444 </v>
   <v>       0.00694444 </v>
   <v>       0.00694444 </v>
   <v>       0.00347222 </v>
   <v>       0.00694444 </v>
   <v>       0.00694444 </v>
   <v>       0.00694444 </v>
   <v>       0.00694444 </v>
   <v>       0.00694444 </v>
   <v>       0.00694444 </v>
   <v>       0.00347222 </v>
   <v>       0.00694444 </v>
   <v>       0.00694444 </v>
   <v>       0.00694444 </v>
   <v>       0.00694444 </v>
   <v>       0.00694444 </v>
   <v>       0.00347222 </v>
   <v>       0.00694444 </v>
   <v>       0.00694444 </v>
   <v>       0.00694444 </v>
   <v>       0.00694444 </v>
   <v>       0.00347222 </v>
   <v>       0.00694444 </v>
   <v>       0.00694444 </v>
   <v>       0.00694444 </v>
   <v>       0.00347222 </v>
   <v>       0.00694444 </v>
   <v>       0.00694444 </v>
   <v>       0.00347222 </v>
   <v>       0.00694444 </v>
   <v>       0.00347222 </v>
  </varray>
 </kpoints>
 <parameters>
  <separator name="general" >
   <i type="string" name="SYSTEM">routine with relax: pwdword</i>
   <i type="logical" name="LCOMPAT"> F  </i>
  </separator>
  <separator name="electronic" >
   <i type="string" name="PREC">acc</i>
   <i name="ENMAX">    600.00000000</i>
   <i name="ENAUG">    535.51400000</i>
   <i name="EDIFF">      0.00000000</i>
   <i type="int" name="IALGO">    58</i>
   <i type="int" name="IWAVPR">    10</i>
   <i type="int" name="NBANDS">    60</i>
   <i type="int" name="NBANDSLOW">    -1</i>
   <i type="int" name="NBANDSHIGH">    -1</i>
   <i name="NELECT">     98.00000000</i>
   <i type="int" name="TURBO">     0</i>
   <i type="int" name="IRESTART">     0</i>
   <i type="int" name="NREBOOT">     0</i>
   <i type="int" name="NMIN">     0</i>
   <i name="EREF">      0.00000000</i>
   <separator name="electronic smearing" >
    <i type="int" name="ISMEAR">     0</i>
    <i name="SIGMA">      0.02000000</i>
    <i name="KSPACING">      0.50000000</i>
    <i type="logical" name="KGAMMA"> T  </i>
    <i type="logical" name="KBLOWUP"> F  </i>
   </separator>
   <separator name="electronic projectors" >
    <i type="logical" name="LREAL"> F  </i>
    <v name="ROPT">      0.00000000      0.00000000      0.00000000</v>
    <i type="int" name="LMAXPAW">  -100</i>
    <i type="int" name="LMAXMIX">     2</i>
    <i type="logical" name="NLSPLINE"> F  </i>
   </separator>
   <separator name="electronic startup" >
    <i type="int" name="ISTART">     0</i>
    <i type="int" name="ICHARG">     2</i>
    <i type="int" name="INIWAV">     1</i>
   </separator>
   <separator name="electronic spin" >
    <i type="int" name="ISPIN">     1</i>
    <i type="logical" name="LNONCOLLINEAR"> F  </i>
    <v name="MAGMOM">      1.00000000      1.00000000      1.00000000      1.00000000      1.00000000      1.00000000      1.00000000      1.00000000      1.00000000      1.00000000</v>
    <i name="NUPDOWN">     -1.00000000</i>
    <i type="logical" name="LSORBIT"> F  </i>
    <v name="SAXIS">      0.00000000      0.00000000      1.00000000</v>
    <i type="logical" name="LSPIRAL"> F  </i>
    <v name="QSPIRAL">      0.00000000      0.00000000      0.00000000</v>
    <i type="logical" name="LZEROZ"> F  </i>
   </separator>
   <separator name="electronic exchange-correlation" >
    <i type="logical" name="LASPH"> T  </i>
    <i type="logical" name="LMETAGGA"> F  </i>
   </separator>
   <separator name="electronic convergence" >
    <i type="int" name="NELM">   100</i>
    <i type="int" name="NELMDL">    -5</i>
    <i type="int" name="NELMIN">     6</i>
    <i name="ENINI">    600.00000000</i>
    <separator name="electronic convergence detail" >
     <i type="logical" name="LDIAG"> T  </i>
     <i type="logical" name="LSUBROT"> F  </i>
     <i name="WEIMIN">      0.00000000</i>
     <i name="EBREAK">      0.00000000</i>
     <i name="DEPER">      0.30000000</i>
     <i type="int" name="NRMM">     4</i>
     <i name="TIME">      0.40000000</i>
    </separator>
   </separator>
   <separator name="electronic mixer" >
    <i name="AMIX">      0.40000000</i>
    <i name="BMIX">      1.00000000</i>
    <i name="AMIN">      0.10000000</i>
    <i name="AMIX_MAG">      1.60000000</i>
    <i name="BMIX_MAG">      1.00000000</i>
    <separator name="electronic mixer details" >
     <i type="int" name="IMIX">     4</i>
     <i type="logical" name="MIXFIRST"> F  </i>
     <i type="int" name="MAXMIX">   -45</i>
     <i name="WC">    100.00000000</i>
     <i type="int" name="INIMIX">     1</i>
     <i type="int" name="MIXPRE">     1</i>
     <i type="int" name="MREMOVE">     5</i>
    </separator>
   </separator>
   <separator name="electronic dipolcorrection" >
    <i type="logical" name="LDIPOL"> F  </i>
    <i type="logical" name="LMONO"> F  </i>
    <i type="int" name="IDIPOL">     0</i>
    <i name="EPSILON">      1.00000000</i>
    <v name="DIPOL">   -100.00000000   -100.00000000   -100.00000000</v>
    <i name="EFIELD">      0.00000000</i>
   </separator>
  </separator>
  <separator name="grids" >
   <i type="int" name="NGX">    48</i>
   <i type="int" name="NGY">    48</i>
   <i type="int" name="NGZ">    48</i>
   <i type="int" name="NGXF">    96</i>
   <i type="int" name="NGYF">    96</i>
   <i type="int" name="NGZF">    96</i>
   <i type="logical" name="ADDGRID"> T  </i>
  </separator>
  <separator name="ionic" >
   <i type="int" name="NSW">     0</i>
   <i type="int" name="IBRION">    -1</i>
   <i type="int" name="MDALGO">     0</i>
   <i type="int" name="ISIF">    -1</i>
   <i name="PSTRESS">      0.00000000</i>
   <i name="EDIFFG">      0.00000001</i>
   <i type="int" name="NFREE">     0</i>
   <i name="POTIM">      0.50000000</i>
   <i name="SMASS">     -3.00000000</i>
   <i name="SCALEE">      1.00000000</i>
  </separator>
  <separator name="ionic md" >
   <i name="TEBEG">      0.00010000</i>
   <i name="TEEND">      0.00010000</i>
   <i type="int" name="NBLOCK">     1</i>
   <i type="int" name="KBLOCK">     1</i>
   <i type="int" name="NPACO">   256</i>
   <i name="APACO">     16.00000000</i>
  </separator>
  <separator name="symmetry" >
   <i type="int" name="ISYM">     2</i>
   <i name="SYMPREC">      0.00001000</i>
  </separator>
  <separator name="dos" >
   <i type="int" name="LORBIT">     0</i>
   <v name="RWIGS">     -1.00000000     -1.00000000     -1.00000000</v>
   <i type="int" name="NEDOS">   301</i>
   <i name="EMIN">     10.00000000</i>
   <i name="EMAX">    -10.00000000</i>
   <i name="EFERMI">      0.00000000</i>
  </separator>
  <separator name="writing" >
   <i type="int" name="NWRITE">     2</i>
   <i type="logical" name="LWAVE"> T  </i>
   <i type="logical" name="LDOWNSAMPLE"> F  </i>
   <i type="logical" name="LCHARG"> T  </i>
   <i type="logical" name="LPARD"> F  </i>
   <i type="logical" name="LVTOT"> F  </i>
   <i type="logical" name="LVHAR"> F  </i>
   <i type="logical" name="LELF"> F  </i>
   <i type="logical" name="LOPTICS"> F  </i>
   <v name="STM">      0.00000000      0.00000000      0.00000000      0.00000000      0.00000000      0.00000000      0.00000000</v>
  </separator>
  <separator name="performance" >
   <i type="int" name="NPAR">     6</i>
   <i type="int" name="NSIM">     4</i>
   <i type="int" name="NBLK">    -1</i>
   <i type="logical" name="LPLANE"> T  </i>
   <i type="logical" name="LSCALAPACK"> T  </i>
   <i type="logical" name="LSCAAWARE"> F  </i>
   <i type="logical" name="LSCALU"> F  </i>
   <i type="logical" name="LASYNC"> F  </i>
   <i type="logical" name="LORBITALREAL"> F  </i>
  </separator>
  <separator name="miscellaneous" >
   <i type="int" name="IDIOT">     3</i>
   <i type="int" name="PHON_NSTRUCT">    -1</i>
   <i type="logical" name="LMUSIC"> F  </i>
   <v name="POMASS">     10.81100000     95.94000000     28.08500000</v>
   <v name="DARWINR">      0.00000000      0.00000000      0.00000000</v>
   <v name="DARWINV">      1.00000000      1.00000000      1.00000000</v>
   <i type="logical" name="LCORR"> T  </i>
  </separator>
  <i type="logical" name="GGA_COMPAT"> T  </i>
  <i type="logical" name="LBERRY"> F  </i>
  <i type="int" name="ICORELEVEL">     0</i>
  <i type="logical" name="LDAU"> F  </i>
  <i type="int" name="I_CONSTRAINED_M">     0</i>
  <separator name="electronic exchange-correlation" >
   <i type="string" name="GGA">--</i>
   <i type="int" name="VOSKOWN">     0</i>
   <i type="logical" name="LHFCALC"> F  </i>
   <i type="string" name="PRECFOCK"></i>
   <i type="logical" name="LSYMGRAD"> F  </i>
   <i type="logical" name="LHFONE"> F  </i>
   <i type="logical" name="LRHFCALC"> F  </i>
   <i type="logical" name="LTHOMAS"> F  </i>
   <i type="logical" name="LMODELHF"> F  </i>
   <i type="logical" name="LFOCKACE"> F  </i>
   <i name="ENCUT4O">     -1.00000000</i>
   <i type="int" name="EXXOEP">     0</i>
   <i type="int" name="FOURORBIT">     0</i>
   <i name="AEXX">      0.00000000</i>
   <i name="HFALPHA">      0.00000000</i>
   <i name="MCALPHA">      0.00000000</i>
   <i name="ALDAX">      1.00000000</i>
   <i name="AGGAX">      1.00000000</i>
   <i name="ALDAC">      1.00000000</i>
   <i name="AGGAC">      1.00000000</i>
   <i type="int" name="NKREDX">     1</i>
   <i type="int" name="NKREDY">     1</i>
   <i type="int" name="NKREDZ">     1</i>
   <i type="logical" name="SHIFTRED"> F  </i>
   <i type="logical" name="ODDONLY"> F  </i>
   <i type="logical" name="EVENONLY"> F  </i>
   <i type="int" name="LMAXFOCK">     0</i>
   <i type="int" name="NMAXFOCKAE">     0</i>
   <i type="logical" name="LFOCKAEDFT"> F  </i>
   <i name="HFSCREEN">      0.00000000</i>
   <i name="HFSCREENC">      0.00000000</i>
   <i type="int" name="NBANDSGWLOW">     0</i>
  </separator>
  <separator name="vdW DFT" >
   <i type="logical" name="LUSE_VDW"> F  </i>
   <i name="Zab_VDW">     -0.84910000</i>
   <i name="PARAM1">      0.12340000</i>
   <i name="PARAM2">      1.00000000</i>
   <i name="PARAM3">      0.00000000</i>
  </separator>
  <separator name="model GW" >
   <i type="int" name="MODEL_GW">     0</i>
   <i name="MODEL_EPS0">      7.19784075</i>
   <i name="MODEL_ALPHA">      1.00000000</i>
  </separator>
  <separator name="linear response parameters" >
   <i type="logical" name="LEPSILON"> F  </i>
   <i type="logical" name="LRPA"> F  </i>
   <i type="logical" name="LNABLA"> F  </i>
   <i type="logical" name="LVEL"> F  </i>
   <i type="int" name="KINTER">     0</i>
   <i name="CSHIFT">      0.10000000</i>
   <i name="OMEGAMAX">     -1.00000000</i>
   <i name="DEG_THRESHOLD">      0.00200000</i>
   <i name="RTIME">     -0.10000000</i>
   <i name="WPLASMAI">      0.00000000</i>
   <v name="DFIELD">      0.00000000      0.00000000      0.00000000</v>
   <v name="WPLASMA">      0.00000000      0.00000000      0.00000000      0.00000000      0.00000000      0.00000000      0.00000000      0.00000000      0.00000000</v>
  </separator>
  <separator name="orbital magnetization" >
   <i type="logical" name="NUCIND"> F  </i>
   <v name="MAGPOS">      0.00000000      0.00000000      0.00000000</v>
   <i type="logical" name="LNICSALL"> T  </i>
   <i type="logical" name="ORBITALMAG"> F  </i>
   <i type="logical" name="LMAGBLOCH"> F  </i>
   <i type="logical" name="LCHIMAG"> F  </i>
   <i type="logical" name="LGAUGE"> T  </i>
   <i type="int" name="MAGATOM">     0</i>
   <v name="MAGDIPOL">      0.00000000      0.00000000      0.00000000</v>
   <v name="AVECCONST">      0.00000000      0.00000000      0.00000000</v>
  </separator>
  <separator name="response functions" >
   <i type="logical" name="LFINITE_TEMPERATURE"> F  </i>
   <i type="logical" name="LADDER"> F  </i>
   <i type="logical" name="LRPAFORCE"> F  </i>
   <i type="logical" name="LFXC"> F  </i>
   <i type="logical" name="LHARTREE"> T  </i>
   <i type="int" name="IBSE">     0</i>
   <v type="int" name="KPOINT">    -1     0     0     0</v>
   <i type="logical" name="LTCTC"> F  </i>
   <i type="logical" name="LTCTE"> F  </i>
   <i type="logical" name="LTETE"> F  </i>
   <i type="logical" name="LTRIPLET"> F  </i>
   <i type="logical" name="LFXCEPS"> F  </i>
   <i type="logical" name="LFXHEG"> F  </i>
   <i type="int" name="NATURALO">     2</i>
   <i type="logical" name="LHOLEGF"> F  </i>
   <i type="logical" name="L2ORDER"> F  </i>
   <i type="logical" name="LDMP1"> F  </i>
   <i type="logical" name="LMP2LT"> F  </i>
   <i type="logical" name="LSMP2LT"> F  </i>
   <i type="logical" name="LGWLF"> F  </i>
   <i name="ENCUTGW">     -2.00000000</i>
   <i name="ENCUTGWSOFT">     -2.00000000</i>
   <i name="ENCUTLF">     -1.00000000</i>
   <i type="logical" name="LESF_SPLINES"> F  </i>
   <i type="int" name="LMAXMP2">    -1</i>
   <i name="SCISSOR">      0.00000000</i>
   <i type="int" name="NOMEGA">     0</i>
   <i type="int" name="NOMEGAR">     0</i>
   <i type="int" name="NBANDSGW">    -1</i>
   <i type="int" name="NBANDSO">    -1</i>
   <i type="int" name="NBANDSV">    -1</i>
   <i type="int" name="NELM">   100</i>
   <i type="int" name="NELMHF">     1</i>
   <i type="int" name="DIM">     3</i>
   <i type="int" name="IESPILON">     4</i>
   <i type="int" name="ANTIRES">     0</i>
   <i name="OMEGAMAX">    -30.00000000</i>
   <i name="OMEGAMIN">    -30.00000000</i>
   <i name="OMEGATL">   -200.00000000</i>
   <i type="int" name="OMEGAGRID">     0</i>
   <i name="CSHIFT">     -0.10000000</i>
   <i type="logical" name="LSELFENERGY"> F  </i>
   <i type="logical" name="LSPECTRAL"> F  </i>
   <i type="logical" name="LSPECTRALGW"> F  </i>
   <i type="logical" name="LSINGLES"> F  </i>
   <i type="logical" name="LFERMIGW"> F  </i>
   <i type="logical" name="ODDONLYGW"> F  </i>
   <i type="logical" name="EVENONLYGW"> F  </i>
   <i type="int" name="NKREDLFX">     1</i>
   <i type="int" name="NKREDLFY">     1</i>
   <i type="int" name="NKREDLFZ">     1</i>
   <i type="int" name="MAXMEM">  2800</i>
   <i type="int" name="TELESCOPE">     0</i>
   <i type="int" name="NTAUPAR">    -1</i>
   <i type="int" name="NOMEGAPAR">    -1</i>
   <i name="DAMP_NEWTON">      0.80000001</i>
   <i name="LAMBDA">      1.00000000</i>
  </separator>
  <separator name="External order field" >
   <i name="OFIELD_KAPPA">      0.00000000</i>
   <v name="OFIELD_K">      0.00000000      0.00000000      0.00000000</v>
   <i name="OFIELD_Q6_NEAR">      0.00000000</i>
   <i name="OFIELD_Q6_FAR">      0.00000000</i>
   <i name="OFIELD_A">      0.00000000</i>
  </separator>
 </parameters>
 <atominfo>
  <atoms>      10 </atoms>
  <types>       3 </types>
  <array name="atoms" >
   <dimension dim="1">ion</dimension>
   <field type="string">element</field>
   <field type="int">atomtype</field>
   <set>
    <rc><c>B </c><c>   1</c></rc>
    <rc><c>B </c><c>   1</c></rc>
    <rc><c>Mo</c><c>   2</c></rc>
    <rc><c>Mo</c><c>   2</c></rc>
    <rc><c>Mo</c><c>   2</c></rc>
    <rc><c>Mo</c><c>   2</c></rc>
    <rc><c>Mo</c><c>   2</c></rc>
    <rc><c>Mo</c><c>   2</c></rc>
    <rc><c>Si</c><c>   3</c></rc>
    <rc><c>Si</c><c>   3</c></rc>
   </set>
  </array>
  <array name="atomtypes" >
   <dimension dim="1">type</dimension>
   <field type="int">atomspertype</field>
   <field type="string">element</field>
   <field>mass</field>
   <field>valence</field>
   <field type="string">pseudopotential</field>
   <set>
    <rc><c>   2</c><c>B </c><c>     10.81100000</c><c>      3.00000000</c><c>  PAW_PBE B 06Sep2000                   </c></rc>
    <rc><c>   6</c><c>Mo</c><c>     95.94000000</c><c>     14.00000000</c><c>  PAW_PBE Mo_sv 02Feb2006               </c></rc>
    <rc><c>   2</c><c>Si</c><c>     28.08500000</c><c>      4.00000000</c><c>  PAW_PBE Si 05Jan2001                  </c></rc>
   </set>
  </array>
 </atominfo>
 <structure name="initialpos" >
  <crystal>
   <varray name="basis" >
    <v>       4.80312993       0.00000000      -2.73210697 </v>
    <v>      -1.62490337       4.51992768      -2.73210697 </v>
    <v>       0.00000000       0.00000000       5.52580000 </v>
   </varray>
   <i name="volume">    119.96401245 </i>
   <varray name="rec_basis" >
    <v>       0.20819757       0.07484654       0.00000000 </v>
    <v>       0.00000000       0.22124248       0.00000000 </v>
    <v>       0.10293859       0.14639452       0.18096927 </v>
   </varray>
  </crystal>
  <varray name="positions" >
   <v>       0.25000000       0.25000000       0.00000000 </v>
   <v>       0.75000000       0.75000000       0.00000000 </v>
   <v>       0.00000000       0.50000000       0.00000000 </v>
   <v>       0.00000000       0.00000000       0.00000000 </v>
   <v>       0.50000000       0.50000000       0.50000000 </v>
   <v>       0.50000000       0.00000000       0.00000000 </v>
   <v>       0.00000000       0.00000000       0.50000000 </v>
   <v>       0.50000000       0.50000000       0.00000000 </v>
   <v>       0.48613000       0.98613000       0.47226000 </v>
   <v>       0.00000000       0.50000000       0.50000000 </v>
  </varray>
 </structure>
 <calculation>
  <scstep>
   <time name="total">   20.64   21.41</time>
   <energy>
    <i name="alphaZ">    696.41256531 </i>
    <i name="ewald">  -9796.50703054 </i>
    <i name="hartreedc">  -2246.85199570 </i>
    <i name="XCdc">    475.24991215 </i>
    <i name="pawpsdc">   9166.97638771 </i>
    <i name="pawaedc">  -9126.13493418 </i>
    <i name="eentropy">     -0.00055329 </i>
    <i name="bandstr">    402.85988367 </i>
    <i name="atom">  11522.16744521 </i>
    <i name="e_fr_energy">   1094.17168036 </i>
    <i name="e_wo_entrp">   1094.17223365 </i>
    <i name="e_0_energy">   1094.17195700 </i>
   </energy>
  </scstep>
  <scstep>
   <time name="total">   21.40   21.61</time>
   <energy>
    <i name="e_fr_energy">   -179.87307365 </i>
    <i name="e_wo_entrp">   -179.87196072 </i>
    <i name="e_0_energy">   -179.87251719 </i>
   </energy>
  </scstep>
  <scstep>
   <time name="total">   26.05   26.29</time>
   <energy>
    <i name="e_fr_energy">   -230.33226536 </i>
    <i name="e_wo_entrp">   -230.33161114 </i>
    <i name="e_0_energy">   -230.33193825 </i>
   </energy>
  </scstep>
  <scstep>
   <time name="total">   24.61   24.83</time>
   <energy>
    <i name="e_fr_energy">   -231.07328407 </i>
    <i name="e_wo_entrp">   -231.07254196 </i>
    <i name="e_0_energy">   -231.07291301 </i>
   </energy>
  </scstep>
  <scstep>
   <time name="total">   28.32   28.57</time>
   <energy>
    <i name="e_fr_energy">   -231.08847101 </i>
    <i name="e_wo_entrp">   -231.08772849 </i>
    <i name="e_0_energy">   -231.08809975 </i>
   </energy>
  </scstep>
  <scstep>
   <time name="total">   26.63   26.86</time>
   <energy>
    <i name="e_fr_energy">   -156.30137921 </i>
    <i name="e_wo_entrp">   -156.30022038 </i>
    <i name="e_0_energy">   -156.30079979 </i>
   </energy>
  </scstep>
  <scstep>
   <time name="total">   27.97   28.20</time>
   <energy>
    <i name="e_fr_energy">   -177.86047317 </i>
    <i name="e_wo_entrp">   -177.85928258 </i>
    <i name="e_0_energy">   -177.85987787 </i>
   </energy>
  </scstep>
  <scstep>
   <time name="total">   25.94   26.15</time>
   <energy>
    <i name="e_fr_energy">   -181.26434302 </i>
    <i name="e_wo_entrp">   -181.26339459 </i>
    <i name="e_0_energy">   -181.26386880 </i>
   </energy>
  </scstep>
  <scstep>
   <time name="total">   27.77   28.00</time>
   <energy>
    <i name="e_fr_energy">   -182.19812123 </i>
    <i name="e_wo_entrp">   -182.19714785 </i>
    <i name="e_0_energy">   -182.19763454 </i>
   </energy>
  </scstep>
  <scstep>
   <time name="total">   25.80   26.02</time>
   <energy>
    <i name="e_fr_energy">   -182.48863072 </i>
    <i name="e_wo_entrp">   -182.48742405 </i>
    <i name="e_0_energy">   -182.48802738 </i>
   </energy>
  </scstep>
  <scstep>
   <time name="total">   27.75   27.98</time>
   <energy>
    <i name="e_fr_energy">   -182.58459012 </i>
    <i name="e_wo_entrp">   -182.58324375 </i>
    <i name="e_0_energy">   -182.58391693 </i>
   </energy>
  </scstep>
  <scstep>
   <time name="total">   25.77   25.99</time>
   <energy>
    <i name="e_fr_energy">   -182.61846398 </i>
    <i name="e_wo_entrp">   -182.61712076 </i>
    <i name="e_0_energy">   -182.61779237 </i>
   </energy>
  </scstep>
  <scstep>
   <time name="total">   26.96   27.18</time>
   <energy>
    <i name="e_fr_energy">   -182.63083335 </i>
    <i name="e_wo_entrp">   -182.62940211 </i>
    <i name="e_0_energy">   -182.63011773 </i>
   </energy>
  </scstep>
  <scstep>
   <time name="total">   25.71   25.92</time>
   <energy>
    <i name="e_fr_energy">   -182.63671043 </i>
    <i name="e_wo_entrp">   -182.63527541 </i>
    <i name="e_0_energy">   -182.63599292 </i>
   </energy>
  </scstep>
  <scstep>
   <time name="total">   25.93   26.15</time>
   <energy>
    <i name="e_fr_energy">   -182.63939233 </i>
    <i name="e_wo_entrp">   -182.63792712 </i>
    <i name="e_0_energy">   -182.63865973 </i>
   </energy>
  </scstep>
  <scstep>
   <time name="total">   25.88   26.09</time>
   <energy>
    <i name="e_fr_energy">   -182.64057216 </i>
    <i name="e_wo_entrp">   -182.63910551 </i>
    <i name="e_0_energy">   -182.63983883 </i>
   </energy>
  </scstep>
  <scstep>
   <time name="total">   26.05   26.27</time>
   <energy>
    <i name="e_fr_energy">   -182.64097169 </i>
    <i name="e_wo_entrp">   -182.63949563 </i>
    <i name="e_0_energy">   -182.64023366 </i>
   </energy>
  </scstep>
  <scstep>
   <time name="total">   25.82   26.04</time>
   <energy>
    <i name="e_fr_energy">   -182.64112682 </i>
    <i name="e_wo_entrp">   -182.63965156 </i>
    <i name="e_0_energy">   -182.64038919 </i>
   </energy>
  </scstep>
  <scstep>
   <time name="total">   25.83   26.04</time>
   <energy>
    <i name="e_fr_energy">   -182.64119792 </i>
    <i name="e_wo_entrp">   -182.63972191 </i>
    <i name="e_0_energy">   -182.64045991 </i>
   </energy>
  </scstep>
  <scstep>
   <time name="total">   25.83   26.04</time>
   <energy>
    <i name="e_fr_energy">   -182.64122641 </i>
    <i name="e_wo_entrp">   -182.63975205 </i>
    <i name="e_0_energy">   -182.64048923 </i>
   </energy>
  </scstep>
  <scstep>
   <time name="total">   25.88   26.09</time>
   <energy>
    <i name="e_fr_energy">   -182.64123685 </i>
    <i name="e_wo_entrp">   -182.63976199 </i>
    <i name="e_0_energy">   -182.64049942 </i>
   </energy>
  </scstep>
  <scstep>
   <time name="total">   26.05   26.27</time>
   <energy>
    <i name="e_fr_energy">   -182.64124046 </i>
    <i name="e_wo_entrp">   -182.63976618 </i>
    <i name="e_0_energy">   -182.64050332 </i>
   </energy>
  </scstep>
  <scstep>
   <time name="total">   25.81   26.04</time>
   <energy>
    <i name="e_fr_energy">   -182.64124256 </i>
    <i name="e_wo_entrp">   -182.63976872 </i>
    <i name="e_0_energy">   -182.64050564 </i>
   </energy>
  </scstep>
  <scstep>
   <time name="total">   25.88   26.10</time>
   <energy>
    <i name="e_fr_energy">   -182.64124336 </i>
    <i name="e_wo_entrp">   -182.63976941 </i>
    <i name="e_0_energy">   -182.64050639 </i>
   </energy>
  </scstep>
  <scstep>
   <time name="total">   25.98   26.21</time>
   <energy>
    <i name="e_fr_energy">   -182.64124364 </i>
    <i name="e_wo_entrp">   -182.63976983 </i>
    <i name="e_0_energy">   -182.64050673 </i>
   </energy>
  </scstep>
  <scstep>
   <time name="total">   25.81   26.03</time>
   <energy>
    <i name="e_fr_energy">   -182.64124379 </i>
    <i name="e_wo_entrp">   -182.63977003 </i>
    <i name="e_0_energy">   -182.64050691 </i>
   </energy>
  </scstep>
  <scstep>
   <time name="total">   26.08   26.30</time>
   <energy>
    <i name="e_fr_energy">   -182.64124383 </i>
    <i name="e_wo_entrp">   -182.63977003 </i>
    <i name="e_0_energy">   -182.64050693 </i>
   </energy>
  </scstep>
  <scstep>
   <time name="total">   26.09   26.30</time>
   <energy>
    <i name="e_fr_energy">   -182.64124385 </i>
    <i name="e_wo_entrp">   -182.63977008 </i>
    <i name="e_0_energy">   -182.64050696 </i>
   </energy>
  </scstep>
  <scstep>
   <time name="total">   25.67   25.89</time>
   <energy>
    <i name="e_fr_energy">   -182.64124385 </i>
    <i name="e_wo_entrp">   -182.63977007 </i>
    <i name="e_0_energy">   -182.64050696 </i>
   </energy>
  </scstep>
  <scstep>
   <time name="total">   26.32   26.53</time>
   <energy>
    <i name="e_fr_energy">   -182.64124386 </i>
    <i name="e_wo_entrp">   -182.63977008 </i>
    <i name="e_0_energy">   -182.64050697 </i>
   </energy>
  </scstep>
  <scstep>
   <time name="total">   25.75   25.97</time>
   <energy>
    <i name="e_fr_energy">   -182.64124387 </i>
    <i name="e_wo_entrp">   -182.63977009 </i>
    <i name="e_0_energy">   -182.64050698 </i>
   </energy>
  </scstep>
  <scstep>
   <time name="total">   26.30   26.52</time>
   <energy>
    <i name="e_fr_energy">   -182.64124387 </i>
    <i name="e_wo_entrp">   -182.63977009 </i>
    <i name="e_0_energy">   -182.64050698 </i>
   </energy>
  </scstep>
  <scstep>
   <time name="total">   25.79   26.02</time>
   <energy>
    <i name="e_fr_energy">   -182.64124387 </i>
    <i name="e_wo_entrp">   -182.63977010 </i>
    <i name="e_0_energy">   -182.64050699 </i>
   </energy>
  </scstep>
  <scstep>
   <time name="total">   26.28   26.50</time>
   <energy>
    <i name="e_fr_energy">   -182.64124388 </i>
    <i name="e_wo_entrp">   -182.63977010 </i>
    <i name="e_0_energy">   -182.64050699 </i>
   </energy>
  </scstep>
  <scstep>
   <time name="total">   29.26   29.51</time>
   <energy>
    <i name="alphaZ">    696.41256531 </i>
    <i name="ewald">  -9796.50703054 </i>
    <i name="hartreedc">  -2131.51965475 </i>
    <i name="XCdc">    485.40048273 </i>
    <i name="pawpsdc">  14241.78052417 </i>
    <i name="pawaedc"> -14223.24953482 </i>
    <i name="eentropy">     -0.00147378 </i>
    <i name="bandstr">   -977.12456741 </i>
    <i name="atom">  11522.16744521 </i>
    <i name="e_fr_energy">   -182.64124388 </i>
    <i name="e_wo_entrp">   -182.63977010 </i>
    <i name="e_0_energy">   -182.64050699 </i>
   </energy>
  </scstep>
  <structure>
   <crystal>
    <varray name="basis" >
     <v>       4.80312993       0.00000000      -2.73210697 </v>
     <v>      -1.62490337       4.51992768      -2.73210697 </v>
     <v>       0.00000000       0.00000000       5.52580000 </v>
    </varray>
    <i name="volume">    119.96401245 </i>
    <varray name="rec_basis" >
     <v>       0.20819757       0.07484654       0.00000000 </v>
     <v>       0.00000000       0.22124248       0.00000000 </v>
     <v>       0.10293859       0.14639452       0.18096927 </v>
    </varray>
   </crystal>
   <varray name="positions" >
    <v>       0.25000000       0.25000000       0.00000000 </v>
    <v>       0.75000000       0.75000000       0.00000000 </v>
    <v>       0.00000000       0.50000000       0.00000000 </v>
    <v>       0.00000000       0.00000000       0.00000000 </v>
    <v>       0.50000000       0.50000000       0.50000000 </v>
    <v>       0.50000000       0.00000000       0.00000000 </v>
    <v>       0.00000000       0.00000000       0.50000000 </v>
    <v>       0.50000000       0.50000000       0.00000000 </v>
    <v>       0.48613000       0.98613000       0.47226000 </v>
    <v>       0.00000000       0.50000000       0.50000000 </v>
   </varray>
  </structure>
  <varray name="forces" >
   <v>       0.00000000       0.00000000       0.00000000 </v>
   <v>       0.00000000       0.00000000       0.00000000 </v>
   <v>       0.00000000       0.00000000       0.00000000 </v>
   <v>       0.00000000       0.00000000       0.00000000 </v>
   <v>       0.00000000       0.00000000       0.00000000 </v>
   <v>       0.00000000       0.00000000       0.00000000 </v>
   <v>       0.00000000       0.00000000       0.00000000 </v>
   <v>       0.00000000       0.00000000       0.00000000 </v>
   <v>       0.00000000       0.00000000       0.00000000 </v>
   <v>       0.00000000       0.00000000       0.00000000 </v>
  </varray>
  <varray name="stress" >
   <v>       0.00000000       0.00000000       0.00000000 </v>
   <v>       0.00000000       0.00000000       0.00000000 </v>
   <v>       0.00000000       0.00000000       0.00000000 </v>
  </varray>
  <energy>
   <i name="e_fr_energy">   -182.64124388 </i>
   <i name="e_wo_entrp">   -182.63977010 </i>
   <i name="e_0_energy">   -182.64050699 </i>
  </energy>
  <time name="totalsc">  912.90  922.04</time>
  <eigenvalues>
   <array>
    <dimension dim="1">band</dimension>
    <dimension dim="2">kpoint</dimension>
    <dimension dim="3">spin</dimension>
    <field>eigene</field>
    <field>occ</field>
    <set>
     <set comment="spin 1">
      <set comment="kpoint 1">
       <r>  -49.6281    1.0000 </r>
       <r>  -49.3980    1.0000 </r>
       <r>  -49.3908    1.0000 </r>
       <r>  -49.3875    1.0000 </r>
       <r>  -49.2810    1.0000 </r>
       <r>  -49.2680    1.0000 </r>
       <r>  -24.3798    1.0000 </r>
       <r>  -23.7127    1.0000 </r>
       <r>  -23.6932    1.0000 </r>
       <r>  -23.6927    1.0000 </r>
       <r>  -23.3941    1.0000 </r>
       <r>  -23.3910    1.0000 </r>
       <r>  -23.3585    1.0000 </r>
       <r>  -22.7277    1.0000 </r>
       <r>  -22.7195    1.0000 </r>
       <r>  -22.7083    1.0000 </r>
       <r>  -22.5465    1.0000 </r>
       <r>  -22.5240    1.0000 </r>
       <r>  -22.4265    1.0000 </r>
       <r>  -22.4153    1.0000 </r>
       <r>  -22.4123    1.0000 </r>
       <r>  -22.3347    1.0000 </r>
       <r>  -22.3197    1.0000 </r>
       <r>  -22.3175    1.0000 </r>
       <r>    1.1955    1.0000 </r>
       <r>    2.4933    1.0000 </r>
       <r>    3.4406    1.0000 </r>
       <r>    5.4480    1.0000 </r>
       <r>    5.4505    1.0000 </r>
       <r>    5.5130    1.0000 </r>
       <r>    8.2950    1.0000 </r>
       <r>    8.2998    1.0000 </r>
       <r>    8.3014    1.0000 </r>
       <r>    8.5739    1.0000 </r>
       <r>    8.6501    1.0000 </r>
       <r>    8.9591    1.0000 </r>
       <r>   10.3081    1.0000 </r>
       <r>   10.3365    1.0000 </r>
       <r>   10.3566    1.0000 </r>
       <r>   11.4902    1.0000 </r>
       <r>   11.5672    1.0000 </r>
       <r>   11.6322    1.0000 </r>
       <r>   11.6526    1.0000 </r>
       <r>   11.7455    1.0000 </r>
       <r>   11.7921    1.0000 </r>
       <r>   11.8136    1.0000 </r>
       <r>   11.8548    1.0000 </r>
       <r>   12.0434    1.0000 </r>
       <r>   13.5489    0.0000 </r>
       <r>   13.5504    0.0000 </r>
       <r>   13.6365    0.0000 </r>
       <r>   14.5597    0.0000 </r>
       <r>   14.6932    0.0000 </r>
       <r>   14.8324    0.0000 </r>
       <r>   14.9473    0.0000 </r>
       <r>   15.3835    0.0000 </r>
       <r>   15.3921    0.0000 </r>
       <r>   15.5611    0.0000 </r>
       <r>   16.5385    0.0000 </r>
       <r>   17.3171    0.0000 </r>
      </set>
      <set comment="kpoint 2">
       <r>  -49.6193    1.0000 </r>
       <r>  -49.4027    1.0000 </r>
       <r>  -49.3896    1.0000 </r>
       <r>  -49.3843    1.0000 </r>
       <r>  -49.2854    1.0000 </r>
       <r>  -49.2727    1.0000 </r>
       <r>  -24.3379    1.0000 </r>
       <r>  -23.7133    1.0000 </r>
       <r>  -23.6627    1.0000 </r>
       <r>  -23.6531    1.0000 </r>
       <r>  -23.3753    1.0000 </r>
       <r>  -23.3699    1.0000 </r>
       <r>  -23.3391    1.0000 </r>
       <r>  -22.7410    1.0000 </r>
       <r>  -22.7312    1.0000 </r>
       <r>  -22.7018    1.0000 </r>
       <r>  -22.5740    1.0000 </r>
       <r>  -22.5534    1.0000 </r>
       <r>  -22.4759    1.0000 </r>
       <r>  -22.4260    1.0000 </r>
       <r>  -22.4201    1.0000 </r>
       <r>  -22.3532    1.0000 </r>
       <r>  -22.3394    1.0000 </r>
       <r>  -22.3355    1.0000 </r>
       <r>    1.3493    1.0000 </r>
       <r>    2.6127    1.0000 </r>
       <r>    3.5261    1.0000 </r>
       <r>    5.3137    1.0000 </r>
       <r>    5.6242    1.0000 </r>
       <r>    5.6715    1.0000 </r>
       <r>    8.2561    1.0000 </r>
       <r>    8.3914    1.0000 </r>
       <r>    8.3977    1.0000 </r>
       <r>    8.5875    1.0000 </r>
       <r>    8.6631    1.0000 </r>
       <r>    8.8126    1.0000 </r>
       <r>    9.7815    1.0000 </r>
       <r>   10.0849    1.0000 </r>
       <r>   10.1132    1.0000 </r>
       <r>   11.2928    1.0000 </r>
       <r>   11.5440    1.0000 </r>
       <r>   11.5630    1.0000 </r>
       <r>   11.6424    1.0000 </r>
       <r>   11.6767    1.0000 </r>
       <r>   11.8163    1.0000 </r>
       <r>   11.8673    1.0000 </r>
       <r>   11.9779    1.0000 </r>
       <r>   12.2436    1.0000 </r>
       <r>   13.6142    0.0000 </r>
       <r>   13.6797    0.0000 </r>
       <r>   13.8099    0.0000 </r>
       <r>   13.9791    0.0000 </r>
       <r>   14.0628    0.0000 </r>
       <r>   14.5941    0.0000 </r>
       <r>   14.7122    0.0000 </r>
       <r>   15.4411    0.0000 </r>
       <r>   16.2467    0.0000 </r>
       <r>   16.3501    0.0000 </r>
       <r>   16.7228    0.0000 </r>
       <r>   17.1591    0.0000 </r>
      </set>
      <set comment="kpoint 3">
       <r>  -49.5942    1.0000 </r>
       <r>  -49.4277    1.0000 </r>
       <r>  -49.3782    1.0000 </r>
       <r>  -49.3717    1.0000 </r>
       <r>  -49.2978    1.0000 </r>
       <r>  -49.2861    1.0000 </r>
       <r>  -24.2235    1.0000 </r>
       <r>  -23.7486    1.0000 </r>
       <r>  -23.5469    1.0000 </r>
       <r>  -23.5403    1.0000 </r>
       <r>  -23.3209    1.0000 </r>
       <r>  -23.3099    1.0000 </r>
       <r>  -23.2831    1.0000 </r>
       <r>  -22.7902    1.0000 </r>
       <r>  -22.7818    1.0000 </r>
       <r>  -22.6677    1.0000 </r>
       <r>  -22.6619    1.0000 </r>
       <r>  -22.6534    1.0000 </r>
       <r>  -22.6305    1.0000 </r>
       <r>  -22.4337    1.0000 </r>
       <r>  -22.4320    1.0000 </r>
       <r>  -22.3918    1.0000 </r>
       <r>  -22.3793    1.0000 </r>
       <r>  -22.3763    1.0000 </r>
       <r>    1.7880    1.0000 </r>
       <r>    2.9532    1.0000 </r>
       <r>    3.7281    1.0000 </r>
       <r>    4.8766    1.0000 </r>
       <r>    6.1315    1.0000 </r>
       <r>    6.1867    1.0000 </r>
       <r>    8.0859    1.0000 </r>
       <r>    8.1908    1.0000 </r>
       <r>    8.6018    1.0000 </r>
       <r>    8.6240    1.0000 </r>
       <r>    8.6699    1.0000 </r>
       <r>    8.7075    1.0000 </r>
       <r>    9.3215    1.0000 </r>
       <r>    9.6714    1.0000 </r>
       <r>    9.6868    1.0000 </r>
       <r>   10.3782    1.0000 </r>
       <r>   10.9703    1.0000 </r>
       <r>   11.0718    1.0000 </r>
       <r>   11.3545    1.0000 </r>
       <r>   11.4103    1.0000 </r>
       <r>   12.2232    1.0000 </r>
       <r>   12.2513    1.0000 </r>
       <r>   12.3132    1.0000 </r>
       <r>   12.9343    1.0000 </r>
       <r>   13.0251    1.0000 </r>
       <r>   13.1019    1.0000 </r>
       <r>   14.0056    0.0000 </r>
       <r>   14.0642    0.0000 </r>
       <r>   14.1231    0.0000 </r>
       <r>   14.6310    0.0000 </r>
       <r>   14.7229    0.0000 </r>
       <r>   15.4913    0.0000 </r>
       <r>   16.2277    0.0000 </r>
       <r>   16.8474    0.0000 </r>
       <r>   16.8801    0.0000 </r>
       <r>   16.9557    0.0000 </r>
      </set>
      <set comment="kpoint 4">
       <r>  -49.5564    1.0000 </r>
       <r>  -49.4662    1.0000 </r>
       <r>  -49.3599    1.0000 </r>
       <r>  -49.3524    1.0000 </r>
       <r>  -49.3164    1.0000 </r>
       <r>  -49.3061    1.0000 </r>
       <r>  -24.0702    1.0000 </r>
       <r>  -23.8162    1.0000 </r>
       <r>  -23.3788    1.0000 </r>
       <r>  -23.3777    1.0000 </r>
       <r>  -23.2366    1.0000 </r>
       <r>  -23.2249    1.0000 </r>
       <r>  -23.2062    1.0000 </r>
       <r>  -22.8655    1.0000 </r>
       <r>  -22.8594    1.0000 </r>
       <r>  -22.8419    1.0000 </r>
       <r>  -22.8154    1.0000 </r>
       <r>  -22.8088    1.0000 </r>
       <r>  -22.5992    1.0000 </r>
       <r>  -22.4494    1.0000 </r>
       <r>  -22.4374    1.0000 </r>
       <r>  -22.4334    1.0000 </r>
       <r>  -22.4145    1.0000 </r>
       <r>  -22.4051    1.0000 </r>
       <r>    2.4456    1.0000 </r>
       <r>    3.4468    1.0000 </r>
       <r>    3.7826    1.0000 </r>
       <r>    4.3146    1.0000 </r>
       <r>    6.9146    1.0000 </r>
       <r>    6.9835    1.0000 </r>
       <r>    7.5169    1.0000 </r>
       <r>    7.7250    1.0000 </r>
       <r>    8.5076    1.0000 </r>
       <r>    8.5759    1.0000 </r>
       <r>    8.8797    1.0000 </r>
       <r>    8.9195    1.0000 </r>
       <r>    9.2449    1.0000 </r>
       <r>    9.3142    1.0000 </r>
       <r>    9.3238    1.0000 </r>
       <r>    9.6903    1.0000 </r>
       <r>   10.3184    1.0000 </r>
       <r>   10.3548    1.0000 </r>
       <r>   10.9075    1.0000 </r>
       <r>   10.9345    1.0000 </r>
       <r>   12.6260    1.0000 </r>
       <r>   12.6565    1.0000 </r>
       <r>   12.8963    1.0000 </r>
       <r>   12.9695    1.0000 </r>
       <r>   13.0067    1.0000 </r>
       <r>   13.4839    0.0000 </r>
       <r>   14.0046    0.0000 </r>
       <r>   14.0347    0.0000 </r>
       <r>   14.1180    0.0000 </r>
       <r>   14.3878    0.0000 </r>
       <r>   14.4733    0.0000 </r>
       <r>   15.0902    0.0000 </r>
       <r>   15.7043    0.0000 </r>
       <r>   16.6649    0.0000 </r>
       <r>   16.9890    0.0000 </r>
       <r>   17.1101    0.0000 </r>
      </set>
      <set comment="kpoint 5">
       <r>  -49.5116    1.0000 </r>
       <r>  -49.5114    1.0000 </r>
       <r>  -49.3382    1.0000 </r>
       <r>  -49.3381    1.0000 </r>
       <r>  -49.3295    1.0000 </r>
       <r>  -49.3293    1.0000 </r>
       <r>  -23.9242    1.0000 </r>
       <r>  -23.9239    1.0000 </r>
       <r>  -23.2369    1.0000 </r>
       <r>  -23.2355    1.0000 </r>
       <r>  -23.2230    1.0000 </r>
       <r>  -23.2219    1.0000 </r>
       <r>  -23.0546    1.0000 </r>
       <r>  -23.0526    1.0000 </r>
       <r>  -22.9129    1.0000 </r>
       <r>  -22.9119    1.0000 </r>
       <r>  -22.9066    1.0000 </r>
       <r>  -22.9057    1.0000 </r>
       <r>  -22.5254    1.0000 </r>
       <r>  -22.5238    1.0000 </r>
       <r>  -22.4316    1.0000 </r>
       <r>  -22.4312    1.0000 </r>
       <r>  -22.4241    1.0000 </r>
       <r>  -22.4232    1.0000 </r>
       <r>    3.1856    1.0000 </r>
       <r>    3.2308    1.0000 </r>
       <r>    3.9279    1.0000 </r>
       <r>    3.9491    1.0000 </r>
       <r>    7.3609    1.0000 </r>
       <r>    7.3849    1.0000 </r>
       <r>    7.8275    1.0000 </r>
       <r>    7.8422    1.0000 </r>
       <r>    7.9171    1.0000 </r>
       <r>    7.9499    1.0000 </r>
       <r>    8.9606    1.0000 </r>
       <r>    9.0351    1.0000 </r>
       <r>    9.0933    1.0000 </r>
       <r>    9.1333    1.0000 </r>
       <r>    9.3603    1.0000 </r>
       <r>    9.3686    1.0000 </r>
       <r>   10.3831    1.0000 </r>
       <r>   10.3916    1.0000 </r>
       <r>   10.4324    1.0000 </r>
       <r>   10.4518    1.0000 </r>
       <r>   12.8657    1.0000 </r>
       <r>   12.9187    1.0000 </r>
       <r>   12.9493    1.0000 </r>
       <r>   13.0146    1.0000 </r>
       <r>   13.8217    0.0000 </r>
       <r>   13.8468    0.0000 </r>
       <r>   13.9493    0.0000 </r>
       <r>   13.9747    0.0000 </r>
       <r>   14.0210    0.0000 </r>
       <r>   14.0346    0.0000 </r>
       <r>   14.1190    0.0000 </r>
       <r>   14.1357    0.0000 </r>
       <r>   16.1169    0.0000 </r>
       <r>   16.1490    0.0000 </r>
       <r>   17.2326    0.0000 </r>
       <r>   17.2783    0.0000 </r>
      </set>
      <set comment="kpoint 6">
       <r>  -49.6049    1.0000 </r>
       <r>  -49.4127    1.0000 </r>
       <r>  -49.3880    1.0000 </r>
       <r>  -49.3765    1.0000 </r>
       <r>  -49.2950    1.0000 </r>
       <r>  -49.2780    1.0000 </r>
       <r>  -24.2704    1.0000 </r>
       <r>  -23.7068    1.0000 </r>
       <r>  -23.6421    1.0000 </r>
       <r>  -23.5679    1.0000 </r>
       <r>  -23.3570    1.0000 </r>
       <r>  -23.3186    1.0000 </r>
       <r>  -23.3118    1.0000 </r>
       <r>  -22.7810    1.0000 </r>
       <r>  -22.7376    1.0000 </r>
       <r>  -22.6910    1.0000 </r>
       <r>  -22.6546    1.0000 </r>
       <r>  -22.5712    1.0000 </r>
       <r>  -22.5465    1.0000 </r>
       <r>  -22.4546    1.0000 </r>
       <r>  -22.4225    1.0000 </r>
       <r>  -22.3789    1.0000 </r>
       <r>  -22.3766    1.0000 </r>
       <r>  -22.3561    1.0000 </r>
       <r>    1.6004    1.0000 </r>
       <r>    2.8074    1.0000 </r>
       <r>    3.6553    1.0000 </r>
       <r>    5.1866    1.0000 </r>
       <r>    5.6686    1.0000 </r>
       <r>    6.0666    1.0000 </r>
       <r>    8.2679    1.0000 </r>
       <r>    8.3574    1.0000 </r>
       <r>    8.4821    1.0000 </r>
       <r>    8.5831    1.0000 </r>
       <r>    8.6297    1.0000 </r>
       <r>    8.8029    1.0000 </r>
       <r>    9.3163    1.0000 </r>
       <r>    9.5971    1.0000 </r>
       <r>   10.0570    1.0000 </r>
       <r>   10.9675    1.0000 </r>
       <r>   11.0119    1.0000 </r>
       <r>   11.2734    1.0000 </r>
       <r>   11.4984    1.0000 </r>
       <r>   11.5917    1.0000 </r>
       <r>   11.8443    1.0000 </r>
       <r>   12.1619    1.0000 </r>
       <r>   12.2764    1.0000 </r>
       <r>   12.6157    1.0000 </r>
       <r>   13.0989    1.0000 </r>
       <r>   13.6535    0.0000 </r>
       <r>   13.6607    0.0000 </r>
       <r>   13.7756    0.0000 </r>
       <r>   14.3188    0.0000 </r>
       <r>   14.6532    0.0000 </r>
       <r>   14.7263    0.0000 </r>
       <r>   15.7206    0.0000 </r>
       <r>   16.4147    0.0000 </r>
       <r>   16.6758    0.0000 </r>
       <r>   16.8549    0.0000 </r>
       <r>   16.9533    0.0000 </r>
      </set>
      <set comment="kpoint 7">
       <r>  -49.5755    1.0000 </r>
       <r>  -49.4388    1.0000 </r>
       <r>  -49.3822    1.0000 </r>
       <r>  -49.3571    1.0000 </r>
       <r>  -49.3136    1.0000 </r>
       <r>  -49.2895    1.0000 </r>
       <r>  -24.1398    1.0000 </r>
       <r>  -23.7388    1.0000 </r>
       <r>  -23.5424    1.0000 </r>
       <r>  -23.4156    1.0000 </r>
       <r>  -23.3052    1.0000 </r>
       <r>  -23.2597    1.0000 </r>
       <r>  -23.2238    1.0000 </r>
       <r>  -22.8783    1.0000 </r>
       <r>  -22.8115    1.0000 </r>
       <r>  -22.7754    1.0000 </r>
       <r>  -22.6838    1.0000 </r>
       <r>  -22.6483    1.0000 </r>
       <r>  -22.6400    1.0000 </r>
       <r>  -22.4830    1.0000 </r>
       <r>  -22.4264    1.0000 </r>
       <r>  -22.4259    1.0000 </r>
       <r>  -22.4177    1.0000 </r>
       <r>  -22.3984    1.0000 </r>
       <r>    2.1158    1.0000 </r>
       <r>    3.2020    1.0000 </r>
       <r>    3.8495    1.0000 </r>
       <r>    4.7290    1.0000 </r>
       <r>    6.1028    1.0000 </r>
       <r>    6.7661    1.0000 </r>
       <r>    7.9824    1.0000 </r>
       <r>    8.0626    1.0000 </r>
       <r>    8.3483    1.0000 </r>
       <r>    8.5050    1.0000 </r>
       <r>    8.8831    1.0000 </r>
       <r>    8.9302    1.0000 </r>
       <r>    8.9862    1.0000 </r>
       <r>    9.2809    1.0000 </r>
       <r>    9.7449    1.0000 </r>
       <r>   10.1645    1.0000 </r>
       <r>   10.2761    1.0000 </r>
       <r>   10.7338    1.0000 </r>
       <r>   11.2644    1.0000 </r>
       <r>   11.2854    1.0000 </r>
       <r>   12.2723    1.0000 </r>
       <r>   12.3680    1.0000 </r>
       <r>   12.7543    1.0000 </r>
       <r>   12.7727    1.0000 </r>
       <r>   13.0690    1.0000 </r>
       <r>   13.0851    1.0000 </r>
       <r>   13.6085    0.0000 </r>
       <r>   13.9958    0.0000 </r>
       <r>   14.5284    0.0000 </r>
       <r>   14.6205    0.0000 </r>
       <r>   14.7686    0.0000 </r>
       <r>   15.7551    0.0000 </r>
       <r>   16.0504    0.0000 </r>
       <r>   16.8787    0.0000 </r>
       <r>   17.0234    0.0000 </r>
       <r>   17.0940    0.0000 </r>
      </set>
      <set comment="kpoint 8">
       <r>  -49.5353    1.0000 </r>
       <r>  -49.4782    1.0000 </r>
       <r>  -49.3667    1.0000 </r>
       <r>  -49.3362    1.0000 </r>
       <r>  -49.3341    1.0000 </r>
       <r>  -49.3076    1.0000 </r>
       <r>  -23.9840    1.0000 </r>
       <r>  -23.8158    1.0000 </r>
       <r>  -23.3807    1.0000 </r>
       <r>  -23.2431    1.0000 </r>
       <r>  -23.2260    1.0000 </r>
       <r>  -23.1996    1.0000 </r>
       <r>  -23.1288    1.0000 </r>
       <r>  -23.0205    1.0000 </r>
       <r>  -22.9779    1.0000 </r>
       <r>  -22.8442    1.0000 </r>
       <r>  -22.8299    1.0000 </r>
       <r>  -22.7605    1.0000 </r>
       <r>  -22.5826    1.0000 </r>
       <r>  -22.4882    1.0000 </r>
       <r>  -22.4801    1.0000 </r>
       <r>  -22.4514    1.0000 </r>
       <r>  -22.4322    1.0000 </r>
       <r>  -22.4238    1.0000 </r>
       <r>    2.8175    1.0000 </r>
       <r>    3.6937    1.0000 </r>
       <r>    3.7512    1.0000 </r>
       <r>    4.2128    1.0000 </r>
       <r>    6.8490    1.0000 </r>
       <r>    7.4583    1.0000 </r>
       <r>    7.6314    1.0000 </r>
       <r>    7.6781    1.0000 </r>
       <r>    8.0838    1.0000 </r>
       <r>    8.5367    1.0000 </r>
       <r>    8.7782    1.0000 </r>
       <r>    8.8501    1.0000 </r>
       <r>    8.9395    1.0000 </r>
       <r>    9.1769    1.0000 </r>
       <r>    9.4221    1.0000 </r>
       <r>    9.5790    1.0000 </r>
       <r>    9.9830    1.0000 </r>
       <r>   10.4876    1.0000 </r>
       <r>   10.7865    1.0000 </r>
       <r>   10.8122    1.0000 </r>
       <r>   12.4693    1.0000 </r>
       <r>   12.6384    1.0000 </r>
       <r>   12.9082    1.0000 </r>
       <r>   13.1049    1.0000 </r>
       <r>   13.2420    1.0000 </r>
       <r>   13.4271    0.0000 </r>
       <r>   13.5335    0.0000 </r>
       <r>   14.1608    0.0000 </r>
       <r>   14.2796    0.0000 </r>
       <r>   14.5158    0.0000 </r>
       <r>   14.6494    0.0000 </r>
       <r>   14.7270    0.0000 </r>
       <r>   16.2272    0.0000 </r>
       <r>   16.6309    0.0000 </r>
       <r>   16.9286    0.0000 </r>
       <r>   17.1077    0.0000 </r>
      </set>
      <set comment="kpoint 9">
       <r>  -49.5225    1.0000 </r>
       <r>  -49.4902    1.0000 </r>
       <r>  -49.3589    1.0000 </r>
       <r>  -49.3459    1.0000 </r>
       <r>  -49.3299    1.0000 </r>
       <r>  -49.3109    1.0000 </r>
       <r>  -23.9372    1.0000 </r>
       <r>  -23.8477    1.0000 </r>
       <r>  -23.3085    1.0000 </r>
       <r>  -23.2556    1.0000 </r>
       <r>  -23.2261    1.0000 </r>
       <r>  -23.1536    1.0000 </r>
       <r>  -23.1324    1.0000 </r>
       <r>  -23.0064    1.0000 </r>
       <r>  -22.9715    1.0000 </r>
       <r>  -22.9538    1.0000 </r>
       <r>  -22.8130    1.0000 </r>
       <r>  -22.8067    1.0000 </r>
       <r>  -22.5565    1.0000 </r>
       <r>  -22.5120    1.0000 </r>
       <r>  -22.4758    1.0000 </r>
       <r>  -22.4603    1.0000 </r>
       <r>  -22.4511    1.0000 </r>
       <r>  -22.4098    1.0000 </r>
       <r>    3.0531    1.0000 </r>
       <r>    3.5611    1.0000 </r>
       <r>    3.8435    1.0000 </r>
       <r>    4.1383    1.0000 </r>
       <r>    7.2771    1.0000 </r>
       <r>    7.3663    1.0000 </r>
       <r>    7.4701    1.0000 </r>
       <r>    7.7339    1.0000 </r>
       <r>    7.8538    1.0000 </r>
       <r>    8.5417    1.0000 </r>
       <r>    8.7239    1.0000 </r>
       <r>    8.8291    1.0000 </r>
       <r>    9.0726    1.0000 </r>
       <r>    9.1722    1.0000 </r>
       <r>    9.2790    1.0000 </r>
       <r>    9.3934    1.0000 </r>
       <r>   10.2316    1.0000 </r>
       <r>   10.4657    1.0000 </r>
       <r>   10.5674    1.0000 </r>
       <r>   10.6928    1.0000 </r>
       <r>   12.4776    1.0000 </r>
       <r>   12.5524    1.0000 </r>
       <r>   13.0099    1.0000 </r>
       <r>   13.2523    1.0000 </r>
       <r>   13.3477    0.7222 </r>
       <r>   13.4481    0.0000 </r>
       <r>   13.6921    0.0000 </r>
       <r>   13.9756    0.0000 </r>
       <r>   14.3719    0.0000 </r>
       <r>   14.4693    0.0000 </r>
       <r>   14.5011    0.0000 </r>
       <r>   14.5449    0.0000 </r>
       <r>   16.1767    0.0000 </r>
       <r>   16.5822    0.0000 </r>
       <r>   16.7386    0.0000 </r>
       <r>   17.3409    0.0000 </r>
      </set>
      <set comment="kpoint 10">
       <r>  -49.5644    1.0000 </r>
       <r>  -49.4472    1.0000 </r>
       <r>  -49.3780    1.0000 </r>
       <r>  -49.3532    1.0000 </r>
       <r>  -49.3235    1.0000 </r>
       <r>  -49.2910    1.0000 </r>
       <r>  -24.0900    1.0000 </r>
       <r>  -23.7536    1.0000 </r>
       <r>  -23.4827    1.0000 </r>
       <r>  -23.3796    1.0000 </r>
       <r>  -23.3168    1.0000 </r>
       <r>  -23.2110    1.0000 </r>
       <r>  -23.1845    1.0000 </r>
       <r>  -22.8717    1.0000 </r>
       <r>  -22.8625    1.0000 </r>
       <r>  -22.8456    1.0000 </r>
       <r>  -22.7251    1.0000 </r>
       <r>  -22.6824    1.0000 </r>
       <r>  -22.6301    1.0000 </r>
       <r>  -22.4603    1.0000 </r>
       <r>  -22.4592    1.0000 </r>
       <r>  -22.4554    1.0000 </r>
       <r>  -22.4478    1.0000 </r>
       <r>  -22.3775    1.0000 </r>
       <r>    2.3219    1.0000 </r>
       <r>    3.3495    1.0000 </r>
       <r>    3.8945    1.0000 </r>
       <r>    4.5977    1.0000 </r>
       <r>    6.4522    1.0000 </r>
       <r>    6.8296    1.0000 </r>
       <r>    7.7943    1.0000 </r>
       <r>    7.8521    1.0000 </r>
       <r>    8.1937    1.0000 </r>
       <r>    8.7477    1.0000 </r>
       <r>    8.8544    1.0000 </r>
       <r>    8.9811    1.0000 </r>
       <r>    9.1082    1.0000 </r>
       <r>    9.1737    1.0000 </r>
       <r>    9.4699    1.0000 </r>
       <r>    9.9152    1.0000 </r>
       <r>   10.1231    1.0000 </r>
       <r>   10.6418    1.0000 </r>
       <r>   11.1158    1.0000 </r>
       <r>   11.1818    1.0000 </r>
       <r>   12.3168    1.0000 </r>
       <r>   12.4493    1.0000 </r>
       <r>   12.5909    1.0000 </r>
       <r>   12.8264    1.0000 </r>
       <r>   13.2573    1.0000 </r>
       <r>   13.3128    0.9989 </r>
       <r>   13.3585    0.4332 </r>
       <r>   14.3800    0.0000 </r>
       <r>   14.4016    0.0000 </r>
       <r>   14.5582    0.0000 </r>
       <r>   14.7126    0.0000 </r>
       <r>   15.4861    0.0000 </r>
       <r>   15.9043    0.0000 </r>
       <r>   16.5352    0.0000 </r>
       <r>   17.0213    0.0000 </r>
       <r>   17.3034    0.0000 </r>
      </set>
      <set comment="kpoint 11">
       <r>  -49.5974    1.0000 </r>
       <r>  -49.4129    1.0000 </r>
       <r>  -49.3904    1.0000 </r>
       <r>  -49.3742    1.0000 </r>
       <r>  -49.3033    1.0000 </r>
       <r>  -49.2774    1.0000 </r>
       <r>  -24.2333    1.0000 </r>
       <r>  -23.6981    1.0000 </r>
       <r>  -23.6151    1.0000 </r>
       <r>  -23.5436    1.0000 </r>
       <r>  -23.3738    1.0000 </r>
       <r>  -23.2953    1.0000 </r>
       <r>  -23.2643    1.0000 </r>
       <r>  -22.7823    1.0000 </r>
       <r>  -22.7570    1.0000 </r>
       <r>  -22.7073    1.0000 </r>
       <r>  -22.6891    1.0000 </r>
       <r>  -22.5778    1.0000 </r>
       <r>  -22.5680    1.0000 </r>
       <r>  -22.4561    1.0000 </r>
       <r>  -22.4429    1.0000 </r>
       <r>  -22.4189    1.0000 </r>
       <r>  -22.4076    1.0000 </r>
       <r>  -22.3364    1.0000 </r>
       <r>    1.7390    1.0000 </r>
       <r>    2.9114    1.0000 </r>
       <r>    3.7318    1.0000 </r>
       <r>    5.1691    1.0000 </r>
       <r>    5.8583    1.0000 </r>
       <r>    6.0698    1.0000 </r>
       <r>    8.1718    1.0000 </r>
       <r>    8.3038    1.0000 </r>
       <r>    8.4817    1.0000 </r>
       <r>    8.5262    1.0000 </r>
       <r>    8.6335    1.0000 </r>
       <r>    8.9934    1.0000 </r>
       <r>    9.2579    1.0000 </r>
       <r>    9.3949    1.0000 </r>
       <r>    9.8070    1.0000 </r>
       <r>   10.7320    1.0000 </r>
       <r>   10.8859    1.0000 </r>
       <r>   11.0978    1.0000 </r>
       <r>   11.4450    1.0000 </r>
       <r>   11.5630    1.0000 </r>
       <r>   12.1010    1.0000 </r>
       <r>   12.2189    1.0000 </r>
       <r>   12.2962    1.0000 </r>
       <r>   12.5284    1.0000 </r>
       <r>   12.7546    1.0000 </r>
       <r>   13.3421    0.8388 </r>
       <r>   13.7200    0.0000 </r>
       <r>   14.1737    0.0000 </r>
       <r>   14.5497    0.0000 </r>
       <r>   14.6198    0.0000 </r>
       <r>   14.8148    0.0000 </r>
       <r>   15.7469    0.0000 </r>
       <r>   16.2829    0.0000 </r>
       <r>   16.6495    0.0000 </r>
       <r>   16.6727    0.0000 </r>
       <r>   17.1506    0.0000 </r>
      </set>
      <set comment="kpoint 12">
       <r>  -49.6167    1.0000 </r>
       <r>  -49.3982    1.0000 </r>
       <r>  -49.3910    1.0000 </r>
       <r>  -49.3875    1.0000 </r>
       <r>  -49.2892    1.0000 </r>
       <r>  -49.2716    1.0000 </r>
       <r>  -24.3243    1.0000 </r>
       <r>  -23.6881    1.0000 </r>
       <r>  -23.6694    1.0000 </r>
       <r>  -23.6498    1.0000 </r>
       <r>  -23.3921    1.0000 </r>
       <r>  -23.3536    1.0000 </r>
       <r>  -23.3198    1.0000 </r>
       <r>  -22.7367    1.0000 </r>
       <r>  -22.7239    1.0000 </r>
       <r>  -22.7190    1.0000 </r>
       <r>  -22.6080    1.0000 </r>
       <r>  -22.5313    1.0000 </r>
       <r>  -22.4686    1.0000 </r>
       <r>  -22.4457    1.0000 </r>
       <r>  -22.4286    1.0000 </r>
       <r>  -22.3739    1.0000 </r>
       <r>  -22.3611    1.0000 </r>
       <r>  -22.3177    1.0000 </r>
       <r>    1.3980    1.0000 </r>
       <r>    2.6495    1.0000 </r>
       <r>    3.5571    1.0000 </r>
       <r>    5.4931    1.0000 </r>
       <r>    5.5569    1.0000 </r>
       <r>    5.6198    1.0000 </r>
       <r>    8.3405    1.0000 </r>
       <r>    8.3611    1.0000 </r>
       <r>    8.3835    1.0000 </r>
       <r>    8.4402    1.0000 </r>
       <r>    8.8172    1.0000 </r>
       <r>    8.8216    1.0000 </r>
       <r>    9.7740    1.0000 </r>
       <r>    9.7862    1.0000 </r>
       <r>   10.0523    1.0000 </r>
       <r>   11.4020    1.0000 </r>
       <r>   11.4541    1.0000 </r>
       <r>   11.4939    1.0000 </r>
       <r>   11.5408    1.0000 </r>
       <r>   11.6937    1.0000 </r>
       <r>   11.8440    1.0000 </r>
       <r>   12.0176    1.0000 </r>
       <r>   12.0822    1.0000 </r>
       <r>   12.1710    1.0000 </r>
       <r>   13.0814    1.0000 </r>
       <r>   13.3572    0.4692 </r>
       <r>   13.9593    0.0000 </r>
       <r>   13.9779    0.0000 </r>
       <r>   14.5509    0.0000 </r>
       <r>   14.7483    0.0000 </r>
       <r>   14.9322    0.0000 </r>
       <r>   15.5090    0.0000 </r>
       <r>   15.6313    0.0000 </r>
       <r>   16.8084    0.0000 </r>
       <r>   16.8499    0.0000 </r>
       <r>   17.0076    0.0000 </r>
      </set>
      <set comment="kpoint 13">
       <r>  -49.5438    1.0000 </r>
       <r>  -49.4556    1.0000 </r>
       <r>  -49.3892    1.0000 </r>
       <r>  -49.3363    1.0000 </r>
       <r>  -49.3341    1.0000 </r>
       <r>  -49.2991    1.0000 </r>
       <r>  -24.0013    1.0000 </r>
       <r>  -23.7214    1.0000 </r>
       <r>  -23.5022    1.0000 </r>
       <r>  -23.2633    1.0000 </r>
       <r>  -23.2496    1.0000 </r>
       <r>  -23.1931    1.0000 </r>
       <r>  -23.1266    1.0000 </r>
       <r>  -23.0321    1.0000 </r>
       <r>  -23.0038    1.0000 </r>
       <r>  -22.7812    1.0000 </r>
       <r>  -22.7273    1.0000 </r>
       <r>  -22.6436    1.0000 </r>
       <r>  -22.6215    1.0000 </r>
       <r>  -22.5669    1.0000 </r>
       <r>  -22.5122    1.0000 </r>
       <r>  -22.4499    1.0000 </r>
       <r>  -22.4495    1.0000 </r>
       <r>  -22.4238    1.0000 </r>
       <r>    2.6814    1.0000 </r>
       <r>    3.6119    1.0000 </r>
       <r>    3.9955    1.0000 </r>
       <r>    4.4348    1.0000 </r>
       <r>    6.2923    1.0000 </r>
       <r>    7.5621    1.0000 </r>
       <r>    7.6849    1.0000 </r>
       <r>    7.9772    1.0000 </r>
       <r>    8.1015    1.0000 </r>
       <r>    8.2625    1.0000 </r>
       <r>    8.4946    1.0000 </r>
       <r>    8.9069    1.0000 </r>
       <r>    9.0499    1.0000 </r>
       <r>    9.2518    1.0000 </r>
       <r>    9.5159    1.0000 </r>
       <r>    9.5659    1.0000 </r>
       <r>    9.7363    1.0000 </r>
       <r>   10.6746    1.0000 </r>
       <r>   11.0919    1.0000 </r>
       <r>   11.1103    1.0000 </r>
       <r>   12.2766    1.0000 </r>
       <r>   12.5184    1.0000 </r>
       <r>   12.5521    1.0000 </r>
       <r>   12.8540    1.0000 </r>
       <r>   12.9503    1.0000 </r>
       <r>   13.3543    0.5505 </r>
       <r>   13.5225    0.0000 </r>
       <r>   14.2450    0.0000 </r>
       <r>   14.4648    0.0000 </r>
       <r>   14.7244    0.0000 </r>
       <r>   14.8833    0.0000 </r>
       <r>   15.1548    0.0000 </r>
       <r>   16.6277    0.0000 </r>
       <r>   16.9663    0.0000 </r>
       <r>   17.0699    0.0000 </r>
       <r>   17.3343    0.0000 </r>
      </set>
      <set comment="kpoint 14">
       <r>  -49.5036    1.0000 </r>
       <r>  -49.4862    1.0000 </r>
       <r>  -49.3824    1.0000 </r>
       <r>  -49.3592    1.0000 </r>
       <r>  -49.3167    1.0000 </r>
       <r>  -49.3109    1.0000 </r>
       <r>  -23.8460    1.0000 </r>
       <r>  -23.7778    1.0000 </r>
       <r>  -23.3714    1.0000 </r>
       <r>  -23.2226    1.0000 </r>
       <r>  -23.1908    1.0000 </r>
       <r>  -23.1852    1.0000 </r>
       <r>  -23.0960    1.0000 </r>
       <r>  -23.0785    1.0000 </r>
       <r>  -23.0656    1.0000 </r>
       <r>  -22.8315    1.0000 </r>
       <r>  -22.8066    1.0000 </r>
       <r>  -22.6979    1.0000 </r>
       <r>  -22.6022    1.0000 </r>
       <r>  -22.5702    1.0000 </r>
       <r>  -22.5551    1.0000 </r>
       <r>  -22.5235    1.0000 </r>
       <r>  -22.4729    1.0000 </r>
       <r>  -22.4110    1.0000 </r>
       <r>    3.3950    1.0000 </r>
       <r>    3.7615    1.0000 </r>
       <r>    4.0689    1.0000 </r>
       <r>    4.1007    1.0000 </r>
       <r>    6.8960    1.0000 </r>
       <r>    7.2530    1.0000 </r>
       <r>    7.5141    1.0000 </r>
       <r>    7.6179    1.0000 </r>
       <r>    8.3480    1.0000 </r>
       <r>    8.4757    1.0000 </r>
       <r>    8.5271    1.0000 </r>
       <r>    8.6470    1.0000 </r>
       <r>    8.6797    1.0000 </r>
       <r>    8.9966    1.0000 </r>
       <r>    9.2190    1.0000 </r>
       <r>    9.3074    1.0000 </r>
       <r>   10.2014    1.0000 </r>
       <r>   10.6879    1.0000 </r>
       <r>   10.7994    1.0000 </r>
       <r>   10.8281    1.0000 </r>
       <r>   12.2166    1.0000 </r>
       <r>   12.3113    1.0000 </r>
       <r>   12.4782    1.0000 </r>
       <r>   12.7586    1.0000 </r>
       <r>   13.1761    1.0000 </r>
       <r>   13.6857    0.0000 </r>
       <r>   14.0677    0.0000 </r>
       <r>   14.3626    0.0000 </r>
       <r>   14.3847    0.0000 </r>
       <r>   14.5182    0.0000 </r>
       <r>   14.6792    0.0000 </r>
       <r>   14.7253    0.0000 </r>
       <r>   16.1392    0.0000 </r>
       <r>   16.7919    0.0000 </r>
       <r>   16.9326    0.0000 </r>
       <r>   17.0544    0.0000 </r>
      </set>
      <set comment="kpoint 15">
       <r>  -49.5237    1.0000 </r>
       <r>  -49.4607    1.0000 </r>
       <r>  -49.3785    1.0000 </r>
       <r>  -49.3647    1.0000 </r>
       <r>  -49.3400    1.0000 </r>
       <r>  -49.2912    1.0000 </r>
       <r>  -23.8996    1.0000 </r>
       <r>  -23.7177    1.0000 </r>
       <r>  -23.4025    1.0000 </r>
       <r>  -23.3188    1.0000 </r>
       <r>  -23.2182    1.0000 </r>
       <r>  -23.1746    1.0000 </r>
       <r>  -23.0666    1.0000 </r>
       <r>  -22.9890    1.0000 </r>
       <r>  -22.9611    1.0000 </r>
       <r>  -22.9600    1.0000 </r>
       <r>  -22.7458    1.0000 </r>
       <r>  -22.7229    1.0000 </r>
       <r>  -22.6075    1.0000 </r>
       <r>  -22.5873    1.0000 </r>
       <r>  -22.5380    1.0000 </r>
       <r>  -22.5257    1.0000 </r>
       <r>  -22.4863    1.0000 </r>
       <r>  -22.3782    1.0000 </r>
       <r>    3.0843    1.0000 </r>
       <r>    3.8111    1.0000 </r>
       <r>    4.0194    1.0000 </r>
       <r>    4.5040    1.0000 </r>
       <r>    6.7717    1.0000 </r>
       <r>    7.1572    1.0000 </r>
       <r>    7.2430    1.0000 </r>
       <r>    7.7730    1.0000 </r>
       <r>    7.9655    1.0000 </r>
       <r>    8.5790    1.0000 </r>
       <r>    8.6201    1.0000 </r>
       <r>    8.8281    1.0000 </r>
       <r>    8.9057    1.0000 </r>
       <r>    8.9623    1.0000 </r>
       <r>    9.2165    1.0000 </r>
       <r>    9.4299    1.0000 </r>
       <r>   10.2421    1.0000 </r>
       <r>   10.5489    1.0000 </r>
       <r>   10.9025    1.0000 </r>
       <r>   11.1281    1.0000 </r>
       <r>   12.1613    1.0000 </r>
       <r>   12.2586    1.0000 </r>
       <r>   12.3316    1.0000 </r>
       <r>   12.6028    1.0000 </r>
       <r>   13.4869    0.0000 </r>
       <r>   13.6304    0.0000 </r>
       <r>   13.6776    0.0000 </r>
       <r>   14.0082    0.0000 </r>
       <r>   14.4114    0.0000 </r>
       <r>   14.6007    0.0000 </r>
       <r>   14.7763    0.0000 </r>
       <r>   15.0978    0.0000 </r>
       <r>   15.8735    0.0000 </r>
       <r>   16.6161    0.0000 </r>
       <r>   17.0728    0.0000 </r>
       <r>   17.1556    0.0000 </r>
      </set>
      <set comment="kpoint 16">
       <r>  -49.5588    1.0000 </r>
       <r>  -49.4217    1.0000 </r>
       <r>  -49.3911    1.0000 </r>
       <r>  -49.3658    1.0000 </r>
       <r>  -49.3424    1.0000 </r>
       <r>  -49.2779    1.0000 </r>
       <r>  -24.0456    1.0000 </r>
       <r>  -23.6371    1.0000 </r>
       <r>  -23.5400    1.0000 </r>
       <r>  -23.3824    1.0000 </r>
       <r>  -23.3765    1.0000 </r>
       <r>  -23.1539    1.0000 </r>
       <r>  -23.1294    1.0000 </r>
       <r>  -22.9326    1.0000 </r>
       <r>  -22.8452    1.0000 </r>
       <r>  -22.8340    1.0000 </r>
       <r>  -22.6991    1.0000 </r>
       <r>  -22.6845    1.0000 </r>
[...]
       <r>    4.5574    1.0000 </r>
       <r>    6.2883    1.0000 </r>
       <r>    7.1834    1.0000 </r>
       <r>    7.7866    1.0000 </r>
       <r>    7.8825    1.0000 </r>
       <r>    8.1601    1.0000 </r>
       <r>    8.4860    1.0000 </r>
       <r>    8.7016    1.0000 </r>
       <r>    9.0466    1.0000 </r>
       <r>    9.0957    1.0000 </r>
       <r>    9.1594    1.0000 </r>
       <r>    9.5421    1.0000 </r>
       <r>    9.7174    1.0000 </r>
       <r>    9.9861    1.0000 </r>
       <r>   10.6320    1.0000 </r>
       <r>   11.1346    1.0000 </r>
       <r>   11.1579    1.0000 </r>
       <r>   12.3279    1.0000 </r>
       <r>   12.4496    1.0000 </r>
       <r>   12.5187    1.0000 </r>
       <r>   12.9832    1.0000 </r>
       <r>   13.0324    1.0000 </r>
       <r>   13.3059    0.9998 </r>
       <r>   13.4464    0.0000 </r>
       <r>   14.1498    0.0000 </r>
       <r>   14.5518    0.0000 </r>
       <r>   14.6291    0.0000 </r>
       <r>   14.8120    0.0000 </r>
       <r>   15.3701    0.0000 </r>
       <r>   16.4014    0.0000 </r>
       <r>   16.6346    0.0000 </r>
       <r>   17.0261    0.0000 </r>
       <r>   17.2029    0.0000 </r>
      </set>
      <set comment="kpoint 165">
       <r>  -49.5498    1.0000 </r>
       <r>  -49.4342    1.0000 </r>
       <r>  -49.3889    1.0000 </r>
       <r>  -49.3557    1.0000 </r>
       <r>  -49.3519    1.0000 </r>
       <r>  -49.2775    1.0000 </r>
       <r>  -24.0142    1.0000 </r>
       <r>  -23.6513    1.0000 </r>
       <r>  -23.5342    1.0000 </r>
       <r>  -23.3609    1.0000 </r>
       <r>  -23.3230    1.0000 </r>
       <r>  -23.1325    1.0000 </r>
       <r>  -23.1228    1.0000 </r>
       <r>  -22.9749    1.0000 </r>
       <r>  -22.9363    1.0000 </r>
       <r>  -22.7918    1.0000 </r>
       <r>  -22.7394    1.0000 </r>
       <r>  -22.6441    1.0000 </r>
       <r>  -22.6161    1.0000 </r>
       <r>  -22.5741    1.0000 </r>
       <r>  -22.5207    1.0000 </r>
       <r>  -22.4913    1.0000 </r>
       <r>  -22.4806    1.0000 </r>
       <r>  -22.3595    1.0000 </r>
       <r>    2.5766    1.0000 </r>
       <r>    3.5139    1.0000 </r>
       <r>    4.0769    1.0000 </r>
       <r>    4.9142    1.0000 </r>
       <r>    6.1444    1.0000 </r>
       <r>    6.9200    1.0000 </r>
       <r>    7.4114    1.0000 </r>
       <r>    8.1157    1.0000 </r>
       <r>    8.3948    1.0000 </r>
       <r>    8.4112    1.0000 </r>
       <r>    8.5051    1.0000 </r>
       <r>    8.9312    1.0000 </r>
       <r>    9.0853    1.0000 </r>
       <r>    9.1758    1.0000 </r>
       <r>    9.3172    1.0000 </r>
       <r>    9.5927    1.0000 </r>
       <r>   10.1890    1.0000 </r>
       <r>   10.5963    1.0000 </r>
       <r>   11.2951    1.0000 </r>
       <r>   11.3901    1.0000 </r>
       <r>   12.1828    1.0000 </r>
       <r>   12.1864    1.0000 </r>
       <r>   12.2442    1.0000 </r>
       <r>   12.6592    1.0000 </r>
       <r>   12.8803    1.0000 </r>
       <r>   13.4063    0.0002 </r>
       <r>   13.7681    0.0000 </r>
       <r>   14.0350    0.0000 </r>
       <r>   14.5560    0.0000 </r>
       <r>   14.5887    0.0000 </r>
       <r>   14.9386    0.0000 </r>
       <r>   15.5594    0.0000 </r>
       <r>   15.9411    0.0000 </r>
       <r>   16.8579    0.0000 </r>
       <r>   17.3038    0.0000 </r>
       <r>   17.4851    0.0000 </r>
      </set>
     </set>
    </set>
   </array>
  </eigenvalues>
  <separator name="orbital magnetization" >
   <v name="MAGDIPOLOUT">      0.00000000      0.00000000      0.00000000</v>
  </separator>
  <dos>
   <i name="efermi">     13.35607769 </i>
   <total>
    <array>
     <dimension dim="1">gridpoints</dimension>
     <dimension dim="2">spin</dimension>
     <field>energy</field>
     <field>total</field>
     <field>integrated</field>
     <set>
      <set comment="spin 1">
       <r>   -53.0601     0.0000     0.0000 </r>
       <r>   -52.8084     0.0000     0.0000 </r>
       <r>   -52.5567     0.0000     0.0000 </r>
       <r>   -52.3051     0.0000     0.0000 </r>
       <r>   -52.0534     0.0000     0.0000 </r>
       <r>   -51.8017     0.0000     0.0000 </r>
       <r>   -51.5500     0.0000     0.0000 </r>
       <r>   -51.2983     0.0000     0.0000 </r>
       <r>   -51.0467     0.0000     0.0000 </r>
       <r>   -50.7950     0.0000     0.0000 </r>
       <r>   -50.5433     0.0000     0.0000 </r>
       <r>   -50.2916     0.0000     0.0000 </r>
       <r>   -50.0399     0.0000     0.0000 </r>
       <r>   -49.7883     0.0000     0.0000 </r>
       <r>   -49.5366     3.6218     0.9115 </r>
       <r>   -49.2849    31.9000    11.2370 </r>
       <r>   -49.0332     0.0000    12.0000 </r>
       <r>   -48.7815     0.0000    12.0000 </r>
       <r>   -48.5299     0.0000    12.0000 </r>
       <r>   -48.2782     0.0000    12.0000 </r>
       <r>   -48.0265     0.0000    12.0000 </r>
       <r>   -47.7748     0.0000    12.0000 </r>
       <r>   -47.5231     0.0000    12.0000 </r>
       <r>   -47.2715     0.0000    12.0000 </r>
       <r>   -47.0198     0.0000    12.0000 </r>
       <r>   -46.7681     0.0000    12.0000 </r>
       <r>   -46.5164     0.0000    12.0000 </r>
       <r>   -46.2647     0.0000    12.0000 </r>
       <r>   -46.0131     0.0000    12.0000 </r>
       <r>   -45.7614     0.0000    12.0000 </r>
       <r>   -45.5097     0.0000    12.0000 </r>
       <r>   -45.2580     0.0000    12.0000 </r>
       <r>   -45.0063     0.0000    12.0000 </r>
       <r>   -44.7547     0.0000    12.0000 </r>
       <r>   -44.5030     0.0000    12.0000 </r>
       <r>   -44.2513     0.0000    12.0000 </r>
       <r>   -43.9996     0.0000    12.0000 </r>
       <r>   -43.7479     0.0000    12.0000 </r>
       <r>   -43.4962     0.0000    12.0000 </r>
       <r>   -43.2446     0.0000    12.0000 </r>
       <r>   -42.9929     0.0000    12.0000 </r>
       <r>   -42.7412     0.0000    12.0000 </r>
       <r>   -42.4895     0.0000    12.0000 </r>
       <r>   -42.2378     0.0000    12.0000 </r>
       <r>   -41.9862     0.0000    12.0000 </r>
       <r>   -41.7345     0.0000    12.0000 </r>
       <r>   -41.4828     0.0000    12.0000 </r>
       <r>   -41.2311     0.0000    12.0000 </r>
       <r>   -40.9794     0.0000    12.0000 </r>
       <r>   -40.7278     0.0000    12.0000 </r>
       <r>   -40.4761     0.0000    12.0000 </r>
       <r>   -40.2244     0.0000    12.0000 </r>
       <r>   -39.9727     0.0000    12.0000 </r>
       <r>   -39.7210     0.0000    12.0000 </r>
       <r>   -39.4694     0.0000    12.0000 </r>
       <r>   -39.2177     0.0000    12.0000 </r>
       <r>   -38.9660     0.0000    12.0000 </r>
       <r>   -38.7143     0.0000    12.0000 </r>
       <r>   -38.4626     0.0000    12.0000 </r>
       <r>   -38.2110     0.0000    12.0000 </r>
       <r>   -37.9593     0.0000    12.0000 </r>
       <r>   -37.7076     0.0000    12.0000 </r>
       <r>   -37.4559     0.0000    12.0000 </r>
       <r>   -37.2042     0.0000    12.0000 </r>
       <r>   -36.9526     0.0000    12.0000 </r>
       <r>   -36.7009     0.0000    12.0000 </r>
       <r>   -36.4492     0.0000    12.0000 </r>
       <r>   -36.1975     0.0000    12.0000 </r>
       <r>   -35.9458     0.0000    12.0000 </r>
       <r>   -35.6942     0.0000    12.0000 </r>
       <r>   -35.4425     0.0000    12.0000 </r>
       <r>   -35.1908     0.0000    12.0000 </r>
       <r>   -34.9391     0.0000    12.0000 </r>
       <r>   -34.6874     0.0000    12.0000 </r>
       <r>   -34.4358     0.0000    12.0000 </r>
       <r>   -34.1841     0.0000    12.0000 </r>
       <r>   -33.9324     0.0000    12.0000 </r>
       <r>   -33.6807     0.0000    12.0000 </r>
       <r>   -33.4290     0.0000    12.0000 </r>
       <r>   -33.1773     0.0000    12.0000 </r>
       <r>   -32.9257     0.0000    12.0000 </r>
       <r>   -32.6740     0.0000    12.0000 </r>
       <r>   -32.4223     0.0000    12.0000 </r>
       <r>   -32.1706     0.0000    12.0000 </r>
       <r>   -31.9189     0.0000    12.0000 </r>
       <r>   -31.6673     0.0000    12.0000 </r>
       <r>   -31.4156     0.0000    12.0000 </r>
       <r>   -31.1639     0.0000    12.0000 </r>
       <r>   -30.9122     0.0000    12.0000 </r>
       <r>   -30.6605     0.0000    12.0000 </r>
       <r>   -30.4089     0.0000    12.0000 </r>
       <r>   -30.1572     0.0000    12.0000 </r>
       <r>   -29.9055     0.0000    12.0000 </r>
       <r>   -29.6538     0.0000    12.0000 </r>
       <r>   -29.4021     0.0000    12.0000 </r>
       <r>   -29.1505     0.0000    12.0000 </r>
       <r>   -28.8988     0.0000    12.0000 </r>
       <r>   -28.6471     0.0000    12.0000 </r>
       <r>   -28.3954     0.0000    12.0000 </r>
       <r>   -28.1437     0.0000    12.0000 </r>
       <r>   -27.8921     0.0000    12.0000 </r>
       <r>   -27.6404     0.0000    12.0000 </r>
       <r>   -27.3887     0.0000    12.0000 </r>
       <r>   -27.1370     0.0000    12.0000 </r>
       <r>   -26.8853     0.0000    12.0000 </r>
       <r>   -26.6337     0.0000    12.0000 </r>
       <r>   -26.3820     0.0000    12.0000 </r>
       <r>   -26.1303     0.0000    12.0000 </r>
       <r>   -25.8786     0.0000    12.0000 </r>
       <r>   -25.6269     0.0000    12.0000 </r>
       <r>   -25.3753     0.0000    12.0000 </r>
       <r>   -25.1236     0.0000    12.0000 </r>
       <r>   -24.8719     0.0000    12.0000 </r>
       <r>   -24.6202     0.0000    12.0000 </r>
       <r>   -24.3685     0.0140    12.0035 </r>
       <r>   -24.1169     1.3090    12.4024 </r>
       <r>   -23.8652     2.9434    13.3970 </r>
       <r>   -23.6135     7.0779    15.9689 </r>
       <r>   -23.3618     7.6073    18.6403 </r>
       <r>   -23.1101    16.5719    25.0215 </r>
       <r>   -22.8584    12.7382    29.9386 </r>
       <r>   -22.6068    19.1559    37.4462 </r>
       <r>   -22.3551    25.2561    47.4954 </r>
       <r>   -22.1034     0.0000    48.0000 </r>
       <r>   -21.8517     0.0000    48.0000 </r>
       <r>   -21.6000     0.0000    48.0000 </r>
       <r>   -21.3484     0.0000    48.0000 </r>
       <r>   -21.0967     0.0000    48.0000 </r>
       <r>   -20.8450     0.0000    48.0000 </r>
       <r>   -20.5933     0.0000    48.0000 </r>
       <r>   -20.3416     0.0000    48.0000 </r>
       <r>   -20.0900     0.0000    48.0000 </r>
       <r>   -19.8383     0.0000    48.0000 </r>
       <r>   -19.5866     0.0000    48.0000 </r>
       <r>   -19.3349     0.0000    48.0000 </r>
       <r>   -19.0832     0.0000    48.0000 </r>
       <r>   -18.8316     0.0000    48.0000 </r>
       <r>   -18.5799     0.0000    48.0000 </r>
       <r>   -18.3282     0.0000    48.0000 </r>
       <r>   -18.0765     0.0000    48.0000 </r>
       <r>   -17.8248     0.0000    48.0000 </r>
       <r>   -17.5732     0.0000    48.0000 </r>
       <r>   -17.3215     0.0000    48.0000 </r>
       <r>   -17.0698     0.0000    48.0000 </r>
       <r>   -16.8181     0.0000    48.0000 </r>
       <r>   -16.5664     0.0000    48.0000 </r>
       <r>   -16.3148     0.0000    48.0000 </r>
       <r>   -16.0631     0.0000    48.0000 </r>
       <r>   -15.8114     0.0000    48.0000 </r>
       <r>   -15.5597     0.0000    48.0000 </r>
       <r>   -15.3080     0.0000    48.0000 </r>
       <r>   -15.0564     0.0000    48.0000 </r>
       <r>   -14.8047     0.0000    48.0000 </r>
       <r>   -14.5530     0.0000    48.0000 </r>
       <r>   -14.3013     0.0000    48.0000 </r>
       <r>   -14.0496     0.0000    48.0000 </r>
       <r>   -13.7980     0.0000    48.0000 </r>
       <r>   -13.5463     0.0000    48.0000 </r>
       <r>   -13.2946     0.0000    48.0000 </r>
       <r>   -13.0429     0.0000    48.0000 </r>
       <r>   -12.7912     0.0000    48.0000 </r>
       <r>   -12.5395     0.0000    48.0000 </r>
       <r>   -12.2879     0.0000    48.0000 </r>
       <r>   -12.0362     0.0000    48.0000 </r>
       <r>   -11.7845     0.0000    48.0000 </r>
       <r>   -11.5328     0.0000    48.0000 </r>
       <r>   -11.2811     0.0000    48.0000 </r>
       <r>   -11.0295     0.0000    48.0000 </r>
       <r>   -10.7778     0.0000    48.0000 </r>
       <r>   -10.5261     0.0000    48.0000 </r>
       <r>   -10.2744     0.0000    48.0000 </r>
       <r>   -10.0227     0.0000    48.0000 </r>
       <r>    -9.7711     0.0000    48.0000 </r>
       <r>    -9.5194     0.0000    48.0000 </r>
       <r>    -9.2677     0.0000    48.0000 </r>
       <r>    -9.0160     0.0000    48.0000 </r>
       <r>    -8.7643     0.0000    48.0000 </r>
       <r>    -8.5127     0.0000    48.0000 </r>
       <r>    -8.2610     0.0000    48.0000 </r>
       <r>    -8.0093     0.0000    48.0000 </r>
       <r>    -7.7576     0.0000    48.0000 </r>
       <r>    -7.5059     0.0000    48.0000 </r>
       <r>    -7.2543     0.0000    48.0000 </r>
       <r>    -7.0026     0.0000    48.0000 </r>
       <r>    -6.7509     0.0000    48.0000 </r>
       <r>    -6.4992     0.0000    48.0000 </r>
       <r>    -6.2475     0.0000    48.0000 </r>
       <r>    -5.9959     0.0000    48.0000 </r>
       <r>    -5.7442     0.0000    48.0000 </r>
       <r>    -5.4925     0.0000    48.0000 </r>
       <r>    -5.2408     0.0000    48.0000 </r>
       <r>    -4.9891     0.0000    48.0000 </r>
       <r>    -4.7375     0.0000    48.0000 </r>
       <r>    -4.4858     0.0000    48.0000 </r>
       <r>    -4.2341     0.0000    48.0000 </r>
       <r>    -3.9824     0.0000    48.0000 </r>
       <r>    -3.7307     0.0000    48.0000 </r>
       <r>    -3.4790     0.0000    48.0000 </r>
       <r>    -3.2274     0.0000    48.0000 </r>
       <r>    -2.9757     0.0000    48.0000 </r>
       <r>    -2.7240     0.0000    48.0000 </r>
       <r>    -2.4723     0.0000    48.0000 </r>
       <r>    -2.2206     0.0000    48.0000 </r>
       <r>    -1.9690     0.0000    48.0000 </r>
       <r>    -1.7173     0.0000    48.0000 </r>
       <r>    -1.4656     0.0000    48.0000 </r>
       <r>    -1.2139     0.0000    48.0000 </r>
       <r>    -0.9622     0.0000    48.0000 </r>
       <r>    -0.7106     0.0000    48.0000 </r>
       <r>    -0.4589     0.0000    48.0000 </r>
       <r>    -0.2072     0.0000    48.0000 </r>
       <r>     0.0445     0.0000    48.0000 </r>
       <r>     0.2962     0.0000    48.0000 </r>
       <r>     0.5478     0.0000    48.0000 </r>
       <r>     0.7995     0.0000    48.0000 </r>
       <r>     1.0512     0.0000    48.0000 </r>
       <r>     1.3029     0.0155    48.0039 </r>
       <r>     1.5546     0.1121    48.0664 </r>
       <r>     1.8062     0.3870    48.2051 </r>
       <r>     2.0579     0.2976    48.2867 </r>
       <r>     2.3096     0.4648    48.4885 </r>
       <r>     2.5613     0.5268    48.6499 </r>
       <r>     2.8130     0.9351    48.9854 </r>
       <r>     3.0646     0.9065    49.3809 </r>
       <r>     3.3163     1.5253    49.9255 </r>
       <r>     3.5680     1.9991    50.6455 </r>
       <r>     3.8197     3.0674    51.7789 </r>
       <r>     4.0714     4.3918    53.4699 </r>
       <r>     4.3230     1.9893    54.5180 </r>
       <r>     4.5747     1.3528    55.0801 </r>
       <r>     4.8264     0.7190    55.3546 </r>
       <r>     5.0781     0.5178    55.5956 </r>
       <r>     5.3298     0.7528    55.9117 </r>
       <r>     5.5814     0.2832    56.0018 </r>
       <r>     5.8331     0.3811    56.2140 </r>
       <r>     6.0848     1.0069    56.5381 </r>
       <r>     6.3365     1.0403    56.9424 </r>
       <r>     6.5882     1.2970    57.5000 </r>
       <r>     6.8399     2.0546    58.3122 </r>
       <r>     7.0915     1.9728    59.1528 </r>
       <r>     7.3432     3.6198    60.4076 </r>
       <r>     7.5949     2.8265    61.7218 </r>
       <r>     7.8466     2.5144    62.6780 </r>
       <r>     8.0983     2.6753    63.6907 </r>
       <r>     8.3499     4.6340    65.3607 </r>
       <r>     8.6016     8.7245    68.5708 </r>
       <r>     8.8533     7.6103    71.5994 </r>
       <r>     9.1050     7.9544    75.1200 </r>
       <r>     9.3567     5.1513    77.3694 </r>
       <r>     9.6083     2.5526    78.5904 </r>
       <r>     9.8600     1.7610    79.2592 </r>
       <r>    10.1117     2.3577    80.0413 </r>
       <r>    10.3634     2.7915    81.1123 </r>
       <r>    10.6151     4.0951    82.5584 </r>
       <r>    10.8667     4.7971    84.3705 </r>
       <r>    11.1184     3.1708    85.6557 </r>
       <r>    11.3701     3.0399    86.8588 </r>
       <r>    11.6218     2.6140    87.9044 </r>
       <r>    11.8735     1.3217    88.3708 </r>
       <r>    12.1251     4.2668    89.6503 </r>
       <r>    12.3768     7.3949    92.4619 </r>
       <r>    12.6285     4.5029    94.3902 </r>
       <r>    12.8802     2.7021    95.6384 </r>
       <r>    13.1319     3.5190    96.8371 </r>
       <r>    13.3835     3.5149    98.1763 </r>
       <r>    13.6352     5.2928   100.0474 </r>
       <r>    13.8869     2.8936   101.5303 </r>
       <r>    14.1386     4.8739   103.2510 </r>
       <r>    14.3903     4.4910   104.9532 </r>
       <r>    14.6419     8.5876   107.9704 </r>
       <r>    14.8936     5.1359   110.1676 </r>
       <r>    15.1453     2.0793   111.0580 </r>
       <r>    15.3970     1.2053   111.6124 </r>
       <r>    15.6487     1.2506   112.0439 </r>
       <r>    15.9003     1.4664   112.6225 </r>
       <r>    16.1520     1.3393   113.1392 </r>
       <r>    16.4037     2.1278   113.9487 </r>
       <r>    16.6554     3.0449   115.0476 </r>
       <r>    16.9071     4.9932   116.9199 </r>
       <r>    17.1588     4.4500   118.7554 </r>
       <r>    17.4104     1.3475   119.4954 </r>
       <r>    17.6621     0.4258   119.6974 </r>
       <r>    17.9138     0.1104   119.7847 </r>
       <r>    18.1655     0.1229   119.8295 </r>
       <r>    18.4172     0.0575   119.8617 </r>
       <r>    18.6688     0.1064   119.9018 </r>
       <r>    18.9205     0.1308   119.9774 </r>
       <r>    19.1722     0.0000   120.0000 </r>
       <r>    19.4239     0.0000   120.0000 </r>
       <r>    19.6756     0.0000   120.0000 </r>
       <r>    19.9272     0.0000   120.0000 </r>
       <r>    20.1789     0.0000   120.0000 </r>
       <r>    20.4306     0.0000   120.0000 </r>
       <r>    20.6823     0.0000   120.0000 </r>
       <r>    20.9340     0.0000   120.0000 </r>
       <r>    21.1856     0.0000   120.0000 </r>
       <r>    21.4373     0.0000   120.0000 </r>
       <r>    21.6890     0.0000   120.0000 </r>
       <r>    21.9407     0.0000   120.0000 </r>
       <r>    22.1924     0.0000   120.0000 </r>
       <r>    22.4440     0.0000   120.0000 </r>
      </set>
     </set>
    </array>
   </total>
  </dos>
 </calculation>
 <structure name="finalpos" >
  <crystal>
   <varray name="basis" >
    <v>       4.80312993       0.00000000      -2.73210697 </v>
    <v>      -1.62490337       4.51992768      -2.73210697 </v>
    <v>       0.00000000       0.00000000       5.52580000 </v>
   </varray>
   <i name="volume">    119.96401245 </i>
   <varray name="rec_basis" >
    <v>       0.20819757       0.07484654       0.00000000 </v>
    <v>       0.00000000       0.22124248       0.00000000 </v>
    <v>       0.10293859       0.14639452       0.18096927 </v>
   </varray>
  </crystal>
  <varray name="positions" >
   <v>       0.25000000       0.25000000       0.00000000 </v>
   <v>       0.75000000       0.75000000       0.00000000 </v>
   <v>       0.00000000       0.50000000       0.00000000 </v>
   <v>       0.00000000       0.00000000       0.00000000 </v>
   <v>       0.50000000       0.50000000       0.50000000 </v>
   <v>       0.50000000       0.00000000       0.00000000 </v>
   <v>       0.00000000       0.00000000       0.50000000 </v>
   <v>       0.50000000       0.50000000       0.00000000 </v>
   <v>       0.48613000       0.98613000       0.47226000 </v>
   <v>       0.00000000       0.50000000       0.50000000 </v>
  </varray>
 </structure>
</modeling>
