<?xml version="1.0" encoding="ISO-8859-1"?>
<modeling>
 <generator>
  <i name="program" type="string">vasp </i>
  <i name="version" type="string">6.2.0  </i>
  <i name="subversion" type="string">18Jan21 (build Jan 05 2022 15:41:44) complex                          parallel </i>
  <i name="platform" type="string">LinuxIFC </i>
  <i name="date" type="string">2025 05 07 </i>
  <i name="time" type="string">14:40:54 </i>
 </generator>
 <incar>
  <i type="string" name="SYSTEM">routine with relax: pwdword</i>
  <i type="string" name="PREC">Acc</i>
  <i type="int" name="IALGO">    38</i>
  <i type="string" name="ALGO">A</i>
  <i type="logical" name="ADDGRID"> T  </i>
  <i type="int" name="ICHARG">     2</i>
  <i type="int" name="NELM">   100</i>
  <i type="int" name="NELMIN">     6</i>
  <i name="EDIFF">      0.00000000</i>
  <i type="int" name="NSW">     0</i>
  <i type="int" name="ISIF">    -1</i>
  <i name="ENCUT">    600.00000000</i>
  <i type="logical" name="LREAL"> F  </i>
  <i type="int" name="ISMEAR">     0</i>
  <i name="SIGMA">      0.02000000</i>
  <i type="logical" name="LASPH"> T  </i>
  <i type="string" name="METAGGA">R2SCAN</i>
  <i type="logical" name="LMIXTAU"> F  </i>
 </incar>
 <primitive_cell>
  <structure name="primitive_cell" >
   <crystal>
    <varray name="basis" >
     <v>       5.54949845       0.00000000      -3.37202570 </v>
     <v>      -1.75588210       5.26439085      -3.37202570 </v>
     <v>       0.00000000       0.00000000       6.49365000 </v>
    </varray>
    <i name="volume">    189.71022409 </i>
    <varray name="rec_basis" >
     <v>       0.18019646       0.06010263       0.00000000 </v>
     <v>       0.00000000       0.18995550       0.00000000 </v>
     <v>       0.09357251       0.12985031       0.15399660 </v>
    </varray>
   </crystal>
   <varray name="positions" >
    <v>       0.50000000       0.00000000       0.50000000 </v>
    <v>       1.00000000       0.50000000       0.50000000 </v>
    <v>       0.74139000       0.24139000       0.98278000 </v>
    <v>       0.00000000       0.00000000       0.00000000 </v>
    <v>       0.25861000       0.75861000       0.01722000 </v>
    <v>       0.24139000       0.25861000       0.50000000 </v>
    <v>       0.75861000       0.74139000       0.50000000 </v>
    <v>       0.50000000       0.50000000       0.00000000 </v>
    <v>       0.25000000       0.25000000       0.00000000 </v>
    <v>       0.75000000       0.75000000       0.00000000 </v>
   </varray>
  </structure>
  <varray name="primitive_index" >
   <v type="int" >        1 </v>
   <v type="int" >        2 </v>
   <v type="int" >        3 </v>
   <v type="int" >        4 </v>
   <v type="int" >        5 </v>
   <v type="int" >        6 </v>
   <v type="int" >        7 </v>
   <v type="int" >        8 </v>
   <v type="int" >        9 </v>
   <v type="int" >       10 </v>
  </varray>
 </primitive_cell>
 <kpoints>
  <generation param="Gamma">
   <v type="int" name="divisions">       7        7        8 </v>
   <v name="usershift">      0.00000000       0.00000000       0.00000000 </v>
   <v name="genvec1">      0.14285714       0.00000000       0.00000000 </v>
   <v name="genvec2">      0.00000000       0.14285714       0.00000000 </v>
   <v name="genvec3">      0.00000000       0.00000000       0.12500000 </v>
   <v name="shift">      0.00000000       0.00000000       0.00000000 </v>
  </generation>
  <varray name="kpointlist" >
   <v>       0.00000000       0.00000000       0.00000000 </v>
   <v>       0.14285714      -0.00000000       0.00000000 </v>
   <v>       0.28571429       0.00000000       0.00000000 </v>
   <v>       0.42857143       0.00000000       0.00000000 </v>
   <v>       0.14285714       0.14285714       0.00000000 </v>
   <v>       0.28571429       0.14285714       0.00000000 </v>
   <v>       0.42857143       0.14285714       0.00000000 </v>
   <v>      -0.42857143       0.14285714       0.00000000 </v>
   <v>      -0.28571429       0.14285714       0.00000000 </v>
   <v>      -0.14285714       0.14285714       0.00000000 </v>
   <v>       0.28571429       0.28571429       0.00000000 </v>
   <v>       0.42857143       0.28571429       0.00000000 </v>
   <v>      -0.42857143       0.28571429       0.00000000 </v>
   <v>      -0.28571429       0.28571429       0.00000000 </v>
   <v>       0.42857143       0.42857143       0.00000000 </v>
   <v>      -0.42857143       0.42857143       0.00000000 </v>
   <v>       0.00000000       0.00000000       0.12500000 </v>
   <v>       0.14285714       0.00000000       0.12500000 </v>
   <v>       0.28571429       0.00000000       0.12500000 </v>
   <v>       0.42857143       0.00000000       0.12500000 </v>
   <v>      -0.42857143       0.00000000       0.12500000 </v>
   <v>      -0.28571429       0.00000000       0.12500000 </v>
   <v>      -0.14285714       0.00000000       0.12500000 </v>
   <v>       0.14285714       0.14285714       0.12500000 </v>
   <v>       0.28571429       0.14285714       0.12500000 </v>
   <v>       0.42857143       0.14285714       0.12500000 </v>
   <v>      -0.42857143       0.14285714       0.12500000 </v>
   <v>      -0.28571429       0.14285714       0.12500000 </v>
   <v>      -0.14285714       0.14285714       0.12500000 </v>
   <v>       0.28571429       0.28571429       0.12500000 </v>
   <v>       0.42857143       0.28571429       0.12500000 </v>
   <v>      -0.42857143       0.28571429       0.12500000 </v>
   <v>      -0.28571429       0.28571429       0.12500000 </v>
   <v>      -0.14285714       0.28571429       0.12500000 </v>
   <v>       0.42857143       0.42857143       0.12500000 </v>
   <v>      -0.42857143       0.42857143       0.12500000 </v>
   <v>      -0.28571429       0.42857143       0.12500000 </v>
   <v>      -0.14285714       0.42857143       0.12500000 </v>
   <v>      -0.42857143      -0.42857143       0.12500000 </v>
   <v>      -0.28571429      -0.42857143       0.12500000 </v>
   <v>      -0.14285714      -0.42857143       0.12500000 </v>
   <v>      -0.28571429      -0.28571429       0.12500000 </v>
   <v>      -0.14285714      -0.28571429       0.12500000 </v>
   <v>      -0.14285714      -0.14285714       0.12500000 </v>
   <v>       0.00000000       0.00000000       0.25000000 </v>
   <v>       0.14285714       0.00000000       0.25000000 </v>
   <v>       0.28571429       0.00000000       0.25000000 </v>
   <v>       0.42857143       0.00000000       0.25000000 </v>
   <v>      -0.42857143       0.00000000       0.25000000 </v>
   <v>      -0.28571429       0.00000000       0.25000000 </v>
   <v>      -0.14285714       0.00000000       0.25000000 </v>
   <v>       0.14285714       0.14285714       0.25000000 </v>
   <v>       0.28571429       0.14285714       0.25000000 </v>
   <v>       0.42857143       0.14285714       0.25000000 </v>
   <v>      -0.42857143       0.14285714       0.25000000 </v>
   <v>      -0.28571429       0.14285714       0.25000000 </v>
   <v>      -0.14285714       0.14285714       0.25000000 </v>
   <v>       0.28571429       0.28571429       0.25000000 </v>
   <v>       0.42857143       0.28571429       0.25000000 </v>
   <v>      -0.42857143       0.28571429       0.25000000 </v>
   <v>      -0.28571429       0.28571429       0.25000000 </v>
   <v>      -0.14285714       0.28571429       0.25000000 </v>
   <v>       0.42857143       0.42857143       0.25000000 </v>
   <v>      -0.42857143       0.42857143       0.25000000 </v>
   <v>      -0.28571429       0.42857143       0.25000000 </v>
   <v>      -0.14285714       0.42857143       0.25000000 </v>
   <v>      -0.42857143      -0.42857143       0.25000000 </v>
   <v>      -0.28571429      -0.42857143       0.25000000 </v>
   <v>      -0.14285714      -0.42857143       0.25000000 </v>
   <v>      -0.28571429      -0.28571429       0.25000000 </v>
   <v>      -0.14285714      -0.28571429       0.25000000 </v>
   <v>      -0.14285714      -0.14285714       0.25000000 </v>
   <v>      -0.00000000      -0.00000000       0.37500000 </v>
   <v>       0.14285714       0.00000000       0.37500000 </v>
   <v>       0.28571429       0.00000000       0.37500000 </v>
   <v>       0.42857143       0.00000000       0.37500000 </v>
   <v>      -0.42857143       0.00000000       0.37500000 </v>
   <v>      -0.28571429       0.00000000       0.37500000 </v>
   <v>      -0.14285714       0.00000000       0.37500000 </v>
   <v>       0.14285714       0.14285714       0.37500000 </v>
   <v>       0.28571429       0.14285714       0.37500000 </v>
   <v>       0.42857143       0.14285714       0.37500000 </v>
   <v>      -0.42857143       0.14285714       0.37500000 </v>
   <v>      -0.28571429       0.14285714       0.37500000 </v>
   <v>      -0.14285714       0.14285714       0.37500000 </v>
   <v>       0.28571429       0.28571429       0.37500000 </v>
   <v>       0.42857143       0.28571429       0.37500000 </v>
   <v>      -0.42857143       0.28571429       0.37500000 </v>
   <v>      -0.28571429       0.28571429       0.37500000 </v>
   <v>      -0.14285714       0.28571429       0.37500000 </v>
   <v>       0.42857143       0.42857143       0.37500000 </v>
   <v>      -0.42857143       0.42857143       0.37500000 </v>
   <v>      -0.28571429       0.42857143       0.37500000 </v>
   <v>      -0.14285714       0.42857143       0.37500000 </v>
   <v>      -0.42857143      -0.42857143       0.37500000 </v>
   <v>      -0.28571429      -0.42857143       0.37500000 </v>
   <v>      -0.14285714      -0.42857143       0.37500000 </v>
   <v>      -0.28571429      -0.28571429       0.37500000 </v>
   <v>      -0.14285714      -0.28571429       0.37500000 </v>
   <v>      -0.14285714      -0.14285714       0.37500000 </v>
   <v>       0.00000000       0.00000000       0.50000000 </v>
   <v>       0.14285714       0.00000000       0.50000000 </v>
   <v>       0.28571429       0.00000000       0.50000000 </v>
   <v>       0.42857143       0.00000000       0.50000000 </v>
   <v>       0.14285714       0.14285714       0.50000000 </v>
   <v>       0.28571429       0.14285714       0.50000000 </v>
   <v>       0.42857143       0.14285714       0.50000000 </v>
   <v>      -0.42857143       0.14285714       0.50000000 </v>
   <v>      -0.28571429       0.14285714       0.50000000 </v>
   <v>      -0.14285714       0.14285714       0.50000000 </v>
   <v>       0.28571429       0.28571429       0.50000000 </v>
   <v>       0.42857143       0.28571429       0.50000000 </v>
   <v>      -0.42857143       0.28571429       0.50000000 </v>
   <v>      -0.28571429       0.28571429       0.50000000 </v>
   <v>       0.42857143       0.42857143       0.50000000 </v>
   <v>      -0.42857143       0.42857143       0.50000000 </v>
  </varray>
  <varray name="weights" >
   <v>       0.00255102 </v>
   <v>       0.01020408 </v>
   <v>       0.01020408 </v>
   <v>       0.01020408 </v>
   <v>       0.00510204 </v>
   <v>       0.01020408 </v>
   <v>       0.01020408 </v>
   <v>       0.01020408 </v>
   <v>       0.01020408 </v>
   <v>       0.00510204 </v>
   <v>       0.00510204 </v>
   <v>       0.01020408 </v>
   <v>       0.01020408 </v>
   <v>       0.00510204 </v>
   <v>       0.00510204 </v>
   <v>       0.00510204 </v>
   <v>       0.00510204 </v>
   <v>       0.01020408 </v>
   <v>       0.01020408 </v>
   <v>       0.01020408 </v>
   <v>       0.01020408 </v>
   <v>       0.01020408 </v>
   <v>       0.01020408 </v>
   <v>       0.00510204 </v>
   <v>       0.01020408 </v>
   <v>       0.01020408 </v>
   <v>       0.01020408 </v>
   <v>       0.01020408 </v>
   <v>       0.01020408 </v>
   <v>       0.00510204 </v>
   <v>       0.01020408 </v>
   <v>       0.01020408 </v>
   <v>       0.01020408 </v>
   <v>       0.01020408 </v>
   <v>       0.00510204 </v>
   <v>       0.01020408 </v>
   <v>       0.01020408 </v>
   <v>       0.01020408 </v>
   <v>       0.00510204 </v>
   <v>       0.01020408 </v>
   <v>       0.01020408 </v>
   <v>       0.00510204 </v>
   <v>       0.01020408 </v>
   <v>       0.00510204 </v>
   <v>       0.00510204 </v>
   <v>       0.01020408 </v>
   <v>       0.01020408 </v>
   <v>       0.01020408 </v>
   <v>       0.01020408 </v>
   <v>       0.01020408 </v>
   <v>       0.01020408 </v>
   <v>       0.00510204 </v>
   <v>       0.01020408 </v>
   <v>       0.01020408 </v>
   <v>       0.01020408 </v>
   <v>       0.01020408 </v>
   <v>       0.01020408 </v>
   <v>       0.00510204 </v>
   <v>       0.01020408 </v>
   <v>       0.01020408 </v>
   <v>       0.01020408 </v>
   <v>       0.01020408 </v>
   <v>       0.00510204 </v>
   <v>       0.01020408 </v>
   <v>       0.01020408 </v>
   <v>       0.01020408 </v>
   <v>       0.00510204 </v>
   <v>       0.01020408 </v>
   <v>       0.01020408 </v>
   <v>       0.00510204 </v>
   <v>       0.01020408 </v>
   <v>       0.00510204 </v>
   <v>       0.00510204 </v>
   <v>       0.01020408 </v>
   <v>       0.01020408 </v>
   <v>       0.01020408 </v>
   <v>       0.01020408 </v>
   <v>       0.01020408 </v>
   <v>       0.01020408 </v>
   <v>       0.00510204 </v>
   <v>       0.01020408 </v>
   <v>       0.01020408 </v>
   <v>       0.01020408 </v>
   <v>       0.01020408 </v>
   <v>       0.01020408 </v>
   <v>       0.00510204 </v>
   <v>       0.01020408 </v>
   <v>       0.01020408 </v>
   <v>       0.01020408 </v>
   <v>       0.01020408 </v>
   <v>       0.00510204 </v>
   <v>       0.01020408 </v>
   <v>       0.01020408 </v>
   <v>       0.01020408 </v>
   <v>       0.00510204 </v>
   <v>       0.01020408 </v>
   <v>       0.01020408 </v>
   <v>       0.00510204 </v>
   <v>       0.01020408 </v>
   <v>       0.00510204 </v>
   <v>       0.00255102 </v>
   <v>       0.01020408 </v>
   <v>       0.01020408 </v>
   <v>       0.01020408 </v>
   <v>       0.00510204 </v>
   <v>       0.01020408 </v>
   <v>       0.01020408 </v>
   <v>       0.01020408 </v>
   <v>       0.01020408 </v>
   <v>       0.00510204 </v>
   <v>       0.00510204 </v>
   <v>       0.01020408 </v>
   <v>       0.01020408 </v>
   <v>       0.00510204 </v>
   <v>       0.00510204 </v>
   <v>       0.00510204 </v>
  </varray>
 </kpoints>
 <parameters>
  <separator name="general" >
   <i type="string" name="SYSTEM">routine with relax: pwdword</i>
   <i type="logical" name="LCOMPAT"> F  </i>
  </separator>
  <separator name="electronic" >
   <i type="string" name="PREC">acc</i>
   <i name="ENMAX">    600.00000000</i>
   <i name="ENAUG">    535.51400000</i>
   <i name="EDIFF">      0.00000000</i>
   <i type="int" name="IALGO">    58</i>
   <i type="int" name="IWAVPR">    10</i>
   <i type="int" name="NBANDS">    60</i>
   <i type="int" name="NBANDSLOW">    -1</i>
   <i type="int" name="NBANDSHIGH">    -1</i>
   <i name="NELECT">     98.00000000</i>
   <i type="int" name="TURBO">     0</i>
   <i type="int" name="IRESTART">     0</i>
   <i type="int" name="NREBOOT">     0</i>
   <i type="int" name="NMIN">     0</i>
   <i name="EREF">      0.00000000</i>
   <separator name="electronic smearing" >
    <i type="int" name="ISMEAR">     0</i>
    <i name="SIGMA">      0.02000000</i>
    <i name="KSPACING">      0.50000000</i>
    <i type="logical" name="KGAMMA"> T  </i>
    <i type="logical" name="KBLOWUP"> F  </i>
   </separator>
   <separator name="electronic projectors" >
    <i type="logical" name="LREAL"> F  </i>
    <v name="ROPT">      0.00000000      0.00000000      0.00000000</v>
    <i type="int" name="LMAXPAW">  -100</i>
    <i type="int" name="LMAXMIX">     2</i>
    <i type="logical" name="NLSPLINE"> F  </i>
   </separator>
   <separator name="electronic startup" >
    <i type="int" name="ISTART">     0</i>
    <i type="int" name="ICHARG">     2</i>
    <i type="int" name="INIWAV">     1</i>
   </separator>
   <separator name="electronic spin" >
    <i type="int" name="ISPIN">     1</i>
    <i type="logical" name="LNONCOLLINEAR"> F  </i>
    <v name="MAGMOM">      1.00000000      1.00000000      1.00000000      1.00000000      1.00000000      1.00000000      1.00000000      1.00000000      1.00000000      1.00000000</v>
    <i name="NUPDOWN">     -1.00000000</i>
    <i type="logical" name="LSORBIT"> F  </i>
    <v name="SAXIS">      0.00000000      0.00000000      1.00000000</v>
    <i type="logical" name="LSPIRAL"> F  </i>
    <v name="QSPIRAL">      0.00000000      0.00000000      0.00000000</v>
    <i type="logical" name="LZEROZ"> F  </i>
   </separator>
   <separator name="electronic exchange-correlation" >
    <i type="logical" name="LASPH"> T  </i>
    <i type="logical" name="LMETAGGA"> F  </i>
   </separator>
   <separator name="electronic convergence" >
    <i type="int" name="NELM">   100</i>
    <i type="int" name="NELMDL">    -5</i>
    <i type="int" name="NELMIN">     6</i>
    <i name="ENINI">    600.00000000</i>
    <separator name="electronic convergence detail" >
     <i type="logical" name="LDIAG"> T  </i>
     <i type="logical" name="LSUBROT"> F  </i>
     <i name="WEIMIN">      0.00000000</i>
     <i name="EBREAK">      0.00000000</i>
     <i name="DEPER">      0.30000000</i>
     <i type="int" name="NRMM">     4</i>
     <i name="TIME">      0.40000000</i>
    </separator>
   </separator>
   <separator name="electronic mixer" >
    <i name="AMIX">      0.40000000</i>
    <i name="BMIX">      1.00000000</i>
    <i name="AMIN">      0.10000000</i>
    <i name="AMIX_MAG">      1.60000000</i>
    <i name="BMIX_MAG">      1.00000000</i>
    <separator name="electronic mixer details" >
     <i type="int" name="IMIX">     4</i>
     <i type="logical" name="MIXFIRST"> F  </i>
     <i type="int" name="MAXMIX">   -45</i>
     <i name="WC">    100.00000000</i>
     <i type="int" name="INIMIX">     1</i>
     <i type="int" name="MIXPRE">     1</i>
     <i type="int" name="MREMOVE">     5</i>
    </separator>
   </separator>
   <separator name="electronic dipolcorrection" >
    <i type="logical" name="LDIPOL"> F  </i>
    <i type="logical" name="LMONO"> F  </i>
    <i type="int" name="IDIPOL">     0</i>
    <i name="EPSILON">      1.00000000</i>
    <v name="DIPOL">   -100.00000000   -100.00000000   -100.00000000</v>
    <i name="EFIELD">      0.00000000</i>
   </separator>
  </separator>
  <separator name="grids" >
   <i type="int" name="NGX">    54</i>
   <i type="int" name="NGY">    54</i>
   <i type="int" name="NGZ">    54</i>
   <i type="int" name="NGXF">   108</i>
   <i type="int" name="NGYF">   108</i>
   <i type="int" name="NGZF">   108</i>
   <i type="logical" name="ADDGRID"> T  </i>
  </separator>
  <separator name="ionic" >
   <i type="int" name="NSW">     0</i>
   <i type="int" name="IBRION">    -1</i>
   <i type="int" name="MDALGO">     0</i>
   <i type="int" name="ISIF">    -1</i>
   <i name="PSTRESS">      0.00000000</i>
   <i name="EDIFFG">      0.00000001</i>
   <i type="int" name="NFREE">     0</i>
   <i name="POTIM">      0.50000000</i>
   <i name="SMASS">     -3.00000000</i>
   <i name="SCALEE">      1.00000000</i>
  </separator>
  <separator name="ionic md" >
   <i name="TEBEG">      0.00010000</i>
   <i name="TEEND">      0.00010000</i>
   <i type="int" name="NBLOCK">     1</i>
   <i type="int" name="KBLOCK">     1</i>
   <i type="int" name="NPACO">   256</i>
   <i name="APACO">     16.00000000</i>
  </separator>
  <separator name="symmetry" >
   <i type="int" name="ISYM">     2</i>
   <i name="SYMPREC">      0.00001000</i>
  </separator>
  <separator name="dos" >
   <i type="int" name="LORBIT">     0</i>
   <v name="RWIGS">     -1.00000000     -1.00000000     -1.00000000</v>
   <i type="int" name="NEDOS">   301</i>
   <i name="EMIN">     10.00000000</i>
   <i name="EMAX">    -10.00000000</i>
   <i name="EFERMI">      0.00000000</i>
  </separator>
  <separator name="writing" >
   <i type="int" name="NWRITE">     2</i>
   <i type="logical" name="LWAVE"> T  </i>
   <i type="logical" name="LDOWNSAMPLE"> F  </i>
   <i type="logical" name="LCHARG"> T  </i>
   <i type="logical" name="LPARD"> F  </i>
   <i type="logical" name="LVTOT"> F  </i>
   <i type="logical" name="LVHAR"> F  </i>
   <i type="logical" name="LELF"> F  </i>
   <i type="logical" name="LOPTICS"> F  </i>
   <v name="STM">      0.00000000      0.00000000      0.00000000      0.00000000      0.00000000      0.00000000      0.00000000</v>
  </separator>
  <separator name="performance" >
   <i type="int" name="NPAR">     6</i>
   <i type="int" name="NSIM">     4</i>
   <i type="int" name="NBLK">    -1</i>
   <i type="logical" name="LPLANE"> T  </i>
   <i type="logical" name="LSCALAPACK"> T  </i>
   <i type="logical" name="LSCAAWARE"> F  </i>
   <i type="logical" name="LSCALU"> F  </i>
   <i type="logical" name="LASYNC"> F  </i>
   <i type="logical" name="LORBITALREAL"> F  </i>
  </separator>
  <separator name="miscellaneous" >
   <i type="int" name="IDIOT">     3</i>
   <i type="int" name="PHON_NSTRUCT">    -1</i>
   <i type="logical" name="LMUSIC"> F  </i>
   <v name="POMASS">     10.81100000     95.94000000     28.08500000</v>
   <v name="DARWINR">      0.00000000      0.00000000      0.00000000</v>
   <v name="DARWINV">      1.00000000      1.00000000      1.00000000</v>
   <i type="logical" name="LCORR"> T  </i>
  </separator>
  <i type="logical" name="GGA_COMPAT"> T  </i>
  <i type="logical" name="LBERRY"> F  </i>
  <i type="int" name="ICORELEVEL">     0</i>
  <i type="logical" name="LDAU"> F  </i>
  <i type="int" name="I_CONSTRAINED_M">     0</i>
  <separator name="electronic exchange-correlation" >
   <i type="string" name="GGA">--</i>
   <i type="int" name="VOSKOWN">     0</i>
   <i type="logical" name="LHFCALC"> F  </i>
   <i type="string" name="PRECFOCK"></i>
   <i type="logical" name="LSYMGRAD"> F  </i>
   <i type="logical" name="LHFONE"> F  </i>
   <i type="logical" name="LRHFCALC"> F  </i>
   <i type="logical" name="LTHOMAS"> F  </i>
   <i type="logical" name="LMODELHF"> F  </i>
   <i type="logical" name="LFOCKACE"> F  </i>
   <i name="ENCUT4O">     -1.00000000</i>
   <i type="int" name="EXXOEP">     0</i>
   <i type="int" name="FOURORBIT">     0</i>
   <i name="AEXX">      0.00000000</i>
   <i name="HFALPHA">      0.00000000</i>
   <i name="MCALPHA">      0.00000000</i>
   <i name="ALDAX">      1.00000000</i>
   <i name="AGGAX">      1.00000000</i>
   <i name="ALDAC">      1.00000000</i>
   <i name="AGGAC">      1.00000000</i>
   <i type="int" name="NKREDX">     1</i>
   <i type="int" name="NKREDY">     1</i>
   <i type="int" name="NKREDZ">     1</i>
   <i type="logical" name="SHIFTRED"> F  </i>
   <i type="logical" name="ODDONLY"> F  </i>
   <i type="logical" name="EVENONLY"> F  </i>
   <i type="int" name="LMAXFOCK">     0</i>
   <i type="int" name="NMAXFOCKAE">     0</i>
   <i type="logical" name="LFOCKAEDFT"> F  </i>
   <i name="HFSCREEN">      0.00000000</i>
   <i name="HFSCREENC">      0.00000000</i>
   <i type="int" name="NBANDSGWLOW">     0</i>
  </separator>
  <separator name="vdW DFT" >
   <i type="logical" name="LUSE_VDW"> F  </i>
   <i name="Zab_VDW">     -0.84910000</i>
   <i name="PARAM1">      0.12340000</i>
   <i name="PARAM2">      1.00000000</i>
   <i name="PARAM3">      0.00000000</i>
  </separator>
  <separator name="model GW" >
   <i type="int" name="MODEL_GW">     0</i>
   <i name="MODEL_EPS0">     11.38261345</i>
   <i name="MODEL_ALPHA">      1.00000000</i>
  </separator>
  <separator name="linear response parameters" >
   <i type="logical" name="LEPSILON"> F  </i>
   <i type="logical" name="LRPA"> F  </i>
   <i type="logical" name="LNABLA"> F  </i>
   <i type="logical" name="LVEL"> F  </i>
   <i type="int" name="KINTER">     0</i>
   <i name="CSHIFT">      0.10000000</i>
   <i name="OMEGAMAX">     -1.00000000</i>
   <i name="DEG_THRESHOLD">      0.00200000</i>
   <i name="RTIME">     -0.10000000</i>
   <i name="WPLASMAI">      0.00000000</i>
   <v name="DFIELD">      0.00000000      0.00000000      0.00000000</v>
   <v name="WPLASMA">      0.00000000      0.00000000      0.00000000      0.00000000      0.00000000      0.00000000      0.00000000      0.00000000      0.00000000</v>
  </separator>
  <separator name="orbital magnetization" >
   <i type="logical" name="NUCIND"> F  </i>
   <v name="MAGPOS">      0.00000000      0.00000000      0.00000000</v>
   <i type="logical" name="LNICSALL"> T  </i>
   <i type="logical" name="ORBITALMAG"> F  </i>
   <i type="logical" name="LMAGBLOCH"> F  </i>
   <i type="logical" name="LCHIMAG"> F  </i>
   <i type="logical" name="LGAUGE"> T  </i>
   <i type="int" name="MAGATOM">     0</i>
   <v name="MAGDIPOL">      0.00000000      0.00000000      0.00000000</v>
   <v name="AVECCONST">      0.00000000      0.00000000      0.00000000</v>
  </separator>
  <separator name="response functions" >
   <i type="logical" name="LFINITE_TEMPERATURE"> F  </i>
   <i type="logical" name="LADDER"> F  </i>
   <i type="logical" name="LRPAFORCE"> F  </i>
   <i type="logical" name="LFXC"> F  </i>
   <i type="logical" name="LHARTREE"> T  </i>
   <i type="int" name="IBSE">     0</i>
   <v type="int" name="KPOINT">    -1     0     0     0</v>
   <i type="logical" name="LTCTC"> F  </i>
   <i type="logical" name="LTCTE"> F  </i>
   <i type="logical" name="LTETE"> F  </i>
   <i type="logical" name="LTRIPLET"> F  </i>
   <i type="logical" name="LFXCEPS"> F  </i>
   <i type="logical" name="LFXHEG"> F  </i>
   <i type="int" name="NATURALO">     2</i>
   <i type="logical" name="LHOLEGF"> F  </i>
   <i type="logical" name="L2ORDER"> F  </i>
   <i type="logical" name="LDMP1"> F  </i>
   <i type="logical" name="LMP2LT"> F  </i>
   <i type="logical" name="LSMP2LT"> F  </i>
   <i type="logical" name="LGWLF"> F  </i>
   <i name="ENCUTGW">     -2.00000000</i>
   <i name="ENCUTGWSOFT">     -2.00000000</i>
   <i name="ENCUTLF">     -1.00000000</i>
   <i type="logical" name="LESF_SPLINES"> F  </i>
   <i type="int" name="LMAXMP2">    -1</i>
   <i name="SCISSOR">      0.00000000</i>
   <i type="int" name="NOMEGA">     0</i>
   <i type="int" name="NOMEGAR">     0</i>
   <i type="int" name="NBANDSGW">    -1</i>
   <i type="int" name="NBANDSO">    -1</i>
   <i type="int" name="NBANDSV">    -1</i>
   <i type="int" name="NELM">   100</i>
   <i type="int" name="NELMHF">     1</i>
   <i type="int" name="DIM">     3</i>
   <i type="int" name="IESPILON">     4</i>
   <i type="int" name="ANTIRES">     0</i>
   <i name="OMEGAMAX">    -30.00000000</i>
   <i name="OMEGAMIN">    -30.00000000</i>
   <i name="OMEGATL">   -200.00000000</i>
   <i type="int" name="OMEGAGRID">     0</i>
   <i name="CSHIFT">     -0.10000000</i>
   <i type="logical" name="LSELFENERGY"> F  </i>
   <i type="logical" name="LSPECTRAL"> F  </i>
   <i type="logical" name="LSPECTRALGW"> F  </i>
   <i type="logical" name="LSINGLES"> F  </i>
   <i type="logical" name="LFERMIGW"> F  </i>
   <i type="logical" name="ODDONLYGW"> F  </i>
   <i type="logical" name="EVENONLYGW"> F  </i>
   <i type="int" name="NKREDLFX">     1</i>
   <i type="int" name="NKREDLFY">     1</i>
   <i type="int" name="NKREDLFZ">     1</i>
   <i type="int" name="MAXMEM">  2800</i>
   <i type="int" name="TELESCOPE">     0</i>
   <i type="int" name="NTAUPAR">    -1</i>
   <i type="int" name="NOMEGAPAR">    -1</i>
   <i name="DAMP_NEWTON">      0.80000001</i>
   <i name="LAMBDA">      1.00000000</i>
  </separator>
  <separator name="External order field" >
   <i name="OFIELD_KAPPA">      0.00000000</i>
   <v name="OFIELD_K">      0.00000000      0.00000000      0.00000000</v>
   <i name="OFIELD_Q6_NEAR">      0.00000000</i>
   <i name="OFIELD_Q6_FAR">      0.00000000</i>
   <i name="OFIELD_A">      0.00000000</i>
  </separator>
 </parameters>
 <atominfo>
  <atoms>      10 </atoms>
  <types>       3 </types>
  <array name="atoms" >
   <dimension dim="1">ion</dimension>
   <field type="string">element</field>
   <field type="int">atomtype</field>
   <set>
    <rc><c>B </c><c>   1</c></rc>
    <rc><c>B </c><c>   1</c></rc>
    <rc><c>Mo</c><c>   2</c></rc>
    <rc><c>Mo</c><c>   2</c></rc>
    <rc><c>Mo</c><c>   2</c></rc>
    <rc><c>Mo</c><c>   2</c></rc>
    <rc><c>Mo</c><c>   2</c></rc>
    <rc><c>Mo</c><c>   2</c></rc>
    <rc><c>Si</c><c>   3</c></rc>
    <rc><c>Si</c><c>   3</c></rc>
   </set>
  </array>
  <array name="atomtypes" >
   <dimension dim="1">type</dimension>
   <field type="int">atomspertype</field>
   <field type="string">element</field>
   <field>mass</field>
   <field>valence</field>
   <field type="string">pseudopotential</field>
   <set>
    <rc><c>   2</c><c>B </c><c>     10.81100000</c><c>      3.00000000</c><c>  PAW_PBE B 06Sep2000                   </c></rc>
    <rc><c>   6</c><c>Mo</c><c>     95.94000000</c><c>     14.00000000</c><c>  PAW_PBE Mo_sv 02Feb2006               </c></rc>
    <rc><c>   2</c><c>Si</c><c>     28.08500000</c><c>      4.00000000</c><c>  PAW_PBE Si 05Jan2001                  </c></rc>
   </set>
  </array>
 </atominfo>
 <structure name="initialpos" >
  <crystal>
   <varray name="basis" >
    <v>       5.54949845       0.00000000      -3.37202570 </v>
    <v>      -1.75588210       5.26439085      -3.37202570 </v>
    <v>       0.00000000       0.00000000       6.49365000 </v>
   </varray>
   <i name="volume">    189.71022409 </i>
   <varray name="rec_basis" >
    <v>       0.18019646       0.06010263       0.00000000 </v>
    <v>       0.00000000       0.18995550       0.00000000 </v>
    <v>       0.09357251       0.12985031       0.15399660 </v>
   </varray>
  </crystal>
  <varray name="positions" >
   <v>       0.50000000       0.00000000       0.50000000 </v>
   <v>       0.00000000       0.50000000       0.50000000 </v>
   <v>       0.74139000       0.24139000       0.98278000 </v>
   <v>       0.00000000       0.00000000       0.00000000 </v>
   <v>       0.25861000       0.75861000       0.01722000 </v>
   <v>       0.24139000       0.25861000       0.50000000 </v>
   <v>       0.75861000       0.74139000       0.50000000 </v>
   <v>       0.50000000       0.50000000       0.00000000 </v>
   <v>       0.25000000       0.25000000       0.00000000 </v>
   <v>       0.75000000       0.75000000       0.00000000 </v>
  </varray>
 </structure>
 <calculation>
  <scstep>
   <time name="total">   29.37   29.69</time>
   <energy>
    <i name="alphaZ">    440.37924712 </i>
    <i name="ewald">  -7024.43727318 </i>
    <i name="hartreedc">  -4081.11278350 </i>
    <i name="XCdc">    464.19139410 </i>
    <i name="pawpsdc">   9166.97638771 </i>
    <i name="pawaedc">  -9126.13493418 </i>
    <i name="eentropy">     -0.00056364 </i>
    <i name="bandstr">   -316.26714347 </i>
    <i name="atom">  11522.16744521 </i>
    <i name="e_fr_energy">   1045.76177617 </i>
    <i name="e_wo_entrp">   1045.76233981 </i>
    <i name="e_0_energy">   1045.76205799 </i>
   </energy>
  </scstep>
  <scstep>
   <time name="total">   33.33   33.69</time>
   <energy>
    <i name="e_fr_energy">   -162.33865688 </i>
    <i name="e_wo_entrp">   -162.33743796 </i>
    <i name="e_0_energy">   -162.33804742 </i>
   </energy>
  </scstep>
  <scstep>
   <time name="total">   37.52   37.89</time>
   <energy>
    <i name="e_fr_energy">   -212.02536486 </i>
    <i name="e_wo_entrp">   -212.02336823 </i>
    <i name="e_0_energy">   -212.02436654 </i>
   </energy>
  </scstep>
  <scstep>
   <time name="total">   35.94   36.32</time>
   <energy>
    <i name="e_fr_energy">   -213.28834763 </i>
    <i name="e_wo_entrp">   -213.28665877 </i>
    <i name="e_0_energy">   -213.28750320 </i>
   </energy>
  </scstep>
  <scstep>
   <time name="total">   39.11   39.50</time>
   <energy>
    <i name="e_fr_energy">   -213.32258301 </i>
    <i name="e_wo_entrp">   -213.32084571 </i>
    <i name="e_0_energy">   -213.32171436 </i>
   </energy>
  </scstep>
  <scstep>
   <time name="total">   37.45   37.90</time>
   <energy>
    <i name="e_fr_energy">   -149.70176308 </i>
    <i name="e_wo_entrp">   -149.70012774 </i>
    <i name="e_0_energy">   -149.70094541 </i>
   </energy>
  </scstep>
  <scstep>
   <time name="total">   39.34   39.73</time>
   <energy>
    <i name="e_fr_energy">   -165.81998005 </i>
    <i name="e_wo_entrp">   -165.81825396 </i>
    <i name="e_0_energy">   -165.81911701 </i>
   </energy>
  </scstep>
  <scstep>
   <time name="total">   43.46   43.86</time>
   <energy>
    <i name="e_fr_energy">   -168.80491247 </i>
    <i name="e_wo_entrp">   -168.80306951 </i>
    <i name="e_0_energy">   -168.80399099 </i>
   </energy>
  </scstep>
  <scstep>
   <time name="total">   42.14   42.54</time>
   <energy>
    <i name="e_fr_energy">   -169.49893720 </i>
    <i name="e_wo_entrp">   -169.49724722 </i>
    <i name="e_0_energy">   -169.49809221 </i>
   </energy>
  </scstep>
  <scstep>
   <time name="total">   44.56   44.98</time>
   <energy>
    <i name="e_fr_energy">   -169.81002789 </i>
    <i name="e_wo_entrp">   -169.80826824 </i>
    <i name="e_0_energy">   -169.80914807 </i>
   </energy>
  </scstep>
  <scstep>
   <time name="total">   44.74   45.17</time>
   <energy>
    <i name="e_fr_energy">   -169.95029291 </i>
    <i name="e_wo_entrp">   -169.94858975 </i>
    <i name="e_0_energy">   -169.94944133 </i>
   </energy>
  </scstep>
  <scstep>
   <time name="total">   44.97   45.38</time>
   <energy>
    <i name="e_fr_energy">   -169.99883577 </i>
    <i name="e_wo_entrp">   -169.99719657 </i>
    <i name="e_0_energy">   -169.99801617 </i>
   </energy>
  </scstep>
  <scstep>
   <time name="total">   41.02   41.41</time>
   <energy>
    <i name="e_fr_energy">   -170.02330679 </i>
    <i name="e_wo_entrp">   -170.02165177 </i>
    <i name="e_0_energy">   -170.02247928 </i>
   </energy>
  </scstep>
  <scstep>
   <time name="total">   41.81   42.19</time>
   <energy>
    <i name="e_fr_energy">   -170.03607834 </i>
    <i name="e_wo_entrp">   -170.03447357 </i>
    <i name="e_0_energy">   -170.03527595 </i>
   </energy>
  </scstep>
  <scstep>
   <time name="total">   43.48   43.89</time>
   <energy>
    <i name="e_fr_energy">   -170.04325145 </i>
    <i name="e_wo_entrp">   -170.04168097 </i>
    <i name="e_0_energy">   -170.04246621 </i>
   </energy>
  </scstep>
  <scstep>
   <time name="total">   43.32   43.72</time>
   <energy>
    <i name="e_fr_energy">   -170.04689248 </i>
    <i name="e_wo_entrp">   -170.04533534 </i>
    <i name="e_0_energy">   -170.04611391 </i>
   </energy>
  </scstep>
  <scstep>
   <time name="total">   45.37   45.81</time>
   <energy>
    <i name="e_fr_energy">   -170.04856396 </i>
    <i name="e_wo_entrp">   -170.04701023 </i>
    <i name="e_0_energy">   -170.04778709 </i>
   </energy>
  </scstep>
  <scstep>
   <time name="total">   44.47   44.88</time>
   <energy>
    <i name="e_fr_energy">   -170.04924125 </i>
    <i name="e_wo_entrp">   -170.04768513 </i>
    <i name="e_0_energy">   -170.04846319 </i>
   </energy>
  </scstep>
  <scstep>
   <time name="total">   44.41   44.82</time>
   <energy>
    <i name="e_fr_energy">   -170.04952470 </i>
    <i name="e_wo_entrp">   -170.04796242 </i>
    <i name="e_0_energy">   -170.04874356 </i>
   </energy>
  </scstep>
  <scstep>
   <time name="total">   41.87   42.23</time>
   <energy>
    <i name="e_fr_energy">   -170.04965886 </i>
    <i name="e_wo_entrp">   -170.04808959 </i>
    <i name="e_0_energy">   -170.04887422 </i>
   </energy>
  </scstep>
  <scstep>
   <time name="total">   42.54   42.94</time>
   <energy>
    <i name="e_fr_energy">   -170.04972127 </i>
    <i name="e_wo_entrp">   -170.04814813 </i>
    <i name="e_0_energy">   -170.04893470 </i>
   </energy>
  </scstep>
  <scstep>
   <time name="total">   44.41   44.81</time>
   <energy>
    <i name="e_fr_energy">   -170.04974994 </i>
    <i name="e_wo_entrp">   -170.04817674 </i>
    <i name="e_0_energy">   -170.04896334 </i>
   </energy>
  </scstep>
  <scstep>
   <time name="total">   45.11   45.52</time>
   <energy>
    <i name="e_fr_energy">   -170.04976019 </i>
    <i name="e_wo_entrp">   -170.04818755 </i>
    <i name="e_0_energy">   -170.04897387 </i>
   </energy>
  </scstep>
  <scstep>
   <time name="total">   44.65   45.05</time>
   <energy>
    <i name="e_fr_energy">   -170.04976421 </i>
    <i name="e_wo_entrp">   -170.04819218 </i>
    <i name="e_0_energy">   -170.04897820 </i>
   </energy>
  </scstep>
  <scstep>
   <time name="total">   45.60   46.01</time>
   <energy>
    <i name="e_fr_energy">   -170.04976611 </i>
    <i name="e_wo_entrp">   -170.04819469 </i>
    <i name="e_0_energy">   -170.04898040 </i>
   </energy>
  </scstep>
  <scstep>
   <time name="total">   43.26   43.66</time>
   <energy>
    <i name="e_fr_energy">   -170.04976687 </i>
    <i name="e_wo_entrp">   -170.04819582 </i>
    <i name="e_0_energy">   -170.04898135 </i>
   </energy>
  </scstep>
  <scstep>
   <time name="total">   43.75   44.15</time>
   <energy>
    <i name="e_fr_energy">   -170.04976723 </i>
    <i name="e_wo_entrp">   -170.04819620 </i>
    <i name="e_0_energy">   -170.04898171 </i>
   </energy>
  </scstep>
  <scstep>
   <time name="total">   45.59   46.02</time>
   <energy>
    <i name="e_fr_energy">   -170.04976739 </i>
    <i name="e_wo_entrp">   -170.04819630 </i>
    <i name="e_0_energy">   -170.04898184 </i>
   </energy>
  </scstep>
  <scstep>
   <time name="total">   44.87   45.28</time>
   <energy>
    <i name="e_fr_energy">   -170.04976743 </i>
    <i name="e_wo_entrp">   -170.04819624 </i>
    <i name="e_0_energy">   -170.04898184 </i>
   </energy>
  </scstep>
  <scstep>
   <time name="total">   44.08   44.48</time>
   <energy>
    <i name="e_fr_energy">   -170.04976746 </i>
    <i name="e_wo_entrp">   -170.04819621 </i>
    <i name="e_0_energy">   -170.04898184 </i>
   </energy>
  </scstep>
  <scstep>
   <time name="total">   44.35   44.76</time>
   <energy>
    <i name="e_fr_energy">   -170.04976748 </i>
    <i name="e_wo_entrp">   -170.04819617 </i>
    <i name="e_0_energy">   -170.04898182 </i>
   </energy>
  </scstep>
  <scstep>
   <time name="total">   44.27   44.66</time>
   <energy>
    <i name="e_fr_energy">   -170.04976748 </i>
    <i name="e_wo_entrp">   -170.04819619 </i>
    <i name="e_0_energy">   -170.04898183 </i>
   </energy>
  </scstep>
  <scstep>
   <time name="total">   43.45   43.84</time>
   <energy>
    <i name="e_fr_energy">   -170.04976749 </i>
    <i name="e_wo_entrp">   -170.04819620 </i>
    <i name="e_0_energy">   -170.04898184 </i>
   </energy>
  </scstep>
  <scstep>
   <time name="total">   43.83   44.22</time>
   <energy>
    <i name="e_fr_energy">   -170.04976749 </i>
    <i name="e_wo_entrp">   -170.04819620 </i>
    <i name="e_0_energy">   -170.04898185 </i>
   </energy>
  </scstep>
  <scstep>
   <time name="total">   45.38   45.77</time>
   <energy>
    <i name="e_fr_energy">   -170.04976749 </i>
    <i name="e_wo_entrp">   -170.04819621 </i>
    <i name="e_0_energy">   -170.04898185 </i>
   </energy>
  </scstep>
  <scstep>
   <time name="total">   51.16   51.62</time>
   <energy>
    <i name="alphaZ">    440.37924712 </i>
    <i name="ewald">  -7024.43727318 </i>
    <i name="hartreedc">  -4036.88666816 </i>
    <i name="XCdc">    475.92331431 </i>
    <i name="pawpsdc">  13164.86315423 </i>
    <i name="pawaedc"> -13141.58081740 </i>
    <i name="eentropy">     -0.00157128 </i>
    <i name="bandstr">  -1570.47659834 </i>
    <i name="atom">  11522.16744521 </i>
    <i name="e_fr_energy">   -170.04976749 </i>
    <i name="e_wo_entrp">   -170.04819621 </i>
    <i name="e_0_energy">   -170.04898185 </i>
   </energy>
  </scstep>
  <structure>
   <crystal>
    <varray name="basis" >
     <v>       5.54949845       0.00000000      -3.37202570 </v>
     <v>      -1.75588210       5.26439085      -3.37202570 </v>
     <v>       0.00000000       0.00000000       6.49365000 </v>
    </varray>
    <i name="volume">    189.71022409 </i>
    <varray name="rec_basis" >
     <v>       0.18019646       0.06010263       0.00000000 </v>
     <v>       0.00000000       0.18995550       0.00000000 </v>
     <v>       0.09357251       0.12985031       0.15399660 </v>
    </varray>
   </crystal>
   <varray name="positions" >
    <v>       0.50000000       0.00000000       0.50000000 </v>
    <v>       0.00000000       0.50000000       0.50000000 </v>
    <v>       0.74139000       0.24139000       0.98278000 </v>
    <v>       0.00000000       0.00000000       0.00000000 </v>
    <v>       0.25861000       0.75861000       0.01722000 </v>
    <v>       0.24139000       0.25861000       0.50000000 </v>
    <v>       0.75861000       0.74139000       0.50000000 </v>
    <v>       0.50000000       0.50000000       0.00000000 </v>
    <v>       0.25000000       0.25000000       0.00000000 </v>
    <v>       0.75000000       0.75000000       0.00000000 </v>
   </varray>
  </structure>
  <varray name="forces" >
   <v>       0.00000000       0.00000000       0.00000000 </v>
   <v>       0.00000000       0.00000000       0.00000000 </v>
   <v>       0.00000000       0.00000000       0.00000000 </v>
   <v>       0.00000000       0.00000000       0.00000000 </v>
   <v>       0.00000000       0.00000000       0.00000000 </v>
   <v>       0.00000000       0.00000000       0.00000000 </v>
   <v>       0.00000000       0.00000000       0.00000000 </v>
   <v>       0.00000000       0.00000000       0.00000000 </v>
   <v>       0.00000000       0.00000000       0.00000000 </v>
   <v>       0.00000000       0.00000000       0.00000000 </v>
  </varray>
  <varray name="stress" >
   <v>       0.00000000       0.00000000       0.00000000 </v>
   <v>       0.00000000       0.00000000       0.00000000 </v>
   <v>       0.00000000       0.00000000       0.00000000 </v>
  </varray>
  <energy>
   <i name="e_fr_energy">   -170.04976749 </i>
   <i name="e_wo_entrp">   -170.04819621 </i>
   <i name="e_0_energy">   -170.04898185 </i>
  </energy>
  <time name="totalsc"> 1539.68 1554.11</time>
  <eigenvalues>
   <array>
    <dimension dim="1">band</dimension>
    <dimension dim="2">kpoint</dimension>
    <dimension dim="3">spin</dimension>
    <field>eigene</field>
    <field>occ</field>
    <set>
     <set comment="spin 1">
      <set comment="kpoint 1">
       <r>  -56.5407    1.0000 </r>
       <r>  -56.0683    1.0000 </r>
       <r>  -56.0681    1.0000 </r>
       <r>  -56.0346    1.0000 </r>
       <r>  -55.7601    1.0000 </r>
       <r>  -55.2448    1.0000 </r>
       <r>  -31.8594    1.0000 </r>
       <r>  -31.8590    1.0000 </r>
       <r>  -29.9213    1.0000 </r>
       <r>  -29.8814    1.0000 </r>
       <r>  -29.7619    1.0000 </r>
       <r>  -29.6094    1.0000 </r>
       <r>  -29.6092    1.0000 </r>
       <r>  -29.5070    1.0000 </r>
       <r>  -29.4115    1.0000 </r>
       <r>  -29.4113    1.0000 </r>
       <r>  -29.3805    1.0000 </r>
       <r>  -29.2924    1.0000 </r>
       <r>  -29.2924    1.0000 </r>
       <r>  -29.1735    1.0000 </r>
       <r>  -29.1717    1.0000 </r>
       <r>  -28.8055    1.0000 </r>
       <r>  -27.3072    1.0000 </r>
       <r>  -27.3071    1.0000 </r>
       <r>   -2.5607    1.0000 </r>
       <r>   -1.0476    1.0000 </r>
       <r>   -0.3799    1.0000 </r>
       <r>    0.7439    1.0000 </r>
       <r>    1.1691    1.0000 </r>
       <r>    1.3879    1.0000 </r>
       <r>    2.1834    1.0000 </r>
       <r>    2.1835    1.0000 </r>
       <r>    2.2973    1.0000 </r>
       <r>    2.2975    1.0000 </r>
       <r>    2.4398    1.0000 </r>
       <r>    2.4810    1.0000 </r>
       <r>    3.3536    1.0000 </r>
       <r>    3.3537    1.0000 </r>
       <r>    3.6044    1.0000 </r>
       <r>    5.5788    1.0000 </r>
       <r>    5.9091    1.0000 </r>
       <r>    5.9091    1.0000 </r>
       <r>    5.9729    1.0000 </r>
       <r>    6.2628    1.0000 </r>
       <r>    6.2629    1.0000 </r>
       <r>    6.6078    1.0000 </r>
       <r>    6.6322    1.0000 </r>
       <r>    6.7049    1.0000 </r>
       <r>    6.8821    0.9987 </r>
       <r>    6.8823    0.9986 </r>
       <r>    6.9413    0.1188 </r>
       <r>    7.0019    0.0000 </r>
       <r>    7.1613    0.0000 </r>
       <r>    7.1613    0.0000 </r>
       <r>    7.7943    0.0000 </r>
       <r>    7.8952    0.0000 </r>
       <r>    8.5389    0.0000 </r>
       <r>    8.5407    0.0000 </r>
       <r>    9.0744    0.0000 </r>
       <r>    9.1449    0.0000 </r>
      </set>
      <set comment="kpoint 2">
       <r>  -56.5264    1.0000 </r>
       <r>  -56.1211    1.0000 </r>
       <r>  -56.0666    1.0000 </r>
       <r>  -56.0363    1.0000 </r>
       <r>  -55.7051    1.0000 </r>
       <r>  -55.2612    1.0000 </r>
       <r>  -31.8095    1.0000 </r>
       <r>  -31.8084    1.0000 </r>
       <r>  -30.2712    1.0000 </r>
       <r>  -30.2474    1.0000 </r>
       <r>  -29.7512    1.0000 </r>
       <r>  -29.5070    1.0000 </r>
       <r>  -29.4496    1.0000 </r>
       <r>  -29.4099    1.0000 </r>
       <r>  -29.3820    1.0000 </r>
       <r>  -29.3498    1.0000 </r>
       <r>  -29.3355    1.0000 </r>
       <r>  -29.2314    1.0000 </r>
       <r>  -29.1843    1.0000 </r>
       <r>  -29.1344    1.0000 </r>
       <r>  -29.1292    1.0000 </r>
       <r>  -28.8171    1.0000 </r>
       <r>  -27.3742    1.0000 </r>
       <r>  -27.3729    1.0000 </r>
       <r>   -2.4595    1.0000 </r>
       <r>   -0.9899    1.0000 </r>
       <r>   -0.4814    1.0000 </r>
       <r>    0.8271    1.0000 </r>
       <r>    0.9024    1.0000 </r>
       <r>    1.5201    1.0000 </r>
       <r>    2.1894    1.0000 </r>
       <r>    2.2953    1.0000 </r>
       <r>    2.3093    1.0000 </r>
       <r>    2.3318    1.0000 </r>
       <r>    2.5616    1.0000 </r>
       <r>    2.5709    1.0000 </r>
       <r>    3.0874    1.0000 </r>
       <r>    3.2632    1.0000 </r>
       <r>    3.9249    1.0000 </r>
       <r>    5.2896    1.0000 </r>
       <r>    5.5362    1.0000 </r>
       <r>    5.6061    1.0000 </r>
       <r>    5.7697    1.0000 </r>
       <r>    5.8236    1.0000 </r>
       <r>    6.2467    1.0000 </r>
       <r>    6.5322    1.0000 </r>
       <r>    6.5359    1.0000 </r>
       <r>    6.6172    1.0000 </r>
       <r>    6.8995    0.9617 </r>
       <r>    6.9617    0.0044 </r>
       <r>    6.9835    0.0000 </r>
       <r>    7.1616    0.0000 </r>
       <r>    7.1922    0.0000 </r>
       <r>    7.7134    0.0000 </r>
       <r>    7.7420    0.0000 </r>
       <r>    7.8028    0.0000 </r>
       <r>    8.4565    0.0000 </r>
       <r>    8.5588    0.0000 </r>
       <r>    9.0970    0.0000 </r>
       <r>    9.1248    0.0000 </r>
      </set>
      <set comment="kpoint 3">
       <r>  -56.4841    1.0000 </r>
       <r>  -56.2232    1.0000 </r>
       <r>  -56.0619    1.0000 </r>
       <r>  -56.0410    1.0000 </r>
       <r>  -55.5971    1.0000 </r>
       <r>  -55.3094    1.0000 </r>
       <r>  -31.6619    1.0000 </r>
       <r>  -31.6583    1.0000 </r>
       <r>  -30.7092    1.0000 </r>
       <r>  -30.6913    1.0000 </r>
       <r>  -29.7196    1.0000 </r>
       <r>  -29.5248    1.0000 </r>
       <r>  -29.4781    1.0000 </r>
       <r>  -29.4055    1.0000 </r>
       <r>  -29.3863    1.0000 </r>
       <r>  -29.3542    1.0000 </r>
       <r>  -29.2931    1.0000 </r>
       <r>  -29.2132    1.0000 </r>
       <r>  -29.0568    1.0000 </r>
       <r>  -28.8512    1.0000 </r>
       <r>  -28.7275    1.0000 </r>
       <r>  -28.7066    1.0000 </r>
       <r>  -27.5696    1.0000 </r>
       <r>  -27.5646    1.0000 </r>
       <r>   -2.1684    1.0000 </r>
       <r>   -0.8198    1.0000 </r>
       <r>   -0.7743    1.0000 </r>
       <r>    0.3642    1.0000 </r>
       <r>    1.0644    1.0000 </r>
       <r>    1.9079    1.0000 </r>
       <r>    2.0934    1.0000 </r>
       <r>    2.3073    1.0000 </r>
       <r>    2.4277    1.0000 </r>
       <r>    2.5826    1.0000 </r>
       <r>    2.6325    1.0000 </r>
       <r>    2.9187    1.0000 </r>
       <r>    3.0351    1.0000 </r>
       <r>    3.0915    1.0000 </r>
       <r>    4.4010    1.0000 </r>
       <r>    4.4639    1.0000 </r>
       <r>    4.6823    1.0000 </r>
       <r>    4.9743    1.0000 </r>
       <r>    5.3522    1.0000 </r>
       <r>    5.6216    1.0000 </r>
       <r>    5.7698    1.0000 </r>
       <r>    6.1173    1.0000 </r>
       <r>    6.2039    1.0000 </r>
       <r>    6.4138    1.0000 </r>
       <r>    6.6252    1.0000 </r>
       <r>    7.1961    0.0000 </r>
       <r>    7.2591    0.0000 </r>
       <r>    7.4566    0.0000 </r>
       <r>    7.7015    0.0000 </r>
       <r>    7.8455    0.0000 </r>
       <r>    8.0550    0.0000 </r>
       <r>    8.2491    0.0000 </r>
       <r>    8.7208    0.0000 </r>
       <r>    8.7539    0.0000 </r>
       <r>    9.2253    0.0000 </r>
       <r>    9.4033    0.0000 </r>
      </set>
      <set comment="kpoint 4">
       <r>  -56.4163    1.0000 </r>
       <r>  -56.3269    1.0000 </r>
       <r>  -56.0552    1.0000 </r>
       <r>  -56.0477    1.0000 </r>
       <r>  -55.4848    1.0000 </r>
       <r>  -55.3859    1.0000 </r>
       <r>  -31.4224    1.0000 </r>
       <r>  -31.4147    1.0000 </r>
       <r>  -31.1002    1.0000 </r>
       <r>  -31.0876    1.0000 </r>
       <r>  -29.6688    1.0000 </r>
       <r>  -29.6020    1.0000 </r>
       <r>  -29.4377    1.0000 </r>
       <r>  -29.3993    1.0000 </r>
       <r>  -29.3930    1.0000 </r>
       <r>  -29.3925    1.0000 </r>
       <r>  -29.2654    1.0000 </r>
       <r>  -29.2369    1.0000 </r>
       <r>  -28.9762    1.0000 </r>
       <r>  -28.9055    1.0000 </r>
       <r>  -28.2731    1.0000 </r>
       <r>  -28.2577    1.0000 </r>
       <r>  -27.8772    1.0000 </r>
       <r>  -27.8671    1.0000 </r>
       <r>   -1.7283    1.0000 </r>
       <r>   -1.2222    1.0000 </r>
       <r>   -0.5414    1.0000 </r>
       <r>   -0.1487    1.0000 </r>
       <r>    1.4145    1.0000 </r>
       <r>    1.7979    1.0000 </r>
       <r>    2.3382    1.0000 </r>
       <r>    2.4249    1.0000 </r>
       <r>    2.5310    1.0000 </r>
       <r>    2.5742    1.0000 </r>
       <r>    2.7372    1.0000 </r>
       <r>    3.1667    1.0000 </r>
       <r>    3.3981    1.0000 </r>
       <r>    3.4496    1.0000 </r>
       <r>    3.6694    1.0000 </r>
       <r>    4.0954    1.0000 </r>
       <r>    4.1742    1.0000 </r>
       <r>    4.4180    1.0000 </r>
       <r>    5.0301    1.0000 </r>
       <r>    5.6087    1.0000 </r>
       <r>    5.6771    1.0000 </r>
       <r>    5.7061    1.0000 </r>
       <r>    5.8736    1.0000 </r>
       <r>    5.9229    1.0000 </r>
       <r>    6.7282    1.0000 </r>
       <r>    6.9972    0.0000 </r>
       <r>    7.3814    0.0000 </r>
       <r>    7.5091    0.0000 </r>
       <r>    8.2565    0.0000 </r>
       <r>    8.4214    0.0000 </r>
       <r>    8.6107    0.0000 </r>
       <r>    8.7841    0.0000 </r>
       <r>    8.9027    0.0000 </r>
       <r>    8.9680    0.0000 </r>
       <r>    9.4829    0.0000 </r>
       <r>    9.7441    0.0000 </r>
      </set>
      <set comment="kpoint 5">
       <r>  -56.5130    1.0000 </r>
       <r>  -56.1563    1.0000 </r>
       <r>  -56.0683    1.0000 </r>
       <r>  -56.0381    1.0000 </r>
       <r>  -55.6648    1.0000 </r>
       <r>  -55.2762    1.0000 </r>
       <r>  -31.8544    1.0000 </r>
       <r>  -31.6651    1.0000 </r>
       <r>  -30.6931    1.0000 </r>
       <r>  -29.9017    1.0000 </r>
       <r>  -29.7418    1.0000 </r>
       <r>  -29.6759    1.0000 </r>
       <r>  -29.4745    1.0000 </r>
       <r>  -29.4474    1.0000 </r>
       <r>  -29.4112    1.0000 </r>
       <r>  -29.3838    1.0000 </r>
       <r>  -29.3212    1.0000 </r>
       <r>  -29.2978    1.0000 </r>
       <r>  -29.1601    1.0000 </r>
       <r>  -29.1046    1.0000 </r>
       <r>  -28.8283    1.0000 </r>
       <r>  -28.7328    1.0000 </r>
       <r>  -27.5632    1.0000 </r>
       <r>  -27.3103    1.0000 </r>
       <r>   -2.2744    1.0000 </r>
       <r>   -0.9225    1.0000 </r>
       <r>   -0.7243    1.0000 </r>
       <r>    0.7168    1.0000 </r>
       <r>    0.9093    1.0000 </r>
       <r>    1.5911    1.0000 </r>
       <r>    2.1852    1.0000 </r>
       <r>    2.2423    1.0000 </r>
       <r>    2.2562    1.0000 </r>
       <r>    2.3312    1.0000 </r>
       <r>    2.7272    1.0000 </r>
       <r>    2.7666    1.0000 </r>
       <r>    3.1113    1.0000 </r>
       <r>    3.2281    1.0000 </r>
       <r>    4.2042    1.0000 </r>
       <r>    4.7547    1.0000 </r>
       <r>    4.7674    1.0000 </r>
       <r>    5.4205    1.0000 </r>
       <r>    5.9029    1.0000 </r>
       <r>    5.9923    1.0000 </r>
       <r>    6.1966    1.0000 </r>
       <r>    6.4005    1.0000 </r>
       <r>    6.5494    1.0000 </r>
       <r>    6.7478    1.0000 </r>
       <r>    6.8086    1.0000 </r>
       <r>    6.8126    1.0000 </r>
       <r>    7.0437    0.0000 </r>
       <r>    7.1805    0.0000 </r>
       <r>    7.3332    0.0000 </r>
       <r>    7.4890    0.0000 </r>
       <r>    7.7935    0.0000 </r>
       <r>    7.9343    0.0000 </r>
       <r>    8.3187    0.0000 </r>
       <r>    8.8571    0.0000 </r>
       <r>    9.0926    0.0000 </r>
       <r>    9.3481    0.0000 </r>
      </set>
      <set comment="kpoint 6">
       <r>  -56.4736    1.0000 </r>
       <r>  -56.2384    1.0000 </r>
       <r>  -56.0653    1.0000 </r>
       <r>  -56.0432    1.0000 </r>
       <r>  -55.5763    1.0000 </r>
       <r>  -55.3201    1.0000 </r>
       <r>  -31.8000    1.0000 </r>
       <r>  -31.4283    1.0000 </r>
       <r>  -31.0827    1.0000 </r>
       <r>  -30.2745    1.0000 </r>
       <r>  -29.7127    1.0000 </r>
       <r>  -29.5346    1.0000 </r>
       <r>  -29.5024    1.0000 </r>
       <r>  -29.4083    1.0000 </r>
       <r>  -29.3886    1.0000 </r>
       <r>  -29.3573    1.0000 </r>
       <r>  -29.3170    1.0000 </r>
       <r>  -29.2707    1.0000 </r>
       <r>  -29.0731    1.0000 </r>
       <r>  -29.0403    1.0000 </r>
       <r>  -28.8598    1.0000 </r>
       <r>  -28.2792    1.0000 </r>
       <r>  -27.8630    1.0000 </r>
       <r>  -27.3795    1.0000 </r>
       <r>   -1.9089    1.0000 </r>
       <r>   -1.0755    1.0000 </r>
       <r>   -0.7543    1.0000 </r>
       <r>    0.2876    1.0000 </r>
       <r>    1.1385    1.0000 </r>
       <r>    1.8272    1.0000 </r>
       <r>    2.1100    1.0000 </r>
       <r>    2.1258    1.0000 </r>
       <r>    2.3812    1.0000 </r>
       <r>    2.4803    1.0000 </r>
       <r>    2.7423    1.0000 </r>
       <r>    3.1110    1.0000 </r>
       <r>    3.1712    1.0000 </r>
       <r>    3.4161    1.0000 </r>
       <r>    3.8348    1.0000 </r>
       <r>    4.0933    1.0000 </r>
       <r>    4.6574    1.0000 </r>
       <r>    4.9943    1.0000 </r>
       <r>    5.7272    1.0000 </r>
       <r>    5.8312    1.0000 </r>
       <r>    5.8726    1.0000 </r>
       <r>    6.0394    1.0000 </r>
       <r>    6.1420    1.0000 </r>
       <r>    6.2617    1.0000 </r>
       <r>    6.6334    1.0000 </r>
       <r>    7.0551    0.0000 </r>
       <r>    7.1752    0.0000 </r>
       <r>    7.2977    0.0000 </r>
       <r>    7.5190    0.0000 </r>
       <r>    7.7478    0.0000 </r>
       <r>    8.1542    0.0000 </r>
       <r>    8.5872    0.0000 </r>
       <r>    8.7194    0.0000 </r>
       <r>    9.0812    0.0000 </r>
       <r>    9.4178    0.0000 </r>
       <r>    9.5373    0.0000 </r>
      </set>
      <set comment="kpoint 7">
       <r>  -56.4108    1.0000 </r>
       <r>  -56.3294    1.0000 </r>
       <r>  -56.0585    1.0000 </r>
       <r>  -56.0505    1.0000 </r>
       <r>  -55.4782    1.0000 </r>
       <r>  -55.3894    1.0000 </r>
       <r>  -31.6485    1.0000 </r>
       <r>  -31.4059    1.0000 </r>
       <r>  -31.1075    1.0000 </r>
       <r>  -30.7163    1.0000 </r>
       <r>  -29.6658    1.0000 </r>
       <r>  -29.6022    1.0000 </r>
       <r>  -29.4375    1.0000 </r>
       <r>  -29.4020    1.0000 </r>
       <r>  -29.3954    1.0000 </r>
       <r>  -29.3889    1.0000 </r>
       <r>  -29.2793    1.0000 </r>
       <r>  -29.2565    1.0000 </r>
       <r>  -28.9697    1.0000 </r>
       <r>  -28.9093    1.0000 </r>
       <r>  -28.6839    1.0000 </r>
       <r>  -28.2481    1.0000 </r>
       <r>  -27.8834    1.0000 </r>
       <r>  -27.5757    1.0000 </r>
       <r>   -1.4951    1.0000 </r>
       <r>   -1.4113    1.0000 </r>
       <r>   -0.4949    1.0000 </r>
       <r>   -0.1690    1.0000 </r>
       <r>    1.4730    1.0000 </r>
       <r>    1.8151    1.0000 </r>
       <r>    2.1394    1.0000 </r>
       <r>    2.2742    1.0000 </r>
       <r>    2.4801    1.0000 </r>
       <r>    2.5123    1.0000 </r>
       <r>    2.8875    1.0000 </r>
       <r>    2.9134    1.0000 </r>
       <r>    3.2958    1.0000 </r>
       <r>    3.3763    1.0000 </r>
       <r>    3.7185    1.0000 </r>
       <r>    3.8804    1.0000 </r>
       <r>    4.4896    1.0000 </r>
       <r>    4.9476    1.0000 </r>
       <r>    5.2360    1.0000 </r>
       <r>    5.5464    1.0000 </r>
       <r>    5.6088    1.0000 </r>
       <r>    5.6340    1.0000 </r>
       <r>    5.8732    1.0000 </r>
       <r>    6.0725    1.0000 </r>
       <r>    6.7304    1.0000 </r>
       <r>    7.1871    0.0000 </r>
       <r>    7.2245    0.0000 </r>
       <r>    7.4154    0.0000 </r>
       <r>    7.9463    0.0000 </r>
       <r>    8.2862    0.0000 </r>
       <r>    8.4268    0.0000 </r>
       <r>    8.7692    0.0000 </r>
       <r>    8.9565    0.0000 </r>
       <r>    9.1318    0.0000 </r>
       <r>    9.5613    0.0000 </r>
       <r>    9.8085    0.0000 </r>
      </set>
      <set comment="kpoint 8">
       <r>  -56.4108    1.0000 </r>
       <r>  -56.3294    1.0000 </r>
       <r>  -56.0584    1.0000 </r>
       <r>  -56.0506    1.0000 </r>
       <r>  -55.4781    1.0000 </r>
       <r>  -55.3895    1.0000 </r>
       <r>  -31.6482    1.0000 </r>
       <r>  -31.4061    1.0000 </r>
       <r>  -31.1079    1.0000 </r>
       <r>  -30.7160    1.0000 </r>
       <r>  -29.6630    1.0000 </r>
       <r>  -29.6047    1.0000 </r>
       <r>  -29.4375    1.0000 </r>
       <r>  -29.4027    1.0000 </r>
       <r>  -29.3947    1.0000 </r>
       <r>  -29.3889    1.0000 </r>
       <r>  -29.2794    1.0000 </r>
       <r>  -29.2565    1.0000 </r>
       <r>  -28.9728    1.0000 </r>
       <r>  -28.9064    1.0000 </r>
       <r>  -28.6837    1.0000 </r>
       <r>  -28.2483    1.0000 </r>
       <r>  -27.8835    1.0000 </r>
       <r>  -27.5756    1.0000 </r>
       <r>   -1.9171    1.0000 </r>
       <r>   -0.8923    1.0000 </r>
       <r>   -0.5376    1.0000 </r>
       <r>   -0.1349    1.0000 </r>
       <r>    1.4578    1.0000 </r>
       <r>    1.8346    1.0000 </r>
       <r>    2.2413    1.0000 </r>
       <r>    2.2768    1.0000 </r>
       <r>    2.4302    1.0000 </r>
       <r>    2.6389    1.0000 </r>
       <r>    2.8073    1.0000 </r>
       <r>    2.8581    1.0000 </r>
       <r>    3.0223    1.0000 </r>
       <r>    3.2702    1.0000 </r>
       <r>    3.6506    1.0000 </r>
       <r>    4.1654    1.0000 </r>
       <r>    4.5788    1.0000 </r>
       <r>    4.9482    1.0000 </r>
       <r>    5.1275    1.0000 </r>
       <r>    5.1975    1.0000 </r>
       <r>    5.5882    1.0000 </r>
       <r>    5.9986    1.0000 </r>
       <r>    6.0691    1.0000 </r>
       <r>    6.2679    1.0000 </r>
       <r>    6.8949    0.9821 </r>
       <r>    7.1705    0.0000 </r>
       <r>    7.2475    0.0000 </r>
       <r>    7.3040    0.0000 </r>
       <r>    7.7857    0.0000 </r>
       <r>    8.1734    0.0000 </r>
       <r>    8.5395    0.0000 </r>
       <r>    8.7018    0.0000 </r>
       <r>    8.7853    0.0000 </r>
       <r>    9.1491    0.0000 </r>
       <r>    9.4316    0.0000 </r>
       <r>    9.5738    0.0000 </r>
      </set>
      <set comment="kpoint 9">
       <r>  -56.4736    1.0000 </r>
       <r>  -56.2384    1.0000 </r>
       <r>  -56.0651    1.0000 </r>
       <r>  -56.0432    1.0000 </r>
       <r>  -55.5762    1.0000 </r>
       <r>  -55.3201    1.0000 </r>
       <r>  -31.7997    1.0000 </r>
       <r>  -31.4287    1.0000 </r>
       <r>  -31.0829    1.0000 </r>
       <r>  -30.2742    1.0000 </r>
       <r>  -29.7104    1.0000 </r>
       <r>  -29.5364    1.0000 </r>
       <r>  -29.5023    1.0000 </r>
       <r>  -29.4088    1.0000 </r>
       <r>  -29.3881    1.0000 </r>
       <r>  -29.3573    1.0000 </r>
       <r>  -29.3170    1.0000 </r>
       <r>  -29.2707    1.0000 </r>
       <r>  -29.0730    1.0000 </r>
       <r>  -29.0430    1.0000 </r>
       <r>  -28.8576    1.0000 </r>
       <r>  -28.2793    1.0000 </r>
       <r>  -27.8632    1.0000 </r>
       <r>  -27.3794    1.0000 </r>
       <r>   -2.2573    1.0000 </r>
       <r>   -0.7975    1.0000 </r>
       <r>   -0.5271    1.0000 </r>
       <r>    0.3349    1.0000 </r>
       <r>    1.1288    1.0000 </r>
       <r>    1.8263    1.0000 </r>
       <r>    2.1205    1.0000 </r>
       <r>    2.3495    1.0000 </r>
       <r>    2.3822    1.0000 </r>
       <r>    2.6469    1.0000 </r>
       <r>    2.6998    1.0000 </r>
       <r>    2.7370    1.0000 </r>
       <r>    2.8586    1.0000 </r>
       <r>    3.1845    1.0000 </r>
       <r>    3.8079    1.0000 </r>
       <r>    4.5189    1.0000 </r>
       <r>    4.5819    1.0000 </r>
       <r>    5.0703    1.0000 </r>
       <r>    5.4404    1.0000 </r>
       <r>    5.7207    1.0000 </r>
       <r>    6.0522    1.0000 </r>
       <r>    6.1812    1.0000 </r>
       <r>    6.5534    1.0000 </r>
       <r>    6.6854    1.0000 </r>
       <r>    6.8471    1.0000 </r>
       <r>    7.0813    0.0000 </r>
       <r>    7.1191    0.0000 </r>
       <r>    7.1504    0.0000 </r>
       <r>    7.5880    0.0000 </r>
       <r>    7.6976    0.0000 </r>
       <r>    7.9776    0.0000 </r>
       <r>    8.2111    0.0000 </r>
       <r>    8.4294    0.0000 </r>
       <r>    9.0986    0.0000 </r>
       <r>    9.1816    0.0000 </r>
       <r>    9.4141    0.0000 </r>
      </set>
      <set comment="kpoint 10">
       <r>  -56.5130    1.0000 </r>
       <r>  -56.1564    1.0000 </r>
       <r>  -56.0681    1.0000 </r>
       <r>  -56.0381    1.0000 </r>
       <r>  -55.6648    1.0000 </r>
       <r>  -55.2762    1.0000 </r>
       <r>  -31.8541    1.0000 </r>
       <r>  -31.6655    1.0000 </r>
       <r>  -30.6933    1.0000 </r>
       <r>  -29.9013    1.0000 </r>
       <r>  -29.7405    1.0000 </r>
       <r>  -29.6757    1.0000 </r>
       <r>  -29.4754    1.0000 </r>
       <r>  -29.4473    1.0000 </r>
       <r>  -29.4114    1.0000 </r>
       <r>  -29.3836    1.0000 </r>
       <r>  -29.3213    1.0000 </r>
       <r>  -29.2978    1.0000 </r>
       <r>  -29.1601    1.0000 </r>
       <r>  -29.1063    1.0000 </r>
       <r>  -28.8271    1.0000 </r>
       <r>  -28.7329    1.0000 </r>
       <r>  -27.5633    1.0000 </r>
       <r>  -27.3102    1.0000 </r>
       <r>   -2.4503    1.0000 </r>
       <r>   -0.9488    1.0000 </r>
       <r>   -0.3975    1.0000 </r>
       <r>    0.7543    1.0000 </r>
       <r>    0.9046    1.0000 </r>
       <r>    1.5903    1.0000 </r>
       <r>    2.2138    1.0000 </r>
       <r>    2.2867    1.0000 </r>
       <r>    2.3290    1.0000 </r>
       <r>    2.4965    1.0000 </r>
       <r>    2.5253    1.0000 </r>
       <r>    2.7288    1.0000 </r>
       <r>    2.9772    1.0000 </r>
       <r>    2.9874    1.0000 </r>
       <r>    4.1323    1.0000 </r>
       <r>    4.7694    1.0000 </r>
       <r>    5.1079    1.0000 </r>
       <r>    5.4020    1.0000 </r>
       <r>    5.7904    1.0000 </r>
       <r>    5.8865    1.0000 </r>
       <r>    6.3844    1.0000 </r>
       <r>    6.5944    1.0000 </r>
       <r>    6.6387    1.0000 </r>
       <r>    6.8152    1.0000 </r>
       <r>    6.8954    0.9804 </r>
       <r>    7.0422    0.0000 </r>
       <r>    7.0597    0.0000 </r>
       <r>    7.0602    0.0000 </r>
       <r>    7.1824    0.0000 </r>
       <r>    7.5056    0.0000 </r>
       <r>    7.7849    0.0000 </r>
       <r>    7.8743    0.0000 </r>
       <r>    8.1675    0.0000 </r>
       <r>    8.7316    0.0000 </r>
       <r>    9.0733    0.0000 </r>
       <r>    9.4154    0.0000 </r>
      </set>
      <set comment="kpoint 11">
       <r>  -56.4429    1.0000 </r>
       <r>  -56.2807    1.0000 </r>
       <r>  -56.0683    1.0000 </r>
       <r>  -56.0493    1.0000 </r>
       <r>  -55.5244    1.0000 </r>
       <r>  -55.3511    1.0000 </r>
       <r>  -31.8431    1.0000 </r>
       <r>  -31.4002    1.0000 </r>
       <r>  -31.1135    1.0000 </r>
       <r>  -29.9022    1.0000 </r>
       <r>  -29.7574    1.0000 </r>
       <r>  -29.6903    1.0000 </r>
       <r>  -29.5645    1.0000 </r>
       <r>  -29.4107    1.0000 </r>
       <r>  -29.3944    1.0000 </r>
       <r>  -29.3846    1.0000 </r>
       <r>  -29.3298    1.0000 </r>
       <r>  -29.3193    1.0000 </r>
       <r>  -29.1315    1.0000 </r>
       <r>  -29.0018    1.0000 </r>
       <r>  -28.8826    1.0000 </r>
       <r>  -28.2405    1.0000 </r>
       <r>  -27.8884    1.0000 </r>
       <r>  -27.3173    1.0000 </r>
       <r>   -1.4978    1.0000 </r>
       <r>   -1.3884    1.0000 </r>
       <r>   -0.6114    1.0000 </r>
       <r>    0.0721    1.0000 </r>
       <r>    1.3357    1.0000 </r>
       <r>    1.7860    1.0000 </r>
       <r>    1.9985    1.0000 </r>
       <r>    2.0791    1.0000 </r>
       <r>    2.4004    1.0000 </r>
       <r>    2.4691    1.0000 </r>
       <r>    2.7703    1.0000 </r>
       <r>    2.9703    1.0000 </r>
       <r>    3.1759    1.0000 </r>
       <r>    3.3537    1.0000 </r>
       <r>    3.6984    1.0000 </r>
       <r>    3.8952    1.0000 </r>
       <r>    4.8633    1.0000 </r>
       <r>    4.9261    1.0000 </r>
       <r>    5.5481    1.0000 </r>
       <r>    5.7267    1.0000 </r>
       <r>    5.8534    1.0000 </r>
       <r>    5.9119    1.0000 </r>
       <r>    6.1918    1.0000 </r>
       <r>    6.5750    1.0000 </r>
       <r>    6.7470    1.0000 </r>
       <r>    6.8606    1.0000 </r>
       <r>    7.3441    0.0000 </r>
       <r>    7.4072    0.0000 </r>
       <r>    7.5467    0.0000 </r>
       <r>    7.6071    0.0000 </r>
       <r>    7.9859    0.0000 </r>
       <r>    8.6309    0.0000 </r>
       <r>    8.8390    0.0000 </r>
       <r>    9.2673    0.0000 </r>
       <r>    9.5978    0.0000 </r>
       <r>    9.6142    0.0000 </r>
      </set>
      <set comment="kpoint 12">
       <r>  -56.3957    1.0000 </r>
       <r>  -56.3381    1.0000 </r>
       <r>  -56.0651    1.0000 </r>
       <r>  -56.0575    1.0000 </r>
       <r>  -55.4607    1.0000 </r>
       <r>  -55.3997    1.0000 </r>
       <r>  -31.7885    1.0000 </r>
       <r>  -31.6387    1.0000 </r>
       <r>  -30.7285    1.0000 </r>
       <r>  -30.2931    1.0000 </r>
       <r>  -29.6549    1.0000 </r>
       <r>  -29.6066    1.0000 </r>
       <r>  -29.5019    1.0000 </r>
       <r>  -29.4075    1.0000 </r>
       <r>  -29.4020    1.0000 </r>
       <r>  -29.3882    1.0000 </r>
       <r>  -29.3302    1.0000 </r>
       <r>  -29.3130    1.0000 </r>
       <r>  -29.0176    1.0000 </r>
       <r>  -28.9556    1.0000 </r>
       <r>  -28.9176    1.0000 </r>
       <r>  -28.6590    1.0000 </r>
       <r>  -27.5825    1.0000 </r>
       <r>  -27.3868    1.0000 </r>
       <r>   -1.6997    1.0000 </r>
       <r>   -0.9997    1.0000 </r>
       <r>   -0.4037    1.0000 </r>
       <r>   -0.2201    1.0000 </r>
       <r>    1.6089    1.0000 </r>
       <r>    1.8354    1.0000 </r>
       <r>    1.9705    1.0000 </r>
       <r>    1.9857    1.0000 </r>
       <r>    2.3560    1.0000 </r>
       <r>    2.4609    1.0000 </r>
       <r>    2.5117    1.0000 </r>
       <r>    2.8064    1.0000 </r>
       <r>    2.9871    1.0000 </r>
       <r>    3.3310    1.0000 </r>
       <r>    3.5729    1.0000 </r>
       <r>    4.2245    1.0000 </r>
       <r>    4.7914    1.0000 </r>
       <r>    5.2561    1.0000 </r>
       <r>    5.3244    1.0000 </r>
       <r>    5.7212    1.0000 </r>
       <r>    5.7665    1.0000 </r>
       <r>    5.9021    1.0000 </r>
       <r>    6.1418    1.0000 </r>
       <r>    6.2662    1.0000 </r>
       <r>    6.7453    1.0000 </r>
       <r>    6.7936    1.0000 </r>
       <r>    7.2765    0.0000 </r>
       <r>    7.6931    0.0000 </r>
       <r>    7.8342    0.0000 </r>
       <r>    7.9797    0.0000 </r>
       <r>    8.1120    0.0000 </r>
       <r>    8.5315    0.0000 </r>
       <r>    9.0116    0.0000 </r>
       <r>    9.1434    0.0000 </r>
       <r>    9.2380    0.0000 </r>
       <r>    9.4654    0.0000 </r>
      </set>
      <set comment="kpoint 13">
       <r>  -56.3957    1.0000 </r>
       <r>  -56.3381    1.0000 </r>
       <r>  -56.0649    1.0000 </r>
       <r>  -56.0576    1.0000 </r>
       <r>  -55.4605    1.0000 </r>
       <r>  -55.3999    1.0000 </r>
       <r>  -31.7883    1.0000 </r>
       <r>  -31.6389    1.0000 </r>
       <r>  -30.7289    1.0000 </r>
       <r>  -30.2926    1.0000 </r>
       <r>  -29.6499    1.0000 </r>
       <r>  -29.6113    1.0000 </r>
       <r>  -29.5017    1.0000 </r>
       <r>  -29.4089    1.0000 </r>
       <r>  -29.4007    1.0000 </r>
       <r>  -29.3883    1.0000 </r>
       <r>  -29.3302    1.0000 </r>
       <r>  -29.3130    1.0000 </r>
       <r>  -29.0174    1.0000 </r>
       <r>  -28.9611    1.0000 </r>
       <r>  -28.9124    1.0000 </r>
       <r>  -28.6592    1.0000 </r>
       <r>  -27.5826    1.0000 </r>
       <r>  -27.3867    1.0000 </r>
       <r>   -1.9817    1.0000 </r>
       <r>   -0.5822    1.0000 </r>
       <r>   -0.4887    1.0000 </r>
       <r>   -0.1170    1.0000 </r>
       <r>    1.5783    1.0000 </r>
       <r>    1.8663    1.0000 </r>
       <r>    1.9841    1.0000 </r>
       <r>    2.0632    1.0000 </r>
       <r>    2.3153    1.0000 </r>
       <r>    2.4231    1.0000 </r>
       <r>    2.4623    1.0000 </r>
       <r>    2.5654    1.0000 </r>
       <r>    3.1239    1.0000 </r>
       <r>    3.2594    1.0000 </r>
       <r>    3.5006    1.0000 </r>
       <r>    4.3600    1.0000 </r>
       <r>    4.7816    1.0000 </r>
       <r>    5.1571    1.0000 </r>
       <r>    5.3271    1.0000 </r>
       <r>    5.4697    1.0000 </r>
       <r>    5.6996    1.0000 </r>
       <r>    6.3341    1.0000 </r>
       <r>    6.4195    1.0000 </r>
       <r>    6.5661    1.0000 </r>
       <r>    6.8380    1.0000 </r>
       <r>    6.8963    0.9771 </r>
       <r>    7.0539    0.0000 </r>
       <r>    7.2913    0.0000 </r>
       <r>    7.7440    0.0000 </r>
       <r>    8.1282    0.0000 </r>
       <r>    8.3335    0.0000 </r>
       <r>    8.7001    0.0000 </r>
       <r>    8.8934    0.0000 </r>
       <r>    9.0049    0.0000 </r>
       <r>    9.1294    0.0000 </r>
       <r>    9.2931    0.0000 </r>
      </set>
      <set comment="kpoint 14">
       <r>  -56.4430    1.0000 </r>
       <r>  -56.2807    1.0000 </r>
       <r>  -56.0681    1.0000 </r>
       <r>  -56.0494    1.0000 </r>
       <r>  -55.5242    1.0000 </r>
       <r>  -55.3513    1.0000 </r>
       <r>  -31.8429    1.0000 </r>
       <r>  -31.4004    1.0000 </r>
       <r>  -31.1140    1.0000 </r>
       <r>  -29.9017    1.0000 </r>
       <r>  -29.7571    1.0000 </r>
       <r>  -29.6862    1.0000 </r>
       <r>  -29.5680    1.0000 </r>
       <r>  -29.4117    1.0000 </r>
       <r>  -29.3934    1.0000 </r>
       <r>  -29.3845    1.0000 </r>
       <r>  -29.3299    1.0000 </r>
       <r>  -29.3193    1.0000 </r>
       <r>  -29.1314    1.0000 </r>
       <r>  -29.0064    1.0000 </r>
       <r>  -28.8786    1.0000 </r>
       <r>  -28.2407    1.0000 </r>
       <r>  -27.8885    1.0000 </r>
       <r>  -27.3172    1.0000 </r>
       <r>   -2.1844    1.0000 </r>
       <r>   -0.6858    1.0000 </r>
       <r>   -0.4319    1.0000 </r>
       <r>    0.1870    1.0000 </r>
       <r>    1.3150    1.0000 </r>
       <r>    1.7848    1.0000 </r>
       <r>    2.1225    1.0000 </r>
       <r>    2.1717    1.0000 </r>
       <r>    2.3161    1.0000 </r>
       <r>    2.4309    1.0000 </r>
       <r>    2.6639    1.0000 </r>
       <r>    2.7887    1.0000 </r>
       <r>    3.0152    1.0000 </r>
       <r>    3.0578    1.0000 </r>
       <r>    3.6173    1.0000 </r>
       <r>    4.2500    1.0000 </r>
       <r>    4.9118    1.0000 </r>
       <r>    5.0353    1.0000 </r>
       <r>    5.2203    1.0000 </r>
       <r>    5.4573    1.0000 </r>
       <r>    6.0546    1.0000 </r>
       <r>    6.6047    1.0000 </r>
       <r>    6.6857    1.0000 </r>
       <r>    6.8725    0.9999 </r>
       <r>    6.8816    0.9988 </r>
       <r>    6.9192    0.6469 </r>
       <r>    7.0233    0.0000 </r>
       <r>    7.4900    0.0000 </r>
       <r>    7.5231    0.0000 </r>
       <r>    7.7196    0.0000 </r>
       <r>    7.8610    0.0000 </r>
       <r>    8.2833    0.0000 </r>
       <r>    8.3354    0.0000 </r>
       <r>    8.8781    0.0000 </r>
       <r>    9.3322    0.0000 </r>
       <r>    9.5821    0.0000 </r>
      </set>
      <set comment="kpoint 15">
       <r>  -56.3748    1.0000 </r>
       <r>  -56.3539    1.0000 </r>
       <r>  -56.0683    1.0000 </r>
       <r>  -56.0649    1.0000 </r>
       <r>  -55.4383    1.0000 </r>
       <r>  -55.4166    1.0000 </r>
       <r>  -31.8339    1.0000 </r>
       <r>  -31.7832    1.0000 </r>
       <r>  -30.3007    1.0000 </r>
       <r>  -29.9025    1.0000 </r>
       <r>  -29.8043    1.0000 </r>
       <r>  -29.6391    1.0000 </r>
       <r>  -29.6172    1.0000 </r>
       <r>  -29.5016    1.0000 </r>
       <r>  -29.4102    1.0000 </r>
       <r>  -29.4089    1.0000 </r>
       <r>  -29.3436    1.0000 </r>
       <r>  -29.3389    1.0000 </r>
       <r>  -29.1067    1.0000 </r>
       <r>  -28.9967    1.0000 </r>
       <r>  -28.9388    1.0000 </r>
       <r>  -28.9300    1.0000 </r>
       <r>  -27.3899    1.0000 </r>
       <r>  -27.3229    1.0000 </r>
       <r>   -1.8484    1.0000 </r>
       <r>   -0.6085    1.0000 </r>
       <r>   -0.3080    1.0000 </r>
       <r>   -0.2749    1.0000 </r>
       <r>    1.7563    1.0000 </r>
       <r>    1.7806    1.0000 </r>
       <r>    1.8893    1.0000 </r>
       <r>    1.8984    1.0000 </r>
       <r>    1.9845    1.0000 </r>
       <r>    2.3014    1.0000 </r>
       <r>    2.4861    1.0000 </r>
       <r>    2.4981    1.0000 </r>
       <r>    3.0746    1.0000 </r>
       <r>    3.3514    1.0000 </r>
       <r>    3.6226    1.0000 </r>
       <r>    4.3653    1.0000 </r>
       <r>    4.4404    1.0000 </r>
       <r>    5.1200    1.0000 </r>
       <r>    5.4385    1.0000 </r>
       <r>    5.9887    1.0000 </r>
       <r>    6.2648    1.0000 </r>
       <r>    6.3479    1.0000 </r>
       <r>    6.4819    1.0000 </r>
       <r>    6.6167    1.0000 </r>
       <r>    6.7106    1.0000 </r>
       <r>    6.9872    0.0000 </r>
       <r>    7.0537    0.0000 </r>
       <r>    7.0719    0.0000 </r>
       <r>    7.7596    0.0000 </r>
       <r>    7.9749    0.0000 </r>
       <r>    8.2491    0.0000 </r>
       <r>    8.6374    0.0000 </r>
       <r>    8.6876    0.0000 </r>
       <r>    8.9365    0.0000 </r>
       <r>    9.2465    0.0000 </r>
       <r>    9.2558    0.0000 </r>
      </set>
      <set comment="kpoint 16">
       <r>  -56.3748    1.0000 </r>
       <r>  -56.3538    1.0000 </r>
       <r>  -56.0681    1.0000 </r>
       <r>  -56.0651    1.0000 </r>
       <r>  -55.4381    1.0000 </r>
       <r>  -55.4168    1.0000 </r>
       <r>  -31.8338    1.0000 </r>
       <r>  -31.7833    1.0000 </r>
       <r>  -30.3011    1.0000 </r>
       <r>  -29.9020    1.0000 </r>
       <r>  -29.8040    1.0000 </r>
       <r>  -29.6330    1.0000 </r>
       <r>  -29.6231    1.0000 </r>
       <r>  -29.5018    1.0000 </r>
       <r>  -29.4119    1.0000 </r>
       <r>  -29.4072    1.0000 </r>
       <r>  -29.3434    1.0000 </r>
       <r>  -29.3390    1.0000 </r>
       <r>  -29.1066    1.0000 </r>
       <r>  -28.9969    1.0000 </r>
       <r>  -28.9454    1.0000 </r>
       <r>  -28.9235    1.0000 </r>
       <r>  -27.3900    1.0000 </r>
       <r>  -27.3227    1.0000 </r>
       <r>   -1.9481    1.0000 </r>
       <r>   -0.4539    1.0000 </r>
       <r>   -0.4068    1.0000 </r>
       <r>   -0.1373    1.0000 </r>
       <r>    1.7090    1.0000 </r>
       <r>    1.8026    1.0000 </r>
       <r>    1.9169    1.0000 </r>
       <r>    1.9297    1.0000 </r>
       <r>    1.9911    1.0000 </r>
       <r>    2.1177    1.0000 </r>
       <r>    2.4781    1.0000 </r>
       <r>    2.5079    1.0000 </r>
       <r>    3.1739    1.0000 </r>
       <r>    3.2487    1.0000 </r>
       <r>    3.7446    1.0000 </r>
       <r>    4.1087    1.0000 </r>
       <r>    4.6290    1.0000 </r>
       <r>    5.0954    1.0000 </r>
       <r>    5.4625    1.0000 </r>
       <r>    5.8215    1.0000 </r>
       <r>    6.2219    1.0000 </r>
       <r>    6.5776    1.0000 </r>
       <r>    6.6431    1.0000 </r>
       <r>    6.7175    1.0000 </r>
       <r>    6.8037    1.0000 </r>
       <r>    6.8084    1.0000 </r>
       <r>    7.0453    0.0000 </r>
       <r>    7.1752    0.0000 </r>
       <r>    7.6914    0.0000 </r>
       <r>    7.7889    0.0000 </r>
       <r>    8.5248    0.0000 </r>
       <r>    8.6097    0.0000 </r>
       <r>    8.7622    0.0000 </r>
       <r>    8.9195    0.0000 </r>
       <r>    8.9758    0.0000 </r>
       <r>    9.1879    0.0000 </r>
      </set>
      <set comment="kpoint 17">
       <r>  -56.5193    1.0000 </r>
       <r>  -56.1399    1.0000 </r>
       <r>  -56.0683    1.0000 </r>
       <r>  -56.0373    1.0000 </r>
       <r>  -55.6828    1.0000 </r>
       <r>  -55.2692    1.0000 </r>
       <r>  -31.8555    1.0000 </r>
       <r>  -31.7102    1.0000 </r>
       <r>  -30.5874    1.0000 </r>
       <r>  -29.9016    1.0000 </r>
       <r>  -29.7454    1.0000 </r>
       <r>  -29.6646    1.0000 </r>
       <r>  -29.4632    1.0000 </r>
       <r>  -29.4571    1.0000 </r>
       <r>  -29.4116    1.0000 </r>
       <r>  -29.3828    1.0000 </r>
       <r>  -29.3216    1.0000 </r>
       <r>  -29.2965    1.0000 </r>
       <r>  -29.1627    1.0000 </r>
       <r>  -29.1191    1.0000 </r>
       <r>  -28.8505    1.0000 </r>
       <r>  -28.8222    1.0000 </r>
       <r>  -27.5046    1.0000 </r>
       <r>  -27.3097    1.0000 </r>
       <r>   -2.4752    1.0000 </r>
       <r>   -0.9715    1.0000 </r>
       <r>   -0.3937    1.0000 </r>
       <r>    0.8304    1.0000 </r>
       <r>    0.8679    1.0000 </r>
       <r>    1.5532    1.0000 </r>
       <r>    2.2110    1.0000 </r>
       <r>    2.2822    1.0000 </r>
       <r>    2.3218    1.0000 </r>
       <r>    2.4509    1.0000 </r>
       <r>    2.5103    1.0000 </r>
       <r>    2.6541    1.0000 </r>
       <r>    3.0360    1.0000 </r>
       <r>    3.0533    1.0000 </r>
       <r>    4.0456    1.0000 </r>
       <r>    5.0161    1.0000 </r>
       <r>    5.2448    1.0000 </r>
       <r>    5.4402    1.0000 </r>
       <r>    5.8184    1.0000 </r>
       <r>    5.8891    1.0000 </r>
       <r>    6.4389    1.0000 </r>
       <r>    6.6240    1.0000 </r>
       <r>    6.6415    1.0000 </r>
       <r>    6.7331    1.0000 </r>
       <r>    6.8841    0.9979 </r>
       <r>    7.0403    0.0000 </r>
       <r>    7.0440    0.0000 </r>
       <r>    7.0787    0.0000 </r>
       <r>    7.1136    0.0000 </r>
       <r>    7.5361    0.0000 </r>
       <r>    7.7948    0.0000 </r>
       <r>    7.8041    0.0000 </r>
       <r>    8.2357    0.0000 </r>
       <r>    8.6616    0.0000 </r>
       <r>    9.0969    0.0000 </r>
       <r>    9.3420    0.0000 </r>
      </set>
      <set comment="kpoint 18">
       <r>  -56.4825    1.0000 </r>
       <r>  -56.2230    1.0000 </r>
       <r>  -56.0653    1.0000 </r>
       <r>  -56.0419    1.0000 </r>
       <r>  -55.5935    1.0000 </r>
       <r>  -55.3105    1.0000 </r>
       <r>  -31.8015    1.0000 </r>
       <r>  -31.4953    1.0000 </r>
       <r>  -30.9915    1.0000 </r>
       <r>  -30.2720    1.0000 </r>
       <r>  -29.7172    1.0000 </r>
       <r>  -29.5249    1.0000 </r>
       <r>  -29.5025    1.0000 </r>
       <r>  -29.4089    1.0000 </r>
[...]
       <r>    0.8075    1.0000 </r>
       <r>    0.8700    1.0000 </r>
       <r>    1.4546    1.0000 </r>
       <r>    1.7050    1.0000 </r>
       <r>    1.7338    1.0000 </r>
       <r>    2.0452    1.0000 </r>
       <r>    2.0701    1.0000 </r>
       <r>    2.1908    1.0000 </r>
       <r>    2.6249    1.0000 </r>
       <r>    3.6963    1.0000 </r>
       <r>    4.0001    1.0000 </r>
       <r>    4.2067    1.0000 </r>
       <r>    4.2231    1.0000 </r>
       <r>    4.9889    1.0000 </r>
       <r>    5.1113    1.0000 </r>
       <r>    5.7559    1.0000 </r>
       <r>    5.9218    1.0000 </r>
       <r>    6.5272    1.0000 </r>
       <r>    6.5902    1.0000 </r>
       <r>    6.7482    1.0000 </r>
       <r>    6.8445    1.0000 </r>
       <r>    7.0019    0.0000 </r>
       <r>    7.0427    0.0000 </r>
       <r>    7.1953    0.0000 </r>
       <r>    7.3983    0.0000 </r>
       <r>    7.4383    0.0000 </r>
       <r>    7.4686    0.0000 </r>
       <r>    7.9922    0.0000 </r>
       <r>    8.2281    0.0000 </r>
       <r>    8.8982    0.0000 </r>
       <r>    8.9018    0.0000 </r>
       <r>    9.1185    0.0000 </r>
       <r>    9.7094    0.0000 </r>
      </set>
      <set comment="kpoint 116">
       <r>  -56.5334    1.0000 </r>
       <r>  -56.0960    1.0000 </r>
       <r>  -56.0682    1.0000 </r>
       <r>  -56.0354    1.0000 </r>
       <r>  -55.7309    1.0000 </r>
       <r>  -55.2527    1.0000 </r>
       <r>  -31.8575    1.0000 </r>
       <r>  -31.8102    1.0000 </r>
       <r>  -30.2580    1.0000 </r>
       <r>  -29.9010    1.0000 </r>
       <r>  -29.7636    1.0000 </r>
       <r>  -29.6326    1.0000 </r>
       <r>  -29.4857    1.0000 </r>
       <r>  -29.4286    1.0000 </r>
       <r>  -29.4094    1.0000 </r>
       <r>  -29.3829    1.0000 </r>
       <r>  -29.3423    1.0000 </r>
       <r>  -29.2936    1.0000 </r>
       <r>  -29.1891    1.0000 </r>
       <r>  -29.1688    1.0000 </r>
       <r>  -29.1425    1.0000 </r>
       <r>  -28.8172    1.0000 </r>
       <r>  -27.3727    1.0000 </r>
       <r>  -27.3080    1.0000 </r>
       <r>   -1.5820    1.0000 </r>
       <r>   -1.4469    1.0000 </r>
       <r>   -0.6177    1.0000 </r>
       <r>    0.8086    1.0000 </r>
       <r>    0.8623    1.0000 </r>
       <r>    1.4549    1.0000 </r>
       <r>    1.6803    1.0000 </r>
       <r>    1.7098    1.0000 </r>
       <r>    2.0307    1.0000 </r>
       <r>    2.0382    1.0000 </r>
       <r>    2.0642    1.0000 </r>
       <r>    2.5938    1.0000 </r>
       <r>    3.7545    1.0000 </r>
       <r>    4.1044    1.0000 </r>
       <r>    4.2161    1.0000 </r>
       <r>    4.2797    1.0000 </r>
       <r>    4.8814    1.0000 </r>
       <r>    5.0132    1.0000 </r>
       <r>    5.7520    1.0000 </r>
       <r>    5.9191    1.0000 </r>
       <r>    6.5279    1.0000 </r>
       <r>    6.5842    1.0000 </r>
       <r>    6.7581    1.0000 </r>
       <r>    6.8782    0.9995 </r>
       <r>    6.9908    0.0000 </r>
       <r>    7.0535    0.0000 </r>
       <r>    7.1927    0.0000 </r>
       <r>    7.3983    0.0000 </r>
       <r>    7.4519    0.0000 </r>
       <r>    7.5386    0.0000 </r>
       <r>    8.0764    0.0000 </r>
       <r>    8.1517    0.0000 </r>
       <r>    8.9035    0.0000 </r>
       <r>    8.9059    0.0000 </r>
       <r>    9.1622    0.0000 </r>
       <r>    9.7407    0.0000 </r>
      </set>
     </set>
    </set>
   </array>
  </eigenvalues>
  <separator name="orbital magnetization" >
   <v name="MAGDIPOLOUT">      0.00000000      0.00000000      0.00000000</v>
  </separator>
  <dos>
   <i name="efermi">      6.92457222 </i>
   <total>
    <array>
     <dimension dim="1">gridpoints</dimension>
     <dimension dim="2">spin</dimension>
     <field>energy</field>
     <field>total</field>
     <field>integrated</field>
     <set>
      <set comment="spin 1">
       <r>   -59.8812     0.0000     0.0000 </r>
       <r>   -59.6363     0.0000     0.0000 </r>
       <r>   -59.3913     0.0000     0.0000 </r>
       <r>   -59.1463     0.0000     0.0000 </r>
       <r>   -58.9013     0.0000     0.0000 </r>
       <r>   -58.6564     0.0000     0.0000 </r>
       <r>   -58.4114     0.0000     0.0000 </r>
       <r>   -58.1664     0.0000     0.0000 </r>
       <r>   -57.9215     0.0000     0.0000 </r>
       <r>   -57.6765     0.0000     0.0000 </r>
       <r>   -57.4315     0.0000     0.0000 </r>
       <r>   -57.1865     0.0000     0.0000 </r>
       <r>   -56.9416     0.0000     0.0000 </r>
       <r>   -56.6966     0.0000     0.0000 </r>
       <r>   -56.4516     3.5299     0.8647 </r>
       <r>   -56.2066     6.3136     3.5416 </r>
       <r>   -55.9617    16.9323     8.0000 </r>
       <r>   -55.7167     0.4262     8.1044 </r>
       <r>   -55.4717     4.1919     9.4096 </r>
       <r>   -55.2267     5.2887    11.9946 </r>
       <r>   -54.9818     0.0000    12.0000 </r>
       <r>   -54.7368     0.0000    12.0000 </r>
       <r>   -54.4918     0.0000    12.0000 </r>
       <r>   -54.2468     0.0000    12.0000 </r>
       <r>   -54.0019     0.0000    12.0000 </r>
       <r>   -53.7569     0.0000    12.0000 </r>
       <r>   -53.5119     0.0000    12.0000 </r>
       <r>   -53.2670     0.0000    12.0000 </r>
       <r>   -53.0220     0.0000    12.0000 </r>
       <r>   -52.7770     0.0000    12.0000 </r>
       <r>   -52.5320     0.0000    12.0000 </r>
       <r>   -52.2871     0.0000    12.0000 </r>
       <r>   -52.0421     0.0000    12.0000 </r>
       <r>   -51.7971     0.0000    12.0000 </r>
       <r>   -51.5521     0.0000    12.0000 </r>
       <r>   -51.3072     0.0000    12.0000 </r>
       <r>   -51.0622     0.0000    12.0000 </r>
       <r>   -50.8172     0.0000    12.0000 </r>
       <r>   -50.5722     0.0000    12.0000 </r>
       <r>   -50.3273     0.0000    12.0000 </r>
       <r>   -50.0823     0.0000    12.0000 </r>
       <r>   -49.8373     0.0000    12.0000 </r>
       <r>   -49.5924     0.0000    12.0000 </r>
       <r>   -49.3474     0.0000    12.0000 </r>
       <r>   -49.1024     0.0000    12.0000 </r>
       <r>   -48.8574     0.0000    12.0000 </r>
       <r>   -48.6125     0.0000    12.0000 </r>
       <r>   -48.3675     0.0000    12.0000 </r>
       <r>   -48.1225     0.0000    12.0000 </r>
       <r>   -47.8775     0.0000    12.0000 </r>
       <r>   -47.6326     0.0000    12.0000 </r>
       <r>   -47.3876     0.0000    12.0000 </r>
       <r>   -47.1426     0.0000    12.0000 </r>
       <r>   -46.8976     0.0000    12.0000 </r>
       <r>   -46.6527     0.0000    12.0000 </r>
       <r>   -46.4077     0.0000    12.0000 </r>
       <r>   -46.1627     0.0000    12.0000 </r>
       <r>   -45.9177     0.0000    12.0000 </r>
       <r>   -45.6728     0.0000    12.0000 </r>
       <r>   -45.4278     0.0000    12.0000 </r>
       <r>   -45.1828     0.0000    12.0000 </r>
       <r>   -44.9379     0.0000    12.0000 </r>
       <r>   -44.6929     0.0000    12.0000 </r>
       <r>   -44.4479     0.0000    12.0000 </r>
       <r>   -44.2029     0.0000    12.0000 </r>
       <r>   -43.9580     0.0000    12.0000 </r>
       <r>   -43.7130     0.0000    12.0000 </r>
       <r>   -43.4680     0.0000    12.0000 </r>
       <r>   -43.2230     0.0000    12.0000 </r>
       <r>   -42.9781     0.0000    12.0000 </r>
       <r>   -42.7331     0.0000    12.0000 </r>
       <r>   -42.4881     0.0000    12.0000 </r>
       <r>   -42.2431     0.0000    12.0000 </r>
       <r>   -41.9982     0.0000    12.0000 </r>
       <r>   -41.7532     0.0000    12.0000 </r>
       <r>   -41.5082     0.0000    12.0000 </r>
       <r>   -41.2633     0.0000    12.0000 </r>
       <r>   -41.0183     0.0000    12.0000 </r>
       <r>   -40.7733     0.0000    12.0000 </r>
       <r>   -40.5283     0.0000    12.0000 </r>
       <r>   -40.2834     0.0000    12.0000 </r>
       <r>   -40.0384     0.0000    12.0000 </r>
       <r>   -39.7934     0.0000    12.0000 </r>
       <r>   -39.5484     0.0000    12.0000 </r>
       <r>   -39.3035     0.0000    12.0000 </r>
       <r>   -39.0585     0.0000    12.0000 </r>
       <r>   -38.8135     0.0000    12.0000 </r>
       <r>   -38.5685     0.0000    12.0000 </r>
       <r>   -38.3236     0.0000    12.0000 </r>
       <r>   -38.0786     0.0000    12.0000 </r>
       <r>   -37.8336     0.0000    12.0000 </r>
       <r>   -37.5887     0.0000    12.0000 </r>
       <r>   -37.3437     0.0000    12.0000 </r>
       <r>   -37.0987     0.0000    12.0000 </r>
       <r>   -36.8537     0.0000    12.0000 </r>
       <r>   -36.6088     0.0000    12.0000 </r>
       <r>   -36.3638     0.0000    12.0000 </r>
       <r>   -36.1188     0.0000    12.0000 </r>
       <r>   -35.8738     0.0000    12.0000 </r>
       <r>   -35.6289     0.0000    12.0000 </r>
       <r>   -35.3839     0.0000    12.0000 </r>
       <r>   -35.1389     0.0000    12.0000 </r>
       <r>   -34.8939     0.0000    12.0000 </r>
       <r>   -34.6490     0.0000    12.0000 </r>
       <r>   -34.4040     0.0000    12.0000 </r>
       <r>   -34.1590     0.0000    12.0000 </r>
       <r>   -33.9140     0.0000    12.0000 </r>
       <r>   -33.6691     0.0000    12.0000 </r>
       <r>   -33.4241     0.0000    12.0000 </r>
       <r>   -33.1791     0.0000    12.0000 </r>
       <r>   -32.9342     0.0000    12.0000 </r>
       <r>   -32.6892     0.0000    12.0000 </r>
       <r>   -32.4442     0.0000    12.0000 </r>
       <r>   -32.1992     0.0000    12.0000 </r>
       <r>   -31.9543     0.0000    12.0000 </r>
       <r>   -31.7093     7.3882    13.8099 </r>
       <r>   -31.4643     1.6626    15.0501 </r>
       <r>   -31.2193     1.1772    16.0741 </r>
       <r>   -30.9744     3.4766    17.0659 </r>
       <r>   -30.7294     1.1543    17.4971 </r>
       <r>   -30.4844     1.0256    18.3227 </r>
       <r>   -30.2394     3.2098    19.1945 </r>
       <r>   -29.9945     0.8026    19.5027 </r>
       <r>   -29.7495     2.9637    20.3740 </r>
       <r>   -29.5045    12.0174    24.6327 </r>
       <r>   -29.2596    36.2892    35.2368 </r>
       <r>   -29.0146     8.5093    38.2223 </r>
       <r>   -28.7696     7.9569    41.8931 </r>
       <r>   -28.5246     1.9194    42.7865 </r>
       <r>   -28.2797     1.1393    43.2077 </r>
       <r>   -28.0347     1.1142    44.0587 </r>
       <r>   -27.7897     3.2189    45.0028 </r>
       <r>   -27.5447     3.5366    46.0500 </r>
       <r>   -27.2998     6.6231    47.9286 </r>
       <r>   -27.0548     0.0000    48.0000 </r>
       <r>   -26.8098     0.0000    48.0000 </r>
       <r>   -26.5648     0.0000    48.0000 </r>
       <r>   -26.3199     0.0000    48.0000 </r>
       <r>   -26.0749     0.0000    48.0000 </r>
       <r>   -25.8299     0.0000    48.0000 </r>
       <r>   -25.5849     0.0000    48.0000 </r>
       <r>   -25.3400     0.0000    48.0000 </r>
       <r>   -25.0950     0.0000    48.0000 </r>
       <r>   -24.8500     0.0000    48.0000 </r>
       <r>   -24.6051     0.0000    48.0000 </r>
       <r>   -24.3601     0.0000    48.0000 </r>
       <r>   -24.1151     0.0000    48.0000 </r>
       <r>   -23.8701     0.0000    48.0000 </r>
       <r>   -23.6252     0.0000    48.0000 </r>
       <r>   -23.3802     0.0000    48.0000 </r>
       <r>   -23.1352     0.0000    48.0000 </r>
       <r>   -22.8902     0.0000    48.0000 </r>
       <r>   -22.6453     0.0000    48.0000 </r>
       <r>   -22.4003     0.0000    48.0000 </r>
       <r>   -22.1553     0.0000    48.0000 </r>
       <r>   -21.9103     0.0000    48.0000 </r>
       <r>   -21.6654     0.0000    48.0000 </r>
       <r>   -21.4204     0.0000    48.0000 </r>
       <r>   -21.1754     0.0000    48.0000 </r>
       <r>   -20.9305     0.0000    48.0000 </r>
       <r>   -20.6855     0.0000    48.0000 </r>
       <r>   -20.4405     0.0000    48.0000 </r>
       <r>   -20.1955     0.0000    48.0000 </r>
       <r>   -19.9506     0.0000    48.0000 </r>
       <r>   -19.7056     0.0000    48.0000 </r>
       <r>   -19.4606     0.0000    48.0000 </r>
       <r>   -19.2156     0.0000    48.0000 </r>
       <r>   -18.9707     0.0000    48.0000 </r>
       <r>   -18.7257     0.0000    48.0000 </r>
       <r>   -18.4807     0.0000    48.0000 </r>
       <r>   -18.2357     0.0000    48.0000 </r>
       <r>   -17.9908     0.0000    48.0000 </r>
       <r>   -17.7458     0.0000    48.0000 </r>
       <r>   -17.5008     0.0000    48.0000 </r>
       <r>   -17.2559     0.0000    48.0000 </r>
       <r>   -17.0109     0.0000    48.0000 </r>
       <r>   -16.7659     0.0000    48.0000 </r>
       <r>   -16.5209     0.0000    48.0000 </r>
       <r>   -16.2760     0.0000    48.0000 </r>
       <r>   -16.0310     0.0000    48.0000 </r>
       <r>   -15.7860     0.0000    48.0000 </r>
       <r>   -15.5410     0.0000    48.0000 </r>
       <r>   -15.2961     0.0000    48.0000 </r>
       <r>   -15.0511     0.0000    48.0000 </r>
       <r>   -14.8061     0.0000    48.0000 </r>
       <r>   -14.5611     0.0000    48.0000 </r>
       <r>   -14.3162     0.0000    48.0000 </r>
       <r>   -14.0712     0.0000    48.0000 </r>
       <r>   -13.8262     0.0000    48.0000 </r>
       <r>   -13.5812     0.0000    48.0000 </r>
       <r>   -13.3363     0.0000    48.0000 </r>
       <r>   -13.0913     0.0000    48.0000 </r>
       <r>   -12.8463     0.0000    48.0000 </r>
       <r>   -12.6014     0.0000    48.0000 </r>
       <r>   -12.3564     0.0000    48.0000 </r>
       <r>   -12.1114     0.0000    48.0000 </r>
       <r>   -11.8664     0.0000    48.0000 </r>
       <r>   -11.6215     0.0000    48.0000 </r>
       <r>   -11.3765     0.0000    48.0000 </r>
       <r>   -11.1315     0.0000    48.0000 </r>
       <r>   -10.8865     0.0000    48.0000 </r>
       <r>   -10.6416     0.0000    48.0000 </r>
       <r>   -10.3966     0.0000    48.0000 </r>
       <r>   -10.1516     0.0000    48.0000 </r>
       <r>    -9.9066     0.0000    48.0000 </r>
       <r>    -9.6617     0.0000    48.0000 </r>
       <r>    -9.4167     0.0000    48.0000 </r>
       <r>    -9.1717     0.0000    48.0000 </r>
       <r>    -8.9268     0.0000    48.0000 </r>
       <r>    -8.6818     0.0000    48.0000 </r>
       <r>    -8.4368     0.0000    48.0000 </r>
       <r>    -8.1918     0.0000    48.0000 </r>
       <r>    -7.9469     0.0000    48.0000 </r>
       <r>    -7.7019     0.0000    48.0000 </r>
       <r>    -7.4569     0.0000    48.0000 </r>
       <r>    -7.2119     0.0000    48.0000 </r>
       <r>    -6.9670     0.0000    48.0000 </r>
       <r>    -6.7220     0.0000    48.0000 </r>
       <r>    -6.4770     0.0000    48.0000 </r>
       <r>    -6.2320     0.0000    48.0000 </r>
       <r>    -5.9871     0.0000    48.0000 </r>
       <r>    -5.7421     0.0000    48.0000 </r>
       <r>    -5.4971     0.0000    48.0000 </r>
       <r>    -5.2522     0.0000    48.0000 </r>
       <r>    -5.0072     0.0000    48.0000 </r>
       <r>    -4.7622     0.0000    48.0000 </r>
       <r>    -4.5172     0.0000    48.0000 </r>
       <r>    -4.2723     0.0000    48.0000 </r>
       <r>    -4.0273     0.0000    48.0000 </r>
       <r>    -3.7823     0.0000    48.0000 </r>
       <r>    -3.5373     0.0000    48.0000 </r>
       <r>    -3.2924     0.0000    48.0000 </r>
       <r>    -3.0474     0.0000    48.0000 </r>
       <r>    -2.8024     0.0000    48.0000 </r>
       <r>    -2.5574     0.0123    48.0030 </r>
       <r>    -2.3125     0.4330    48.1214 </r>
       <r>    -2.0675     0.8244    48.4315 </r>
       <r>    -1.8225     1.6807    48.9678 </r>
       <r>    -1.5775     1.7354    49.7109 </r>
       <r>    -1.3326     1.4568    50.2957 </r>
       <r>    -1.0876     1.1772    50.7884 </r>
       <r>    -0.8426     2.3045    51.4982 </r>
       <r>    -0.5977     2.9334    52.5502 </r>
       <r>    -0.3527     3.2280    53.8775 </r>
       <r>    -0.1077     1.6768    54.6761 </r>
       <r>     0.1373     1.1474    55.2148 </r>
       <r>     0.3822     0.8324    55.4947 </r>
       <r>     0.6272     0.7825    55.7478 </r>
       <r>     0.8722     1.0870    56.0571 </r>
       <r>     1.1172     1.2085    56.5818 </r>
       <r>     1.3621     1.3222    57.0739 </r>
       <r>     1.6071     2.4373    57.8930 </r>
       <r>     1.8521     6.1983    59.8041 </r>
       <r>     2.0971     7.7692    62.6430 </r>
       <r>     2.3420     8.0428    65.7866 </r>
       <r>     2.5870     6.1307    68.2876 </r>
       <r>     2.8320     6.5699    70.6809 </r>
       <r>     3.0769     4.4337    72.4943 </r>
       <r>     3.3219     3.5057    74.1904 </r>
       <r>     3.5669     4.5614    75.9235 </r>
       <r>     3.8119     3.3443    77.2121 </r>
       <r>     4.0568     1.4570    78.0457 </r>
       <r>     4.3018     3.9016    79.3078 </r>
       <r>     4.5468     2.3767    80.3833 </r>
       <r>     4.7918     3.6664    81.6431 </r>
       <r>     5.0367     3.5054    82.9710 </r>
       <r>     5.2817     4.1593    84.5648 </r>
       <r>     5.5267     4.2905    86.2959 </r>
       <r>     5.7717     6.0636    88.3987 </r>
       <r>     6.0166     5.1974    90.3804 </r>
       <r>     6.2616     6.0480    92.6142 </r>
       <r>     6.5066     3.3009    94.0688 </r>
       <r>     6.7516     5.9513    96.4324 </r>
       <r>     6.9965     6.3568    98.6848 </r>
       <r>     7.2415     7.4320   101.4380 </r>
       <r>     7.4865     5.3581   103.5677 </r>
       <r>     7.7314     4.7640   105.4834 </r>
       <r>     7.9764     4.2400   107.4417 </r>
       <r>     8.2214     3.8309   108.9742 </r>
       <r>     8.4664     4.5867   110.7205 </r>
       <r>     8.7113     4.7414   112.4217 </r>
       <r>     8.9563     4.8479   114.2641 </r>
       <r>     9.2013     6.4846   116.3335 </r>
       <r>     9.4463     5.1451   118.2400 </r>
       <r>     9.6912     3.8553   119.5669 </r>
       <r>     9.9362     0.8343   119.9697 </r>
       <r>    10.1812     0.0000   119.9898 </r>
       <r>    10.4262     0.0417   120.0000 </r>
       <r>    10.6711     0.0000   120.0000 </r>
       <r>    10.9161     0.0000   120.0000 </r>
       <r>    11.1611     0.0000   120.0000 </r>
       <r>    11.4060     0.0000   120.0000 </r>
       <r>    11.6510     0.0000   120.0000 </r>
       <r>    11.8960     0.0000   120.0000 </r>
       <r>    12.1410     0.0000   120.0000 </r>
       <r>    12.3859     0.0000   120.0000 </r>
       <r>    12.6309     0.0000   120.0000 </r>
       <r>    12.8759     0.0000   120.0000 </r>
       <r>    13.1209     0.0000   120.0000 </r>
       <r>    13.3658     0.0000   120.0000 </r>
       <r>    13.6108     0.0000   120.0000 </r>
      </set>
     </set>
    </array>
   </total>
  </dos>
 </calculation>
 <structure name="finalpos" >
  <crystal>
   <varray name="basis" >
    <v>       5.54949845       0.00000000      -3.37202570 </v>
    <v>      -1.75588210       5.26439085      -3.37202570 </v>
    <v>       0.00000000       0.00000000       6.49365000 </v>
   </varray>
   <i name="volume">    189.71022409 </i>
   <varray name="rec_basis" >
    <v>       0.18019646       0.06010263       0.00000000 </v>
    <v>       0.00000000       0.18995550       0.00000000 </v>
    <v>       0.09357251       0.12985031       0.15399660 </v>
   </varray>
  </crystal>
  <varray name="positions" >
   <v>       0.50000000       0.00000000       0.50000000 </v>
   <v>       0.00000000       0.50000000       0.50000000 </v>
   <v>       0.74139000       0.24139000       0.98278000 </v>
   <v>       0.00000000       0.00000000       0.00000000 </v>
   <v>       0.25861000       0.75861000       0.01722000 </v>
   <v>       0.24139000       0.25861000       0.50000000 </v>
   <v>       0.75861000       0.74139000       0.50000000 </v>
   <v>       0.50000000       0.50000000       0.00000000 </v>
   <v>       0.25000000       0.25000000       0.00000000 </v>
   <v>       0.75000000       0.75000000       0.00000000 </v>
  </varray>
 </structure>
</modeling>
