<?xml version="1.0" encoding="ISO-8859-1"?>
<modeling>
 <generator>
  <i name="program" type="string">vasp </i>
  <i name="version" type="string">6.2.0  </i>
  <i name="subversion" type="string">18Jan21 (build Jan 05 2022 15:41:44) complex                          parallel </i>
  <i name="platform" type="string">LinuxIFC </i>
  <i name="date" type="string">2025 05 07 </i>
  <i name="time" type="string">14:21:05 </i>
 </generator>
 <incar>
  <i type="string" name="SYSTEM">routine with relax: pwdword</i>
  <i type="string" name="PREC">Acc</i>
  <i type="int" name="IALGO">    38</i>
  <i type="string" name="ALGO">A</i>
  <i type="logical" name="ADDGRID"> T  </i>
  <i type="int" name="ICHARG">     2</i>
  <i type="int" name="NELM">   100</i>
  <i type="int" name="NELMIN">     6</i>
  <i name="EDIFF">      0.00000000</i>
  <i type="int" name="NSW">     0</i>
  <i type="int" name="ISIF">    -1</i>
  <i name="SYMPREC">      0.00010000</i>
  <i name="ENCUT">    600.00000000</i>
  <i type="logical" name="LREAL"> F  </i>
  <i type="int" name="ISMEAR">     0</i>
  <i name="SIGMA">      0.02000000</i>
  <i type="logical" name="LASPH"> T  </i>
  <i type="string" name="METAGGA">R2SCAN</i>
  <i type="logical" name="LMIXTAU"> F  </i>
 </incar>
 <primitive_cell>
  <structure name="primitive_cell" >
   <crystal>
    <varray name="basis" >
     <v>       4.82260035       0.00000000      -2.91963531 </v>
     <v>      -1.53182628       4.57285276      -2.91963531 </v>
     <v>       0.00000000       0.00000000       5.63753000 </v>
    </varray>
    <i name="volume">    124.32468219 </i>
    <varray name="rec_basis" >
     <v>       0.20735701       0.06946100       0.00000000 </v>
     <v>       0.00000000       0.21868187       0.00000000 </v>
     <v>       0.10738867       0.14922707       0.17738265 </v>
    </varray>
   </crystal>
   <varray name="positions" >
    <v>       0.75030000       0.25030000       0.00061000 </v>
    <v>       0.24970000       0.74970000       0.99939000 </v>
    <v>       0.25030000       0.24970000       0.50000000 </v>
    <v>       0.74970000       0.75030000       0.50000000 </v>
    <v>       0.50000000       0.50000000       0.00000000 </v>
    <v>       1.00000000       0.50000000       0.50000000 </v>
    <v>       0.50000000       0.00000000       0.50000000 </v>
    <v>       0.00000000       0.00000000       0.00000000 </v>
    <v>       0.00000000       0.00000000       0.50000000 </v>
    <v>       1.00000000       0.50000000       1.00000000 </v>
    <v>       0.50000000       0.50000000       0.50000000 </v>
    <v>       0.50000000       0.00000000       0.00000000 </v>
   </varray>
  </structure>
  <varray name="primitive_index" >
   <v type="int" >        1 </v>
   <v type="int" >        2 </v>
   <v type="int" >        3 </v>
   <v type="int" >        4 </v>
   <v type="int" >        5 </v>
   <v type="int" >        6 </v>
   <v type="int" >        7 </v>
   <v type="int" >        8 </v>
   <v type="int" >        9 </v>
   <v type="int" >       10 </v>
   <v type="int" >       11 </v>
   <v type="int" >       12 </v>
  </varray>
 </primitive_cell>
 <kpoints>
  <generation param="Gamma">
   <v type="int" name="divisions">       8        8        9 </v>
   <v name="usershift">      0.00000000       0.00000000       0.00000000 </v>
   <v name="genvec1">      0.12500000      -0.00000000       0.00000000 </v>
   <v name="genvec2">      0.00000000       0.12500000       0.00000000 </v>
   <v name="genvec3">      0.00000000      -0.00000000       0.11111111 </v>
   <v name="shift">      0.00000000       0.00000000       0.00000000 </v>
  </generation>
  <varray name="kpointlist" >
   <v>       0.00000000       0.00000000       0.00000000 </v>
   <v>       0.12500000      -0.00000000       0.00000000 </v>
   <v>       0.25000000      -0.00000000       0.00000000 </v>
   <v>       0.37500000       0.00000000       0.00000000 </v>
   <v>       0.50000000      -0.00000000       0.00000000 </v>
   <v>       0.12500000       0.12500000       0.00000000 </v>
   <v>       0.25000000       0.12500000       0.00000000 </v>
   <v>       0.37500000       0.12500000       0.00000000 </v>
   <v>       0.50000000       0.12500000       0.00000000 </v>
   <v>      -0.37500000       0.12500000       0.00000000 </v>
   <v>      -0.25000000       0.12500000       0.00000000 </v>
   <v>      -0.12500000       0.12500000       0.00000000 </v>
   <v>       0.25000000       0.25000000       0.00000000 </v>
   <v>       0.37500000       0.25000000       0.00000000 </v>
   <v>       0.50000000       0.25000000       0.00000000 </v>
   <v>      -0.37500000       0.25000000       0.00000000 </v>
   <v>      -0.25000000       0.25000000       0.00000000 </v>
   <v>       0.37500000       0.37500000       0.00000000 </v>
   <v>       0.50000000       0.37500000       0.00000000 </v>
   <v>      -0.37500000       0.37500000       0.00000000 </v>
   <v>       0.50000000       0.50000000       0.00000000 </v>
   <v>      -0.00000000      -0.00000000       0.11111111 </v>
   <v>       0.12500000       0.00000000       0.11111111 </v>
   <v>       0.25000000      -0.00000000       0.11111111 </v>
   <v>       0.37500000       0.00000000       0.11111111 </v>
   <v>       0.50000000       0.00000000       0.11111111 </v>
   <v>      -0.37500000      -0.00000000       0.11111111 </v>
   <v>      -0.25000000       0.00000000       0.11111111 </v>
   <v>      -0.12500000      -0.00000000       0.11111111 </v>
   <v>       0.12500000       0.12500000       0.11111111 </v>
   <v>       0.25000000       0.12500000       0.11111111 </v>
   <v>       0.37500000       0.12500000       0.11111111 </v>
   <v>       0.50000000       0.12500000       0.11111111 </v>
   <v>      -0.37500000       0.12500000       0.11111111 </v>
   <v>      -0.25000000       0.12500000       0.11111111 </v>
   <v>      -0.12500000       0.12500000       0.11111111 </v>
   <v>       0.25000000       0.25000000       0.11111111 </v>
   <v>       0.37500000       0.25000000       0.11111111 </v>
   <v>       0.50000000       0.25000000       0.11111111 </v>
   <v>      -0.37500000       0.25000000       0.11111111 </v>
   <v>      -0.25000000       0.25000000       0.11111111 </v>
   <v>      -0.12500000       0.25000000       0.11111111 </v>
   <v>       0.37500000       0.37500000       0.11111111 </v>
   <v>       0.50000000       0.37500000       0.11111111 </v>
   <v>      -0.37500000       0.37500000       0.11111111 </v>
   <v>      -0.25000000       0.37500000       0.11111111 </v>
   <v>      -0.12500000       0.37500000       0.11111111 </v>
   <v>       0.50000000       0.50000000       0.11111111 </v>
   <v>      -0.37500000       0.50000000       0.11111111 </v>
   <v>      -0.25000000       0.50000000       0.11111111 </v>
   <v>      -0.12500000       0.50000000       0.11111111 </v>
   <v>      -0.37500000      -0.37500000       0.11111111 </v>
   <v>      -0.25000000      -0.37500000       0.11111111 </v>
   <v>      -0.12500000      -0.37500000       0.11111111 </v>
   <v>      -0.25000000      -0.25000000       0.11111111 </v>
   <v>      -0.12500000      -0.25000000       0.11111111 </v>
   <v>      -0.12500000      -0.12500000       0.11111111 </v>
   <v>      -0.00000000       0.00000000       0.22222222 </v>
   <v>       0.12500000       0.00000000       0.22222222 </v>
   <v>       0.25000000       0.00000000       0.22222222 </v>
   <v>       0.37500000       0.00000000       0.22222222 </v>
   <v>       0.50000000      -0.00000000       0.22222222 </v>
   <v>      -0.37500000       0.00000000       0.22222222 </v>
   <v>      -0.25000000       0.00000000       0.22222222 </v>
   <v>      -0.12500000       0.00000000       0.22222222 </v>
   <v>       0.12500000       0.12500000       0.22222222 </v>
   <v>       0.25000000       0.12500000       0.22222222 </v>
   <v>       0.37500000       0.12500000       0.22222222 </v>
   <v>       0.50000000       0.12500000       0.22222222 </v>
   <v>      -0.37500000       0.12500000       0.22222222 </v>
   <v>      -0.25000000       0.12500000       0.22222222 </v>
   <v>      -0.12500000       0.12500000       0.22222222 </v>
   <v>       0.25000000       0.25000000       0.22222222 </v>
   <v>       0.37500000       0.25000000       0.22222222 </v>
   <v>       0.50000000       0.25000000       0.22222222 </v>
   <v>      -0.37500000       0.25000000       0.22222222 </v>
   <v>      -0.25000000       0.25000000       0.22222222 </v>
   <v>      -0.12500000       0.25000000       0.22222222 </v>
   <v>       0.37500000       0.37500000       0.22222222 </v>
   <v>       0.50000000       0.37500000       0.22222222 </v>
   <v>      -0.37500000       0.37500000       0.22222222 </v>
   <v>      -0.25000000       0.37500000       0.22222222 </v>
   <v>      -0.12500000       0.37500000       0.22222222 </v>
   <v>       0.50000000       0.50000000       0.22222222 </v>
   <v>      -0.37500000       0.50000000       0.22222222 </v>
   <v>      -0.25000000       0.50000000       0.22222222 </v>
   <v>      -0.12500000       0.50000000       0.22222222 </v>
   <v>      -0.37500000      -0.37500000       0.22222222 </v>
   <v>      -0.25000000      -0.37500000       0.22222222 </v>
   <v>      -0.12500000      -0.37500000       0.22222222 </v>
   <v>      -0.25000000      -0.25000000       0.22222222 </v>
   <v>      -0.12500000      -0.25000000       0.22222222 </v>
   <v>      -0.12500000      -0.12500000       0.22222222 </v>
   <v>      -0.00000000       0.00000000       0.33333333 </v>
   <v>       0.12500000       0.00000000       0.33333333 </v>
   <v>       0.25000000      -0.00000000       0.33333333 </v>
   <v>       0.37500000       0.00000000       0.33333333 </v>
   <v>       0.50000000      -0.00000000       0.33333333 </v>
   <v>      -0.37500000      -0.00000000       0.33333333 </v>
   <v>      -0.25000000      -0.00000000       0.33333333 </v>
   <v>      -0.12500000       0.00000000       0.33333333 </v>
   <v>       0.12500000       0.12500000       0.33333333 </v>
   <v>       0.25000000       0.12500000       0.33333333 </v>
   <v>       0.37500000       0.12500000       0.33333333 </v>
   <v>       0.50000000       0.12500000       0.33333333 </v>
   <v>      -0.37500000       0.12500000       0.33333333 </v>
   <v>      -0.25000000       0.12500000       0.33333333 </v>
   <v>      -0.12500000       0.12500000       0.33333333 </v>
   <v>       0.25000000       0.25000000       0.33333333 </v>
   <v>       0.37500000       0.25000000       0.33333333 </v>
   <v>       0.50000000       0.25000000       0.33333333 </v>
   <v>      -0.37500000       0.25000000       0.33333333 </v>
   <v>      -0.25000000       0.25000000       0.33333333 </v>
   <v>      -0.12500000       0.25000000       0.33333333 </v>
   <v>       0.37500000       0.37500000       0.33333333 </v>
   <v>       0.50000000       0.37500000       0.33333333 </v>
   <v>      -0.37500000       0.37500000       0.33333333 </v>
   <v>      -0.25000000       0.37500000       0.33333333 </v>
   <v>      -0.12500000       0.37500000       0.33333333 </v>
   <v>       0.50000000       0.50000000       0.33333333 </v>
   <v>      -0.37500000       0.50000000       0.33333333 </v>
   <v>      -0.25000000       0.50000000       0.33333333 </v>
   <v>      -0.12500000       0.50000000       0.33333333 </v>
   <v>      -0.37500000      -0.37500000       0.33333333 </v>
   <v>      -0.25000000      -0.37500000       0.33333333 </v>
   <v>      -0.12500000      -0.37500000       0.33333333 </v>
   <v>      -0.25000000      -0.25000000       0.33333333 </v>
   <v>      -0.12500000      -0.25000000       0.33333333 </v>
   <v>      -0.12500000      -0.12500000       0.33333333 </v>
   <v>      -0.00000000       0.00000000       0.44444444 </v>
   <v>       0.12500000       0.00000000       0.44444444 </v>
   <v>       0.25000000       0.00000000       0.44444444 </v>
   <v>       0.37500000       0.00000000       0.44444444 </v>
   <v>       0.50000000       0.00000000       0.44444444 </v>
   <v>      -0.37500000       0.00000000       0.44444444 </v>
   <v>      -0.25000000       0.00000000       0.44444444 </v>
   <v>      -0.12500000       0.00000000       0.44444444 </v>
   <v>       0.12500000       0.12500000       0.44444444 </v>
   <v>       0.25000000       0.12500000       0.44444444 </v>
   <v>       0.37500000       0.12500000       0.44444444 </v>
   <v>       0.50000000       0.12500000       0.44444444 </v>
   <v>      -0.37500000       0.12500000       0.44444444 </v>
   <v>      -0.25000000       0.12500000       0.44444444 </v>
   <v>      -0.12500000       0.12500000       0.44444444 </v>
   <v>       0.25000000       0.25000000       0.44444444 </v>
   <v>       0.37500000       0.25000000       0.44444444 </v>
   <v>       0.50000000       0.25000000       0.44444444 </v>
   <v>      -0.37500000       0.25000000       0.44444444 </v>
   <v>      -0.25000000       0.25000000       0.44444444 </v>
   <v>      -0.12500000       0.25000000       0.44444444 </v>
   <v>       0.37500000       0.37500000       0.44444444 </v>
   <v>       0.50000000       0.37500000       0.44444444 </v>
   <v>      -0.37500000       0.37500000       0.44444444 </v>
   <v>      -0.25000000       0.37500000       0.44444444 </v>
   <v>      -0.12500000       0.37500000       0.44444444 </v>
   <v>       0.50000000       0.50000000       0.44444444 </v>
   <v>      -0.37500000       0.50000000       0.44444444 </v>
   <v>      -0.25000000       0.50000000       0.44444444 </v>
   <v>      -0.12500000       0.50000000       0.44444444 </v>
   <v>      -0.37500000      -0.37500000       0.44444444 </v>
   <v>      -0.25000000      -0.37500000       0.44444444 </v>
   <v>      -0.12500000      -0.37500000       0.44444444 </v>
   <v>      -0.25000000      -0.25000000       0.44444444 </v>
   <v>      -0.12500000      -0.25000000       0.44444444 </v>
   <v>      -0.12500000      -0.12500000       0.44444444 </v>
  </varray>
  <varray name="weights" >
   <v>       0.00173611 </v>
   <v>       0.00694444 </v>
   <v>       0.00694444 </v>
   <v>       0.00694444 </v>
   <v>       0.00347222 </v>
   <v>       0.00347222 </v>
   <v>       0.00694444 </v>
   <v>       0.00694444 </v>
   <v>       0.00694444 </v>
   <v>       0.00694444 </v>
   <v>       0.00694444 </v>
   <v>       0.00347222 </v>
   <v>       0.00347222 </v>
   <v>       0.00694444 </v>
   <v>       0.00694444 </v>
   <v>       0.00694444 </v>
   <v>       0.00347222 </v>
   <v>       0.00347222 </v>
   <v>       0.00694444 </v>
   <v>       0.00347222 </v>
   <v>       0.00173611 </v>
   <v>       0.00347222 </v>
   <v>       0.00694444 </v>
   <v>       0.00694444 </v>
   <v>       0.00694444 </v>
   <v>       0.00694444 </v>
   <v>       0.00694444 </v>
   <v>       0.00694444 </v>
   <v>       0.00694444 </v>
   <v>       0.00347222 </v>
   <v>       0.00694444 </v>
   <v>       0.00694444 </v>
   <v>       0.00694444 </v>
   <v>       0.00694444 </v>
   <v>       0.00694444 </v>
   <v>       0.00694444 </v>
   <v>       0.00347222 </v>
   <v>       0.00694444 </v>
   <v>       0.00694444 </v>
   <v>       0.00694444 </v>
   <v>       0.00694444 </v>
   <v>       0.00694444 </v>
   <v>       0.00347222 </v>
   <v>       0.00694444 </v>
   <v>       0.00694444 </v>
   <v>       0.00694444 </v>
   <v>       0.00694444 </v>
   <v>       0.00347222 </v>
   <v>       0.00694444 </v>
   <v>       0.00694444 </v>
   <v>       0.00694444 </v>
   <v>       0.00347222 </v>
   <v>       0.00694444 </v>
   <v>       0.00694444 </v>
   <v>       0.00347222 </v>
   <v>       0.00694444 </v>
   <v>       0.00347222 </v>
   <v>       0.00347222 </v>
   <v>       0.00694444 </v>
   <v>       0.00694444 </v>
   <v>       0.00694444 </v>
   <v>       0.00694444 </v>
   <v>       0.00694444 </v>
   <v>       0.00694444 </v>
   <v>       0.00694444 </v>
   <v>       0.00347222 </v>
   <v>       0.00694444 </v>
   <v>       0.00694444 </v>
   <v>       0.00694444 </v>
   <v>       0.00694444 </v>
   <v>       0.00694444 </v>
   <v>       0.00694444 </v>
   <v>       0.00347222 </v>
   <v>       0.00694444 </v>
   <v>       0.00694444 </v>
   <v>       0.00694444 </v>
   <v>       0.00694444 </v>
   <v>       0.00694444 </v>
   <v>       0.00347222 </v>
   <v>       0.00694444 </v>
   <v>       0.00694444 </v>
   <v>       0.00694444 </v>
   <v>       0.00694444 </v>
   <v>       0.00347222 </v>
   <v>       0.00694444 </v>
   <v>       0.00694444 </v>
   <v>       0.00694444 </v>
   <v>       0.00347222 </v>
   <v>       0.00694444 </v>
   <v>       0.00694444 </v>
   <v>       0.00347222 </v>
   <v>       0.00694444 </v>
   <v>       0.00347222 </v>
   <v>       0.00347222 </v>
   <v>       0.00694444 </v>
   <v>       0.00694444 </v>
   <v>       0.00694444 </v>
   <v>       0.00694444 </v>
   <v>       0.00694444 </v>
   <v>       0.00694444 </v>
   <v>       0.00694444 </v>
   <v>       0.00347222 </v>
   <v>       0.00694444 </v>
   <v>       0.00694444 </v>
   <v>       0.00694444 </v>
   <v>       0.00694444 </v>
   <v>       0.00694444 </v>
   <v>       0.00694444 </v>
   <v>       0.00347222 </v>
   <v>       0.00694444 </v>
   <v>       0.00694444 </v>
   <v>       0.00694444 </v>
   <v>       0.00694444 </v>
   <v>       0.00694444 </v>
   <v>       0.00347222 </v>
   <v>       0.00694444 </v>
   <v>       0.00694444 </v>
   <v>       0.00694444 </v>
   <v>       0.00694444 </v>
   <v>       0.00347222 </v>
   <v>       0.00694444 </v>
   <v>       0.00694444 </v>
   <v>       0.00694444 </v>
   <v>       0.00347222 </v>
   <v>       0.00694444 </v>
   <v>       0.00694444 </v>
   <v>       0.00347222 </v>
   <v>       0.00694444 </v>
   <v>       0.00347222 </v>
   <v>       0.00347222 </v>
   <v>       0.00694444 </v>
   <v>       0.00694444 </v>
   <v>       0.00694444 </v>
   <v>       0.00694444 </v>
   <v>       0.00694444 </v>
   <v>       0.00694444 </v>
   <v>       0.00694444 </v>
   <v>       0.00347222 </v>
   <v>       0.00694444 </v>
   <v>       0.00694444 </v>
   <v>       0.00694444 </v>
   <v>       0.00694444 </v>
   <v>       0.00694444 </v>
   <v>       0.00694444 </v>
   <v>       0.00347222 </v>
   <v>       0.00694444 </v>
   <v>       0.00694444 </v>
   <v>       0.00694444 </v>
   <v>       0.00694444 </v>
   <v>       0.00694444 </v>
   <v>       0.00347222 </v>
   <v>       0.00694444 </v>
   <v>       0.00694444 </v>
   <v>       0.00694444 </v>
   <v>       0.00694444 </v>
   <v>       0.00347222 </v>
   <v>       0.00694444 </v>
   <v>       0.00694444 </v>
   <v>       0.00694444 </v>
   <v>       0.00347222 </v>
   <v>       0.00694444 </v>
   <v>       0.00694444 </v>
   <v>       0.00347222 </v>
   <v>       0.00694444 </v>
   <v>       0.00347222 </v>
  </varray>
 </kpoints>
 <parameters>
  <separator name="general" >
   <i type="string" name="SYSTEM">routine with relax: pwdword</i>
   <i type="logical" name="LCOMPAT"> F  </i>
  </separator>
  <separator name="electronic" >
   <i type="string" name="PREC">acc</i>
   <i name="ENMAX">    600.00000000</i>
   <i name="ENAUG">    535.51400000</i>
   <i name="EDIFF">      0.00000000</i>
   <i type="int" name="IALGO">    58</i>
   <i type="int" name="IWAVPR">    10</i>
   <i type="int" name="NBANDS">    54</i>
   <i type="int" name="NBANDSLOW">    -1</i>
   <i type="int" name="NBANDSHIGH">    -1</i>
   <i name="NELECT">     84.00000000</i>
   <i type="int" name="TURBO">     0</i>
   <i type="int" name="IRESTART">     0</i>
   <i type="int" name="NREBOOT">     0</i>
   <i type="int" name="NMIN">     0</i>
   <i name="EREF">      0.00000000</i>
   <separator name="electronic smearing" >
    <i type="int" name="ISMEAR">     0</i>
    <i name="SIGMA">      0.02000000</i>
    <i name="KSPACING">      0.50000000</i>
    <i type="logical" name="KGAMMA"> T  </i>
    <i type="logical" name="KBLOWUP"> F  </i>
   </separator>
   <separator name="electronic projectors" >
    <i type="logical" name="LREAL"> F  </i>
    <v name="ROPT">      0.00000000      0.00000000      0.00000000</v>
    <i type="int" name="LMAXPAW">  -100</i>
    <i type="int" name="LMAXMIX">     2</i>
    <i type="logical" name="NLSPLINE"> F  </i>
   </separator>
   <separator name="electronic startup" >
    <i type="int" name="ISTART">     0</i>
    <i type="int" name="ICHARG">     2</i>
    <i type="int" name="INIWAV">     1</i>
   </separator>
   <separator name="electronic spin" >
    <i type="int" name="ISPIN">     1</i>
    <i type="logical" name="LNONCOLLINEAR"> F  </i>
    <v name="MAGMOM">      1.00000000      1.00000000      1.00000000      1.00000000      1.00000000      1.00000000      1.00000000      1.00000000      1.00000000      1.00000000      1.00000000      1.00000000</v>
    <i name="NUPDOWN">     -1.00000000</i>
    <i type="logical" name="LSORBIT"> F  </i>
    <v name="SAXIS">      0.00000000      0.00000000      1.00000000</v>
    <i type="logical" name="LSPIRAL"> F  </i>
    <v name="QSPIRAL">      0.00000000      0.00000000      0.00000000</v>
    <i type="logical" name="LZEROZ"> F  </i>
   </separator>
   <separator name="electronic exchange-correlation" >
    <i type="logical" name="LASPH"> T  </i>
    <i type="logical" name="LMETAGGA"> F  </i>
   </separator>
   <separator name="electronic convergence" >
    <i type="int" name="NELM">   100</i>
    <i type="int" name="NELMDL">    -5</i>
    <i type="int" name="NELMIN">     6</i>
    <i name="ENINI">    600.00000000</i>
    <separator name="electronic convergence detail" >
     <i type="logical" name="LDIAG"> T  </i>
     <i type="logical" name="LSUBROT"> F  </i>
     <i name="WEIMIN">      0.00000000</i>
     <i name="EBREAK">      0.00000000</i>
     <i name="DEPER">      0.30000000</i>
     <i type="int" name="NRMM">     4</i>
     <i name="TIME">      0.40000000</i>
    </separator>
   </separator>
   <separator name="electronic mixer" >
    <i name="AMIX">      0.40000000</i>
    <i name="BMIX">      1.00000000</i>
    <i name="AMIN">      0.10000000</i>
    <i name="AMIX_MAG">      1.60000000</i>
    <i name="BMIX_MAG">      1.00000000</i>
    <separator name="electronic mixer details" >
     <i type="int" name="IMIX">     4</i>
     <i type="logical" name="MIXFIRST"> F  </i>
     <i type="int" name="MAXMIX">   -45</i>
     <i name="WC">    100.00000000</i>
     <i type="int" name="INIMIX">     1</i>
     <i type="int" name="MIXPRE">     1</i>
     <i type="int" name="MREMOVE">     5</i>
    </separator>
   </separator>
   <separator name="electronic dipolcorrection" >
    <i type="logical" name="LDIPOL"> F  </i>
    <i type="logical" name="LMONO"> F  </i>
    <i type="int" name="IDIPOL">     0</i>
    <i name="EPSILON">      1.00000000</i>
    <v name="DIPOL">   -100.00000000   -100.00000000   -100.00000000</v>
    <i name="EFIELD">      0.00000000</i>
   </separator>
  </separator>
  <separator name="grids" >
   <i type="int" name="NGX">    48</i>
   <i type="int" name="NGY">    48</i>
   <i type="int" name="NGZ">    48</i>
   <i type="int" name="NGXF">    96</i>
   <i type="int" name="NGYF">    96</i>
   <i type="int" name="NGZF">    96</i>
   <i type="logical" name="ADDGRID"> T  </i>
  </separator>
  <separator name="ionic" >
   <i type="int" name="NSW">     0</i>
   <i type="int" name="IBRION">    -1</i>
   <i type="int" name="MDALGO">     0</i>
   <i type="int" name="ISIF">    -1</i>
   <i name="PSTRESS">      0.00000000</i>
   <i name="EDIFFG">      0.00000001</i>
   <i type="int" name="NFREE">     0</i>
   <i name="POTIM">      0.50000000</i>
   <i name="SMASS">     -3.00000000</i>
   <i name="SCALEE">      1.00000000</i>
  </separator>
  <separator name="ionic md" >
   <i name="TEBEG">      0.00010000</i>
   <i name="TEEND">      0.00010000</i>
   <i type="int" name="NBLOCK">     1</i>
   <i type="int" name="KBLOCK">     1</i>
   <i type="int" name="NPACO">   256</i>
   <i name="APACO">     16.00000000</i>
  </separator>
  <separator name="symmetry" >
   <i type="int" name="ISYM">     2</i>
   <i name="SYMPREC">      0.00010000</i>
  </separator>
  <separator name="dos" >
   <i type="int" name="LORBIT">     0</i>
   <v name="RWIGS">     -1.00000000     -1.00000000     -1.00000000</v>
   <i type="int" name="NEDOS">   301</i>
   <i name="EMIN">     10.00000000</i>
   <i name="EMAX">    -10.00000000</i>
   <i name="EFERMI">      0.00000000</i>
  </separator>
  <separator name="writing" >
   <i type="int" name="NWRITE">     2</i>
   <i type="logical" name="LWAVE"> T  </i>
   <i type="logical" name="LDOWNSAMPLE"> F  </i>
   <i type="logical" name="LCHARG"> T  </i>
   <i type="logical" name="LPARD"> F  </i>
   <i type="logical" name="LVTOT"> F  </i>
   <i type="logical" name="LVHAR"> F  </i>
   <i type="logical" name="LELF"> F  </i>
   <i type="logical" name="LOPTICS"> F  </i>
   <v name="STM">      0.00000000      0.00000000      0.00000000      0.00000000      0.00000000      0.00000000      0.00000000</v>
  </separator>
  <separator name="performance" >
   <i type="int" name="NPAR">     6</i>
   <i type="int" name="NSIM">     4</i>
   <i type="int" name="NBLK">    -1</i>
   <i type="logical" name="LPLANE"> T  </i>
   <i type="logical" name="LSCALAPACK"> T  </i>
   <i type="logical" name="LSCAAWARE"> F  </i>
   <i type="logical" name="LSCALU"> F  </i>
   <i type="logical" name="LASYNC"> F  </i>
   <i type="logical" name="LORBITALREAL"> F  </i>
  </separator>
  <separator name="miscellaneous" >
   <i type="int" name="IDIOT">     3</i>
   <i type="int" name="PHON_NSTRUCT">    -1</i>
   <i type="logical" name="LMUSIC"> F  </i>
   <v name="POMASS">     10.81100000     95.94000000     28.08500000</v>
   <v name="DARWINR">      0.00000000      0.00000000      0.00000000</v>
   <v name="DARWINV">      1.00000000      1.00000000      1.00000000</v>
   <i type="logical" name="LCORR"> T  </i>
  </separator>
  <i type="logical" name="GGA_COMPAT"> T  </i>
  <i type="logical" name="LBERRY"> F  </i>
  <i type="int" name="ICORELEVEL">     0</i>
  <i type="logical" name="LDAU"> F  </i>
  <i type="int" name="I_CONSTRAINED_M">     0</i>
  <separator name="electronic exchange-correlation" >
   <i type="string" name="GGA">--</i>
   <i type="int" name="VOSKOWN">     0</i>
   <i type="logical" name="LHFCALC"> F  </i>
   <i type="string" name="PRECFOCK"></i>
   <i type="logical" name="LSYMGRAD"> F  </i>
   <i type="logical" name="LHFONE"> F  </i>
   <i type="logical" name="LRHFCALC"> F  </i>
   <i type="logical" name="LTHOMAS"> F  </i>
   <i type="logical" name="LMODELHF"> F  </i>
   <i type="logical" name="LFOCKACE"> F  </i>
   <i name="ENCUT4O">     -1.00000000</i>
   <i type="int" name="EXXOEP">     0</i>
   <i type="int" name="FOURORBIT">     0</i>
   <i name="AEXX">      0.00000000</i>
   <i name="HFALPHA">      0.00000000</i>
   <i name="MCALPHA">      0.00000000</i>
   <i name="ALDAX">      1.00000000</i>
   <i name="AGGAX">      1.00000000</i>
   <i name="ALDAC">      1.00000000</i>
   <i name="AGGAC">      1.00000000</i>
   <i type="int" name="NKREDX">     1</i>
   <i type="int" name="NKREDY">     1</i>
   <i type="int" name="NKREDZ">     1</i>
   <i type="logical" name="SHIFTRED"> F  </i>
   <i type="logical" name="ODDONLY"> F  </i>
   <i type="logical" name="EVENONLY"> F  </i>
   <i type="int" name="LMAXFOCK">     0</i>
   <i type="int" name="NMAXFOCKAE">     0</i>
   <i type="logical" name="LFOCKAEDFT"> F  </i>
   <i name="HFSCREEN">      0.00000000</i>
   <i name="HFSCREENC">      0.00000000</i>
   <i type="int" name="NBANDSGWLOW">     0</i>
  </separator>
  <separator name="vdW DFT" >
   <i type="logical" name="LUSE_VDW"> F  </i>
   <i name="Zab_VDW">     -0.84910000</i>
   <i name="PARAM1">      0.12340000</i>
   <i name="PARAM2">      1.00000000</i>
   <i name="PARAM3">      0.00000000</i>
  </separator>
  <separator name="model GW" >
   <i type="int" name="MODEL_GW">     0</i>
   <i name="MODEL_EPS0">      6.21623411</i>
   <i name="MODEL_ALPHA">      1.00000000</i>
  </separator>
  <separator name="linear response parameters" >
   <i type="logical" name="LEPSILON"> F  </i>
   <i type="logical" name="LRPA"> F  </i>
   <i type="logical" name="LNABLA"> F  </i>
   <i type="logical" name="LVEL"> F  </i>
   <i type="int" name="KINTER">     0</i>
   <i name="CSHIFT">      0.10000000</i>
   <i name="OMEGAMAX">     -1.00000000</i>
   <i name="DEG_THRESHOLD">      0.00200000</i>
   <i name="RTIME">     -0.10000000</i>
   <i name="WPLASMAI">      0.00000000</i>
   <v name="DFIELD">      0.00000000      0.00000000      0.00000000</v>
   <v name="WPLASMA">      0.00000000      0.00000000      0.00000000      0.00000000      0.00000000      0.00000000      0.00000000      0.00000000      0.00000000</v>
  </separator>
  <separator name="orbital magnetization" >
   <i type="logical" name="NUCIND"> F  </i>
   <v name="MAGPOS">      0.00000000      0.00000000      0.00000000</v>
   <i type="logical" name="LNICSALL"> T  </i>
   <i type="logical" name="ORBITALMAG"> F  </i>
   <i type="logical" name="LMAGBLOCH"> F  </i>
   <i type="logical" name="LCHIMAG"> F  </i>
   <i type="logical" name="LGAUGE"> T  </i>
   <i type="int" name="MAGATOM">     0</i>
   <v name="MAGDIPOL">      0.00000000      0.00000000      0.00000000</v>
   <v name="AVECCONST">      0.00000000      0.00000000      0.00000000</v>
  </separator>
  <separator name="response functions" >
   <i type="logical" name="LFINITE_TEMPERATURE"> F  </i>
   <i type="logical" name="LADDER"> F  </i>
   <i type="logical" name="LRPAFORCE"> F  </i>
   <i type="logical" name="LFXC"> F  </i>
   <i type="logical" name="LHARTREE"> T  </i>
   <i type="int" name="IBSE">     0</i>
   <v type="int" name="KPOINT">    -1     0     0     0</v>
   <i type="logical" name="LTCTC"> F  </i>
   <i type="logical" name="LTCTE"> F  </i>
   <i type="logical" name="LTETE"> F  </i>
   <i type="logical" name="LTRIPLET"> F  </i>
   <i type="logical" name="LFXCEPS"> F  </i>
   <i type="logical" name="LFXHEG"> F  </i>
   <i type="int" name="NATURALO">     2</i>
   <i type="logical" name="LHOLEGF"> F  </i>
   <i type="logical" name="L2ORDER"> F  </i>
   <i type="logical" name="LDMP1"> F  </i>
   <i type="logical" name="LMP2LT"> F  </i>
   <i type="logical" name="LSMP2LT"> F  </i>
   <i type="logical" name="LGWLF"> F  </i>
   <i name="ENCUTGW">     -2.00000000</i>
   <i name="ENCUTGWSOFT">     -2.00000000</i>
   <i name="ENCUTLF">     -1.00000000</i>
   <i type="logical" name="LESF_SPLINES"> F  </i>
   <i type="int" name="LMAXMP2">    -1</i>
   <i name="SCISSOR">      0.00000000</i>
   <i type="int" name="NOMEGA">     0</i>
   <i type="int" name="NOMEGAR">     0</i>
   <i type="int" name="NBANDSGW">    -1</i>
   <i type="int" name="NBANDSO">    -1</i>
   <i type="int" name="NBANDSV">    -1</i>
   <i type="int" name="NELM">   100</i>
   <i type="int" name="NELMHF">     1</i>
   <i type="int" name="DIM">     3</i>
   <i type="int" name="IESPILON">     4</i>
   <i type="int" name="ANTIRES">     0</i>
   <i name="OMEGAMAX">    -30.00000000</i>
   <i name="OMEGAMIN">    -30.00000000</i>
   <i name="OMEGATL">   -200.00000000</i>
   <i type="int" name="OMEGAGRID">     0</i>
   <i name="CSHIFT">     -0.10000000</i>
   <i type="logical" name="LSELFENERGY"> F  </i>
   <i type="logical" name="LSPECTRAL"> F  </i>
   <i type="logical" name="LSPECTRALGW"> F  </i>
   <i type="logical" name="LSINGLES"> F  </i>
   <i type="logical" name="LFERMIGW"> F  </i>
   <i type="logical" name="ODDONLYGW"> F  </i>
   <i type="logical" name="EVENONLYGW"> F  </i>
   <i type="int" name="NKREDLFX">     1</i>
   <i type="int" name="NKREDLFY">     1</i>
   <i type="int" name="NKREDLFZ">     1</i>
   <i type="int" name="MAXMEM">  2800</i>
   <i type="int" name="TELESCOPE">     0</i>
   <i type="int" name="NTAUPAR">    -1</i>
   <i type="int" name="NOMEGAPAR">    -1</i>
   <i name="DAMP_NEWTON">      0.80000001</i>
   <i name="LAMBDA">      1.00000000</i>
  </separator>
  <separator name="External order field" >
   <i name="OFIELD_KAPPA">      0.00000000</i>
   <v name="OFIELD_K">      0.00000000      0.00000000      0.00000000</v>
   <i name="OFIELD_Q6_NEAR">      0.00000000</i>
   <i name="OFIELD_Q6_FAR">      0.00000000</i>
   <i name="OFIELD_A">      0.00000000</i>
  </separator>
 </parameters>
 <atominfo>
  <atoms>      12 </atoms>
  <types>       3 </types>
  <array name="atoms" >
   <dimension dim="1">ion</dimension>
   <field type="string">element</field>
   <field type="int">atomtype</field>
   <set>
    <rc><c>B </c><c>   1</c></rc>
    <rc><c>B </c><c>   1</c></rc>
    <rc><c>B </c><c>   1</c></rc>
    <rc><c>B </c><c>   1</c></rc>
    <rc><c>Mo</c><c>   2</c></rc>
    <rc><c>Mo</c><c>   2</c></rc>
    <rc><c>Mo</c><c>   2</c></rc>
    <rc><c>Mo</c><c>   2</c></rc>
    <rc><c>Si</c><c>   3</c></rc>
    <rc><c>Si</c><c>   3</c></rc>
    <rc><c>Si</c><c>   3</c></rc>
    <rc><c>Si</c><c>   3</c></rc>
   </set>
  </array>
  <array name="atomtypes" >
   <dimension dim="1">type</dimension>
   <field type="int">atomspertype</field>
   <field type="string">element</field>
   <field>mass</field>
   <field>valence</field>
   <field type="string">pseudopotential</field>
   <set>
    <rc><c>   4</c><c>B </c><c>     10.81100000</c><c>      3.00000000</c><c>  PAW_PBE B 06Sep2000                   </c></rc>
    <rc><c>   4</c><c>Mo</c><c>     95.94000000</c><c>     14.00000000</c><c>  PAW_PBE Mo_sv 02Feb2006               </c></rc>
    <rc><c>   4</c><c>Si</c><c>     28.08500000</c><c>      4.00000000</c><c>  PAW_PBE Si 05Jan2001                  </c></rc>
   </set>
  </array>
 </atominfo>
 <structure name="initialpos" >
  <crystal>
   <varray name="basis" >
    <v>       4.82260035       0.00000000      -2.91963531 </v>
    <v>      -1.53182628       4.57285276      -2.91963531 </v>
    <v>       0.00000000       0.00000000       5.63753000 </v>
   </varray>
   <i name="volume">    124.32468219 </i>
   <varray name="rec_basis" >
    <v>       0.20735701       0.06946100       0.00000000 </v>
    <v>       0.00000000       0.21868187       0.00000000 </v>
    <v>       0.10738867       0.14922707       0.17738265 </v>
   </varray>
  </crystal>
  <varray name="positions" >
   <v>       0.75030000       0.25030000       0.00061000 </v>
   <v>       0.24970000       0.74970000       0.99939000 </v>
   <v>       0.25030000       0.24970000       0.50000000 </v>
   <v>       0.74970000       0.75030000       0.50000000 </v>
   <v>       0.50000000       0.50000000       0.00000000 </v>
   <v>       0.00000000       0.50000000       0.50000000 </v>
   <v>       0.50000000       0.00000000       0.50000000 </v>
   <v>       0.00000000       0.00000000       0.00000000 </v>
   <v>       0.00000000       0.00000000       0.50000000 </v>
   <v>       0.00000000       0.50000000       0.00000000 </v>
   <v>       0.50000000       0.50000000       0.50000000 </v>
   <v>       0.50000000       0.00000000       0.00000000 </v>
  </varray>
 </structure>
 <calculation>
  <scstep>
   <time name="total">   20.12   20.45</time>
   <energy>
    <i name="alphaZ">    440.47182076 </i>
    <i name="ewald">  -6655.41113364 </i>
    <i name="hartreedc">  -1950.34714376 </i>
    <i name="XCdc">    334.15724578 </i>
    <i name="pawpsdc">   6444.67582193 </i>
    <i name="pawaedc">  -6389.50304870 </i>
    <i name="eentropy">     -0.00042922 </i>
    <i name="bandstr">    384.76213566 </i>
    <i name="atom">   8146.07472429 </i>
    <i name="e_fr_energy">    754.87999309 </i>
    <i name="e_wo_entrp">    754.88042232 </i>
    <i name="e_0_energy">    754.88020771 </i>
   </energy>
  </scstep>
  <scstep>
   <time name="total">   20.89   21.06</time>
   <energy>
    <i name="e_fr_energy">   -155.35475622 </i>
    <i name="e_wo_entrp">   -155.35389395 </i>
    <i name="e_0_energy">   -155.35432508 </i>
   </energy>
  </scstep>
  <scstep>
   <time name="total">   22.47   22.66</time>
   <energy>
    <i name="e_fr_energy">   -192.16031640 </i>
    <i name="e_wo_entrp">   -192.15879207 </i>
    <i name="e_0_energy">   -192.15955423 </i>
   </energy>
  </scstep>
  <scstep>
   <time name="total">   21.88   22.06</time>
   <energy>
    <i name="e_fr_energy">   -192.84783319 </i>
    <i name="e_wo_entrp">   -192.84596228 </i>
    <i name="e_0_energy">   -192.84689774 </i>
   </energy>
  </scstep>
  <scstep>
   <time name="total">   23.80   24.01</time>
   <energy>
    <i name="e_fr_energy">   -192.85681494 </i>
    <i name="e_wo_entrp">   -192.85495106 </i>
    <i name="e_0_energy">   -192.85588300 </i>
   </energy>
  </scstep>
  <scstep>
   <time name="total">   23.83   24.06</time>
   <energy>
    <i name="e_fr_energy">   -131.24268366 </i>
    <i name="e_wo_entrp">   -131.24165191 </i>
    <i name="e_0_energy">   -131.24216779 </i>
   </energy>
  </scstep>
  <scstep>
   <time name="total">   23.67   23.87</time>
   <energy>
    <i name="e_fr_energy">   -151.19117156 </i>
    <i name="e_wo_entrp">   -151.19006235 </i>
    <i name="e_0_energy">   -151.19061695 </i>
   </energy>
  </scstep>
  <scstep>
   <time name="total">   23.62   23.82</time>
   <energy>
    <i name="e_fr_energy">   -154.06839501 </i>
    <i name="e_wo_entrp">   -154.06719117 </i>
    <i name="e_0_energy">   -154.06779309 </i>
   </energy>
  </scstep>
  <scstep>
   <time name="total">   23.61   23.82</time>
   <energy>
    <i name="e_fr_energy">   -154.73336703 </i>
    <i name="e_wo_entrp">   -154.73202740 </i>
    <i name="e_0_energy">   -154.73269721 </i>
   </energy>
  </scstep>
  <scstep>
   <time name="total">   23.34   23.54</time>
   <energy>
    <i name="e_fr_energy">   -154.95282772 </i>
    <i name="e_wo_entrp">   -154.95146556 </i>
    <i name="e_0_energy">   -154.95214664 </i>
   </energy>
  </scstep>
  <scstep>
   <time name="total">   23.78   23.99</time>
   <energy>
    <i name="e_fr_energy">   -155.01519223 </i>
    <i name="e_wo_entrp">   -155.01380524 </i>
    <i name="e_0_energy">   -155.01449873 </i>
   </energy>
  </scstep>
  <scstep>
   <time name="total">   23.44   23.65</time>
   <energy>
    <i name="e_fr_energy">   -155.03289017 </i>
    <i name="e_wo_entrp">   -155.03155844 </i>
    <i name="e_0_energy">   -155.03222431 </i>
   </energy>
  </scstep>
  <scstep>
   <time name="total">   23.63   23.84</time>
   <energy>
    <i name="e_fr_energy">   -155.03802086 </i>
    <i name="e_wo_entrp">   -155.03672909 </i>
    <i name="e_0_energy">   -155.03737497 </i>
   </energy>
  </scstep>
  <scstep>
   <time name="total">   23.49   23.70</time>
   <energy>
    <i name="e_fr_energy">   -155.03952508 </i>
    <i name="e_wo_entrp">   -155.03825924 </i>
    <i name="e_0_energy">   -155.03889216 </i>
   </energy>
  </scstep>
  <scstep>
   <time name="total">   23.34   23.55</time>
   <energy>
    <i name="e_fr_energy">   -155.04002199 </i>
    <i name="e_wo_entrp">   -155.03877371 </i>
    <i name="e_0_energy">   -155.03939785 </i>
   </energy>
  </scstep>
  <scstep>
   <time name="total">   23.46   23.66</time>
   <energy>
    <i name="e_fr_energy">   -155.04017291 </i>
    <i name="e_wo_entrp">   -155.03893469 </i>
    <i name="e_0_energy">   -155.03955380 </i>
   </energy>
  </scstep>
  <scstep>
   <time name="total">   23.53   23.74</time>
   <energy>
    <i name="e_fr_energy">   -155.04022204 </i>
    <i name="e_wo_entrp">   -155.03898730 </i>
    <i name="e_0_energy">   -155.03960467 </i>
   </energy>
  </scstep>
  <scstep>
   <time name="total">   23.58   23.79</time>
   <energy>
    <i name="e_fr_energy">   -155.04023549 </i>
    <i name="e_wo_entrp">   -155.03900235 </i>
    <i name="e_0_energy">   -155.03961892 </i>
   </energy>
  </scstep>
  <scstep>
   <time name="total">   23.55   23.76</time>
   <energy>
    <i name="e_fr_energy">   -155.04024182 </i>
    <i name="e_wo_entrp">   -155.03900870 </i>
    <i name="e_0_energy">   -155.03962526 </i>
   </energy>
  </scstep>
  <scstep>
   <time name="total">   23.41   23.62</time>
   <energy>
    <i name="e_fr_energy">   -155.04024404 </i>
    <i name="e_wo_entrp">   -155.03901049 </i>
    <i name="e_0_energy">   -155.03962726 </i>
   </energy>
  </scstep>
  <scstep>
   <time name="total">   23.55   23.76</time>
   <energy>
    <i name="e_fr_energy">   -155.04024466 </i>
    <i name="e_wo_entrp">   -155.03901069 </i>
    <i name="e_0_energy">   -155.03962767 </i>
   </energy>
  </scstep>
  <scstep>
   <time name="total">   23.66   23.86</time>
   <energy>
    <i name="e_fr_energy">   -155.04024497 </i>
    <i name="e_wo_entrp">   -155.03901074 </i>
    <i name="e_0_energy">   -155.03962785 </i>
   </energy>
  </scstep>
  <scstep>
   <time name="total">   23.48   23.69</time>
   <energy>
    <i name="e_fr_energy">   -155.04024504 </i>
    <i name="e_wo_entrp">   -155.03901067 </i>
    <i name="e_0_energy">   -155.03962786 </i>
   </energy>
  </scstep>
  <scstep>
   <time name="total">   23.47   23.67</time>
   <energy>
    <i name="e_fr_energy">   -155.04024509 </i>
    <i name="e_wo_entrp">   -155.03901058 </i>
    <i name="e_0_energy">   -155.03962783 </i>
   </energy>
  </scstep>
  <scstep>
   <time name="total">   23.52   23.73</time>
   <energy>
    <i name="e_fr_energy">   -155.04024510 </i>
    <i name="e_wo_entrp">   -155.03901055 </i>
    <i name="e_0_energy">   -155.03962783 </i>
   </energy>
  </scstep>
  <scstep>
   <time name="total">   23.45   23.66</time>
   <energy>
    <i name="e_fr_energy">   -155.04024511 </i>
    <i name="e_wo_entrp">   -155.03901051 </i>
    <i name="e_0_energy">   -155.03962781 </i>
   </energy>
  </scstep>
  <scstep>
   <time name="total">   23.60   23.81</time>
   <energy>
    <i name="e_fr_energy">   -155.04024511 </i>
    <i name="e_wo_entrp">   -155.03901047 </i>
    <i name="e_0_energy">   -155.03962779 </i>
   </energy>
  </scstep>
  <scstep>
   <time name="total">   21.78   21.98</time>
   <energy>
    <i name="e_fr_energy">   -155.04024511 </i>
    <i name="e_wo_entrp">   -155.03901044 </i>
    <i name="e_0_energy">   -155.03962777 </i>
   </energy>
  </scstep>
  <scstep>
   <time name="total">   22.18   22.37</time>
   <energy>
    <i name="e_fr_energy">   -155.04024511 </i>
    <i name="e_wo_entrp">   -155.03901041 </i>
    <i name="e_0_energy">   -155.03962776 </i>
   </energy>
  </scstep>
  <scstep>
   <time name="total">   22.49   22.71</time>
   <energy>
    <i name="e_fr_energy">   -155.04024511 </i>
    <i name="e_wo_entrp">   -155.03901038 </i>
    <i name="e_0_energy">   -155.03962774 </i>
   </energy>
  </scstep>
  <scstep>
   <time name="total">   25.94   26.17</time>
   <energy>
    <i name="alphaZ">    440.47182076 </i>
    <i name="ewald">  -6655.41113364 </i>
    <i name="hartreedc">  -1904.10644255 </i>
    <i name="XCdc">    345.00138783 </i>
    <i name="pawpsdc">  13995.00803296 </i>
    <i name="pawaedc"> -13954.07337422 </i>
    <i name="eentropy">     -0.00123474 </i>
    <i name="bandstr">   -568.00402580 </i>
    <i name="atom">   8146.07472429 </i>
    <i name="e_fr_energy">   -155.04024511 </i>
    <i name="e_wo_entrp">   -155.03901037 </i>
    <i name="e_0_energy">   -155.03962774 </i>
   </energy>
  </scstep>
  <structure>
   <crystal>
    <varray name="basis" >
     <v>       4.82260035       0.00000000      -2.91963531 </v>
     <v>      -1.53182628       4.57285276      -2.91963531 </v>
     <v>       0.00000000       0.00000000       5.63753000 </v>
    </varray>
    <i name="volume">    124.32468219 </i>
    <varray name="rec_basis" >
     <v>       0.20735701       0.06946100       0.00000000 </v>
     <v>       0.00000000       0.21868187       0.00000000 </v>
     <v>       0.10738867       0.14922707       0.17738265 </v>
    </varray>
   </crystal>
   <varray name="positions" >
    <v>       0.75030000       0.25030000       0.00061000 </v>
    <v>       0.24970000       0.74970000       0.99939000 </v>
    <v>       0.25030000       0.24970000       0.50000000 </v>
    <v>       0.74970000       0.75030000       0.50000000 </v>
    <v>       0.50000000       0.50000000       0.00000000 </v>
    <v>       0.00000000       0.50000000       0.50000000 </v>
    <v>       0.50000000       0.00000000       0.50000000 </v>
    <v>       0.00000000       0.00000000       0.00000000 </v>
    <v>       0.00000000       0.00000000       0.50000000 </v>
    <v>       0.00000000       0.50000000       0.00000000 </v>
    <v>       0.50000000       0.50000000       0.50000000 </v>
    <v>       0.50000000       0.00000000       0.00000000 </v>
   </varray>
  </structure>
  <varray name="forces" >
   <v>       0.00000000       0.00000000       0.00000000 </v>
   <v>       0.00000000       0.00000000       0.00000000 </v>
   <v>       0.00000000       0.00000000       0.00000000 </v>
   <v>       0.00000000       0.00000000       0.00000000 </v>
   <v>       0.00000000       0.00000000       0.00000000 </v>
   <v>       0.00000000       0.00000000       0.00000000 </v>
   <v>       0.00000000       0.00000000       0.00000000 </v>
   <v>       0.00000000       0.00000000       0.00000000 </v>
   <v>       0.00000000       0.00000000       0.00000000 </v>
   <v>       0.00000000       0.00000000       0.00000000 </v>
   <v>       0.00000000       0.00000000       0.00000000 </v>
   <v>       0.00000000       0.00000000       0.00000000 </v>
  </varray>
  <varray name="stress" >
   <v>       0.00000000       0.00000000       0.00000000 </v>
   <v>       0.00000000       0.00000000       0.00000000 </v>
   <v>       0.00000000       0.00000000       0.00000000 </v>
  </varray>
  <energy>
   <i name="e_fr_energy">   -155.04024511 </i>
   <i name="e_wo_entrp">   -155.03901037 </i>
   <i name="e_0_energy">   -155.03962774 </i>
  </energy>
  <time name="totalsc">  722.68  729.23</time>
  <eigenvalues>
   <array>
    <dimension dim="1">band</dimension>
    <dimension dim="2">kpoint</dimension>
    <dimension dim="3">spin</dimension>
    <field>eigene</field>
    <field>occ</field>
    <set>
     <set comment="spin 1">
      <set comment="kpoint 1">
       <r>  -49.6190    1.0000 </r>
       <r>  -49.4907    1.0000 </r>
       <r>  -49.4907    1.0000 </r>
       <r>  -49.3589    1.0000 </r>
       <r>  -24.0293    1.0000 </r>
       <r>  -24.0293    1.0000 </r>
       <r>  -23.8748    1.0000 </r>
       <r>  -23.8746    1.0000 </r>
       <r>  -22.9613    1.0000 </r>
       <r>  -22.8860    1.0000 </r>
       <r>  -22.8857    1.0000 </r>
       <r>  -22.8361    1.0000 </r>
       <r>  -22.8361    1.0000 </r>
       <r>  -22.7105    1.0000 </r>
       <r>  -22.7105    1.0000 </r>
       <r>  -22.6880    1.0000 </r>
       <r>   -1.6571    1.0000 </r>
       <r>    1.0720    1.0000 </r>
       <r>    1.8429    1.0000 </r>
       <r>    1.8429    1.0000 </r>
       <r>    4.8594    1.0000 </r>
       <r>    5.2023    1.0000 </r>
       <r>    5.2023    1.0000 </r>
       <r>    5.2415    1.0000 </r>
       <r>    5.2415    1.0000 </r>
       <r>    6.1904    1.0000 </r>
       <r>    7.2198    1.0000 </r>
       <r>    7.2198    1.0000 </r>
       <r>    7.4198    1.0000 </r>
       <r>    7.4201    1.0000 </r>
       <r>    7.9002    1.0000 </r>
       <r>    8.7271    1.0000 </r>
       <r>    8.7273    1.0000 </r>
       <r>    8.8719    1.0000 </r>
       <r>    9.6841    1.0000 </r>
       <r>    9.6841    1.0000 </r>
       <r>   10.9468    1.0000 </r>
       <r>   12.6345    1.0000 </r>
       <r>   12.7027    1.0000 </r>
       <r>   12.7028    1.0000 </r>
       <r>   13.7169    0.0000 </r>
       <r>   13.7172    0.0000 </r>
       <r>   14.0947    0.0000 </r>
       <r>   14.2961    0.0000 </r>
       <r>   14.2961    0.0000 </r>
       <r>   14.3291    0.0000 </r>
       <r>   14.3291    0.0000 </r>
       <r>   14.7036    0.0000 </r>
       <r>   14.7037    0.0000 </r>
       <r>   15.6092    0.0000 </r>
       <r>   15.6094    0.0000 </r>
       <r>   17.7686    0.0000 </r>
       <r>   17.9361    0.0000 </r>
       <r>   18.1709    0.0000 </r>
      </set>
      <set comment="kpoint 2">
       <r>  -49.6142    1.0000 </r>
       <r>  -49.4957    1.0000 </r>
       <r>  -49.4858    1.0000 </r>
       <r>  -49.3640    1.0000 </r>
       <r>  -24.0236    1.0000 </r>
       <r>  -23.9887    1.0000 </r>
       <r>  -23.8808    1.0000 </r>
       <r>  -23.8331    1.0000 </r>
       <r>  -22.9571    1.0000 </r>
       <r>  -22.9327    1.0000 </r>
       <r>  -22.8793    1.0000 </r>
       <r>  -22.8414    1.0000 </r>
       <r>  -22.8303    1.0000 </r>
       <r>  -22.7578    1.0000 </r>
       <r>  -22.7173    1.0000 </r>
       <r>  -22.6935    1.0000 </r>
       <r>   -1.5243    1.0000 </r>
       <r>    1.1521    1.0000 </r>
       <r>    1.7921    1.0000 </r>
       <r>    1.9403    1.0000 </r>
       <r>    4.3931    1.0000 </r>
       <r>    4.6495    1.0000 </r>
       <r>    4.9177    1.0000 </r>
       <r>    5.3306    1.0000 </r>
       <r>    5.9837    1.0000 </r>
       <r>    6.4412    1.0000 </r>
       <r>    7.2512    1.0000 </r>
       <r>    7.3666    1.0000 </r>
       <r>    7.5406    1.0000 </r>
       <r>    7.7355    1.0000 </r>
       <r>    7.8266    1.0000 </r>
       <r>    7.9288    1.0000 </r>
       <r>    8.2808    1.0000 </r>
       <r>    8.8030    1.0000 </r>
       <r>    9.9057    1.0000 </r>
       <r>   10.4172    1.0000 </r>
       <r>   11.1188    1.0000 </r>
       <r>   12.7045    1.0000 </r>
       <r>   12.8081    1.0000 </r>
       <r>   12.8718    1.0000 </r>
       <r>   13.1838    1.0000 </r>
       <r>   13.6594    0.0000 </r>
       <r>   13.7122    0.0000 </r>
       <r>   14.2377    0.0000 </r>
       <r>   14.2514    0.0000 </r>
       <r>   14.2706    0.0000 </r>
       <r>   14.3460    0.0000 </r>
       <r>   14.5649    0.0000 </r>
       <r>   15.2991    0.0000 </r>
       <r>   15.5546    0.0000 </r>
       <r>   16.0094    0.0000 </r>
       <r>   17.2411    0.0000 </r>
       <r>   17.3601    0.0000 </r>
       <r>   17.9437    0.0000 </r>
      </set>
      <set comment="kpoint 3">
       <r>  -49.6004    1.0000 </r>
       <r>  -49.5097    1.0000 </r>
       <r>  -49.4717    1.0000 </r>
       <r>  -49.3785    1.0000 </r>
       <r>  -24.0074    1.0000 </r>
       <r>  -23.8984    1.0000 </r>
       <r>  -23.8718    1.0000 </r>
       <r>  -23.7135    1.0000 </r>
       <r>  -23.0645    1.0000 </r>
       <r>  -22.9448    1.0000 </r>
       <r>  -22.8914    1.0000 </r>
       <r>  -22.8604    1.0000 </r>
       <r>  -22.8563    1.0000 </r>
       <r>  -22.8139    1.0000 </r>
       <r>  -22.7366    1.0000 </r>
       <r>  -22.7092    1.0000 </r>
       <r>   -1.1383    1.0000 </r>
       <r>    1.3857    1.0000 </r>
       <r>    1.5525    1.0000 </r>
       <r>    2.1933    1.0000 </r>
       <r>    3.7212    1.0000 </r>
       <r>    4.2488    1.0000 </r>
       <r>    4.3297    1.0000 </r>
       <r>    5.6613    1.0000 </r>
       <r>    6.5012    1.0000 </r>
       <r>    6.6305    1.0000 </r>
       <r>    6.9476    1.0000 </r>
       <r>    7.4273    1.0000 </r>
       <r>    7.5711    1.0000 </r>
       <r>    7.6880    1.0000 </r>
       <r>    7.8997    1.0000 </r>
       <r>    7.9857    1.0000 </r>
       <r>    8.3098    1.0000 </r>
       <r>    8.8924    1.0000 </r>
       <r>   10.1728    1.0000 </r>
       <r>   11.0594    1.0000 </r>
       <r>   11.1926    1.0000 </r>
       <r>   11.5210    1.0000 </r>
       <r>   12.6543    1.0000 </r>
       <r>   12.7621    1.0000 </r>
       <r>   13.3239    1.0000 </r>
       <r>   13.7008    0.0000 </r>
       <r>   14.0932    0.0000 </r>
       <r>   14.1699    0.0000 </r>
       <r>   14.3887    0.0000 </r>
       <r>   14.4197    0.0000 </r>
       <r>   14.4246    0.0000 </r>
       <r>   14.4891    0.0000 </r>
       <r>   15.3550    0.0000 </r>
       <r>   15.5694    0.0000 </r>
       <r>   15.7440    0.0000 </r>
       <r>   16.4917    0.0000 </r>
       <r>   17.4807    0.0000 </r>
       <r>   17.6868    0.0000 </r>
      </set>
      <set comment="kpoint 4">
       <r>  -49.5798    1.0000 </r>
       <r>  -49.5307    1.0000 </r>
       <r>  -49.4505    1.0000 </r>
       <r>  -49.4000    1.0000 </r>
       <r>  -23.9829    1.0000 </r>
       <r>  -23.9238    1.0000 </r>
       <r>  -23.6941    1.0000 </r>
       <r>  -23.5316    1.0000 </r>
       <r>  -23.2575    1.0000 </r>
       <r>  -23.0869    1.0000 </r>
       <r>  -22.9258    1.0000 </r>
       <r>  -22.8779    1.0000 </r>
       <r>  -22.8324    1.0000 </r>
       <r>  -22.7896    1.0000 </r>
       <r>  -22.7653    1.0000 </r>
       <r>  -22.7329    1.0000 </r>
       <r>   -0.5364    1.0000 </r>
       <r>    0.9835    1.0000 </r>
       <r>    1.7481    1.0000 </r>
       <r>    2.3862    1.0000 </r>
       <r>    3.4591    1.0000 </r>
       <r>    3.8565    1.0000 </r>
       <r>    4.0037    1.0000 </r>
       <r>    5.3119    1.0000 </r>
       <r>    6.0589    1.0000 </r>
       <r>    6.9505    1.0000 </r>
       <r>    7.1922    1.0000 </r>
       <r>    7.4304    1.0000 </r>
       <r>    7.9236    1.0000 </r>
       <r>    7.9418    1.0000 </r>
       <r>    8.0003    1.0000 </r>
       <r>    8.4920    1.0000 </r>
       <r>    8.7651    1.0000 </r>
       <r>    8.9821    1.0000 </r>
       <r>    9.7787    1.0000 </r>
       <r>   10.3209    1.0000 </r>
       <r>   11.0726    1.0000 </r>
       <r>   12.0227    1.0000 </r>
       <r>   12.2598    1.0000 </r>
       <r>   12.5073    1.0000 </r>
       <r>   12.7810    1.0000 </r>
       <r>   13.7197    0.0000 </r>
       <r>   13.9272    0.0000 </r>
       <r>   14.1055    0.0000 </r>
       <r>   14.3920    0.0000 </r>
       <r>   14.4955    0.0000 </r>
       <r>   14.6212    0.0000 </r>
       <r>   14.6661    0.0000 </r>
       <r>   15.2989    0.0000 </r>
       <r>   15.7313    0.0000 </r>
       <r>   16.0747    0.0000 </r>
       <r>   16.2540    0.0000 </r>
       <r>   16.7784    0.0000 </r>
       <r>   17.9427    0.0000 </r>
      </set>
      <set comment="kpoint 5">
       <r>  -49.5556    1.0000 </r>
       <r>  -49.5549    1.0000 </r>
       <r>  -49.4257    1.0000 </r>
       <r>  -49.4250    1.0000 </r>
       <r>  -23.9539    1.0000 </r>
       <r>  -23.9531    1.0000 </r>
       <r>  -23.4792    1.0000 </r>
       <r>  -23.4786    1.0000 </r>
       <r>  -23.3124    1.0000 </r>
       <r>  -23.3118    1.0000 </r>
       <r>  -22.9027    1.0000 </r>
       <r>  -22.9021    1.0000 </r>
       <r>  -22.7993    1.0000 </r>
       <r>  -22.7985    1.0000 </r>
       <r>  -22.7614    1.0000 </r>
       <r>  -22.7608    1.0000 </r>
       <r>    0.2130    1.0000 </r>
       <r>    0.2133    1.0000 </r>
       <r>    2.1644    1.0000 </r>
       <r>    2.1645    1.0000 </r>
       <r>    3.5600    1.0000 </r>
       <r>    3.5605    1.0000 </r>
       <r>    4.3941    1.0000 </r>
       <r>    4.3947    1.0000 </r>
       <r>    6.4640    1.0000 </r>
       <r>    6.4646    1.0000 </r>
       <r>    7.5598    1.0000 </r>
       <r>    7.5605    1.0000 </r>
       <r>    7.9904    1.0000 </r>
       <r>    7.9907    1.0000 </r>
       <r>    8.7839    1.0000 </r>
       <r>    8.7840    1.0000 </r>
       <r>    8.9764    1.0000 </r>
       <r>    8.9765    1.0000 </r>
       <r>    9.3039    1.0000 </r>
       <r>    9.3045    1.0000 </r>
       <r>   11.6156    1.0000 </r>
       <r>   11.6159    1.0000 </r>
       <r>   12.4660    1.0000 </r>
       <r>   12.4663    1.0000 </r>
       <r>   13.0425    1.0000 </r>
       <r>   13.0425    1.0000 </r>
       <r>   13.7938    0.0000 </r>
       <r>   13.7944    0.0000 </r>
       <r>   14.4058    0.0000 </r>
       <r>   14.4060    0.0000 </r>
       <r>   14.6773    0.0000 </r>
       <r>   14.6774    0.0000 </r>
       <r>   15.6286    0.0000 </r>
       <r>   15.6290    0.0000 </r>
       <r>   16.1333    0.0000 </r>
       <r>   16.1347    0.0000 </r>
       <r>   18.2744    0.0000 </r>
       <r>   18.3096    0.0000 </r>
      </set>
      <set comment="kpoint 6">
       <r>  -49.6093    1.0000 </r>
       <r>  -49.4908    1.0000 </r>
       <r>  -49.4908    1.0000 </r>
       <r>  -49.3690    1.0000 </r>
       <r>  -23.9835    1.0000 </r>
       <r>  -23.9834    1.0000 </r>
       <r>  -23.8394    1.0000 </r>
       <r>  -23.8386    1.0000 </r>
       <r>  -22.9554    1.0000 </r>
       <r>  -22.9267    1.0000 </r>
       <r>  -22.9254    1.0000 </r>
       <r>  -22.8339    1.0000 </r>
       <r>  -22.8339    1.0000 </r>
       <r>  -22.7647    1.0000 </r>
       <r>  -22.7647    1.0000 </r>
       <r>  -22.7004    1.0000 </r>
       <r>   -1.3196    1.0000 </r>
       <r>    1.2612    1.0000 </r>
       <r>    1.8986    1.0000 </r>
       <r>    1.8986    1.0000 </r>
       <r>    4.1523    1.0000 </r>
       <r>    4.3702    1.0000 </r>
       <r>    4.3702    1.0000 </r>
       <r>    5.7570    1.0000 </r>
       <r>    5.7570    1.0000 </r>
       <r>    6.8746    1.0000 </r>
       <r>    7.0061    1.0000 </r>
       <r>    7.4206    1.0000 </r>
       <r>    7.4206    1.0000 </r>
       <r>    7.8144    1.0000 </r>
       <r>    7.8152    1.0000 </r>
       <r>    7.9761    1.0000 </r>
       <r>    8.2819    1.0000 </r>
       <r>    8.6214    1.0000 </r>
       <r>   10.3165    1.0000 </r>
       <r>   10.6583    1.0000 </r>
       <r>   11.2552    1.0000 </r>
       <r>   12.1310    1.0000 </r>
       <r>   12.8559    1.0000 </r>
       <r>   12.8559    1.0000 </r>
       <r>   13.2539    1.0000 </r>
       <r>   13.8704    0.0000 </r>
       <r>   13.8742    0.0000 </r>
       <r>   14.0744    0.0000 </r>
       <r>   14.0745    0.0000 </r>
       <r>   14.3346    0.0000 </r>
       <r>   14.3346    0.0000 </r>
       <r>   15.0196    0.0000 </r>
       <r>   15.2172    0.0000 </r>
       <r>   15.6671    0.0000 </r>
       <r>   16.3218    0.0000 </r>
       <r>   17.2085    0.0000 </r>
       <r>   17.2290    0.0000 </r>
       <r>   17.4467    0.0000 </r>
      </set>
      <set comment="kpoint 7">
       <r>  -49.5955    1.0000 </r>
       <r>  -49.5049    1.0000 </r>
       <r>  -49.4767    1.0000 </r>
       <r>  -49.3835    1.0000 </r>
       <r>  -23.9674    1.0000 </r>
       <r>  -23.8674    1.0000 </r>
       <r>  -23.8556    1.0000 </r>
       <r>  -23.7193    1.0000 </r>
       <r>  -23.0578    1.0000 </r>
       <r>  -22.9448    1.0000 </r>
       <r>  -22.9078    1.0000 </r>
       <r>  -22.8976    1.0000 </r>
       <r>  -22.8471    1.0000 </r>
       <r>  -22.8161    1.0000 </r>
       <r>  -22.7840    1.0000 </r>
       <r>  -22.7174    1.0000 </r>
       <r>   -0.8723    1.0000 </r>
       <r>    1.5134    1.0000 </r>
       <r>    1.5561    1.0000 </r>
       <r>    2.0945    1.0000 </r>
       <r>    3.7024    1.0000 </r>
       <r>    3.9324    1.0000 </r>
       <r>    4.2802    1.0000 </r>
       <r>    5.6675    1.0000 </r>
       <r>    5.7265    1.0000 </r>
       <r>    6.3446    1.0000 </r>
       <r>    7.5995    1.0000 </r>
       <r>    7.6429    1.0000 </r>
       <r>    7.6658    1.0000 </r>
       <r>    7.7254    1.0000 </r>
       <r>    8.0667    1.0000 </r>
       <r>    8.0835    1.0000 </r>
       <r>    8.2487    1.0000 </r>
       <r>    8.8414    1.0000 </r>
       <r>   10.4649    1.0000 </r>
       <r>   10.9073    1.0000 </r>
       <r>   10.9790    1.0000 </r>
       <r>   11.4569    1.0000 </r>
       <r>   12.5391    1.0000 </r>
       <r>   12.6717    1.0000 </r>
       <r>   12.7435    1.0000 </r>
       <r>   13.8769    0.0000 </r>
       <r>   13.9653    0.0000 </r>
       <r>   14.1595    0.0000 </r>
       <r>   14.3014    0.0000 </r>
       <r>   14.6753    0.0000 </r>
       <r>   14.8328    0.0000 </r>
       <r>   15.0371    0.0000 </r>
       <r>   15.2704    0.0000 </r>
       <r>   16.0360    0.0000 </r>
       <r>   16.4037    0.0000 </r>
       <r>   16.5993    0.0000 </r>
       <r>   17.3251    0.0000 </r>
       <r>   17.4714    0.0000 </r>
      </set>
      <set comment="kpoint 8">
       <r>  -49.5748    1.0000 </r>
       <r>  -49.5259    1.0000 </r>
       <r>  -49.4556    1.0000 </r>
       <r>  -49.4050    1.0000 </r>
       <r>  -23.9428    1.0000 </r>
       <r>  -23.8817    1.0000 </r>
       <r>  -23.6889    1.0000 </r>
       <r>  -23.5375    1.0000 </r>
       <r>  -23.2506    1.0000 </r>
       <r>  -23.0939    1.0000 </r>
       <r>  -22.9265    1.0000 </r>
       <r>  -22.8791    1.0000 </r>
       <r>  -22.8675    1.0000 </r>
       <r>  -22.8127    1.0000 </r>
       <r>  -22.7910    1.0000 </r>
       <r>  -22.7421    1.0000 </r>
       <r>   -0.2298    1.0000 </r>
       <r>    0.8794    1.0000 </r>
       <r>    1.8794    1.0000 </r>
       <r>    2.1780    1.0000 </r>
       <r>    3.3483    1.0000 </r>
       <r>    3.9022    1.0000 </r>
       <r>    4.2986    1.0000 </r>
       <r>    4.6936    1.0000 </r>
       <r>    5.9317    1.0000 </r>
       <r>    6.9789    1.0000 </r>
       <r>    7.1894    1.0000 </r>
       <r>    7.7246    1.0000 </r>
       <r>    7.9352    1.0000 </r>
       <r>    8.1524    1.0000 </r>
       <r>    8.2668    1.0000 </r>
       <r>    8.5099    1.0000 </r>
       <r>    8.5214    1.0000 </r>
       <r>    9.0073    1.0000 </r>
       <r>    9.8777    1.0000 </r>
       <r>    9.9361    1.0000 </r>
       <r>   11.0910    1.0000 </r>
       <r>   11.9033    1.0000 </r>
       <r>   12.1210    1.0000 </r>
       <r>   12.1878    1.0000 </r>
       <r>   12.4326    1.0000 </r>
       <r>   13.7248    0.0000 </r>
       <r>   13.9299    0.0000 </r>
       <r>   14.1083    0.0000 </r>
       <r>   14.5137    0.0000 </r>
       <r>   14.8144    0.0000 </r>
       <r>   14.8323    0.0000 </r>
       <r>   15.0248    0.0000 </r>
       <r>   15.7702    0.0000 </r>
       <r>   16.0196    0.0000 </r>
       <r>   16.1279    0.0000 </r>
       <r>   16.4401    0.0000 </r>
       <r>   17.1315    0.0000 </r>
       <r>   18.0700    0.0000 </r>
      </set>
      <set comment="kpoint 9">
       <r>  -49.5508    1.0000 </r>
       <r>  -49.5500    1.0000 </r>
       <r>  -49.4307    1.0000 </r>
       <r>  -49.4300    1.0000 </r>
       <r>  -23.9133    1.0000 </r>
       <r>  -23.9114    1.0000 </r>
       <r>  -23.4735    1.0000 </r>
       <r>  -23.4719    1.0000 </r>
       <r>  -23.3191    1.0000 </r>
       <r>  -23.3180    1.0000 </r>
       <r>  -22.9028    1.0000 </r>
       <r>  -22.8913    1.0000 </r>
       <r>  -22.8465    1.0000 </r>
       <r>  -22.8455    1.0000 </r>
       <r>  -22.7708    1.0000 </r>
       <r>  -22.7624    1.0000 </r>
       <r>    0.0946    1.0000 </r>
       <r>    0.5209    1.0000 </r>
       <r>    1.9846    1.0000 </r>
       <r>    2.2581    1.0000 </r>
       <r>    3.1455    1.0000 </r>
       <r>    3.9333    1.0000 </r>
       <r>    4.1368    1.0000 </r>
       <r>    4.7638    1.0000 </r>
       <r>    6.3989    1.0000 </r>
       <r>    6.7896    1.0000 </r>
       <r>    7.3434    1.0000 </r>
       <r>    7.7048    1.0000 </r>
       <r>    7.7293    1.0000 </r>
       <r>    8.4380    1.0000 </r>
       <r>    8.4531    1.0000 </r>
       <r>    8.5277    1.0000 </r>
       <r>    8.9903    1.0000 </r>
       <r>    9.1020    1.0000 </r>
       <r>    9.1520    1.0000 </r>
       <r>    9.4343    1.0000 </r>
       <r>   11.2507    1.0000 </r>
       <r>   11.5978    1.0000 </r>
       <r>   11.9075    1.0000 </r>
       <r>   12.4544    1.0000 </r>
       <r>   13.0717    1.0000 </r>
       <r>   13.6397    0.0000 </r>
       <r>   13.6419    0.0000 </r>
       <r>   13.9464    0.0000 </r>
       <r>   14.1717    0.0000 </r>
       <r>   14.7589    0.0000 </r>
       <r>   14.7800    0.0000 </r>
       <r>   15.0709    0.0000 </r>
       <r>   15.5276    0.0000 </r>
       <r>   15.9428    0.0000 </r>
       <r>   16.0385    0.0000 </r>
       <r>   16.3426    0.0000 </r>
       <r>   17.5014    0.0000 </r>
       <r>   17.7498    0.0000 </r>
      </set>
      <set comment="kpoint 10">
       <r>  -49.5751    1.0000 </r>
       <r>  -49.5256    1.0000 </r>
       <r>  -49.4553    1.0000 </r>
       <r>  -49.4052    1.0000 </r>
       <r>  -23.9410    1.0000 </r>
       <r>  -23.8831    1.0000 </r>
       <r>  -23.6872    1.0000 </r>
       <r>  -23.5384    1.0000 </r>
       <r>  -23.2516    1.0000 </r>
       <r>  -23.0932    1.0000 </r>
       <r>  -22.9151    1.0000 </r>
       <r>  -22.8796    1.0000 </r>
       <r>  -22.8772    1.0000 </r>
       <r>  -22.8122    1.0000 </r>
       <r>  -22.7990    1.0000 </r>
       <r>  -22.7347    1.0000 </r>
       <r>   -0.6157    1.0000 </r>
       <r>    1.2169    1.0000 </r>
       <r>    1.6605    1.0000 </r>
       <r>    2.3357    1.0000 </r>
       <r>    3.2054    1.0000 </r>
       <r>    3.7498    1.0000 </r>
       <r>    4.5032    1.0000 </r>
       <r>    5.6125    1.0000 </r>
       <r>    6.4186    1.0000 </r>
       <r>    6.9080    1.0000 </r>
       <r>    6.9823    1.0000 </r>
       <r>    7.1981    1.0000 </r>
       <r>    7.7434    1.0000 </r>
       <r>    7.9720    1.0000 </r>
       <r>    8.2211    1.0000 </r>
       <r>    8.4753    1.0000 </r>
       <r>    8.5990    1.0000 </r>
       <r>    9.0603    1.0000 </r>
       <r>    9.8915    1.0000 </r>
       <r>    9.9338    1.0000 </r>
       <r>   10.7138    1.0000 </r>
       <r>   12.0963    1.0000 </r>
       <r>   12.2618    1.0000 </r>
       <r>   12.7487    1.0000 </r>
       <r>   12.8248    1.0000 </r>
       <r>   13.6666    0.0000 </r>
       <r>   14.0035    0.0000 </r>
       <r>   14.0866    0.0000 </r>
       <r>   14.2595    0.0000 </r>
       <r>   14.4378    0.0000 </r>
       <r>   14.7055    0.0000 </r>
       <r>   15.0640    0.0000 </r>
       <r>   15.0667    0.0000 </r>
       <r>   15.3752    0.0000 </r>
       <r>   16.0734    0.0000 </r>
       <r>   16.4776    0.0000 </r>
       <r>   16.6418    0.0000 </r>
       <r>   17.4194    0.0000 </r>
      </set>
      <set comment="kpoint 11">
       <r>  -49.5957    1.0000 </r>
       <r>  -49.5047    1.0000 </r>
       <r>  -49.4765    1.0000 </r>
       <r>  -49.3836    1.0000 </r>
       <r>  -23.9659    1.0000 </r>
       <r>  -23.8661    1.0000 </r>
       <r>  -23.8564    1.0000 </r>
       <r>  -23.7201    1.0000 </r>
       <r>  -23.0583    1.0000 </r>
       <r>  -22.9356    1.0000 </r>
       <r>  -22.9081    1.0000 </r>
       <r>  -22.8972    1.0000 </r>
       <r>  -22.8540    1.0000 </r>
       <r>  -22.8225    1.0000 </r>
       <r>  -22.7837    1.0000 </r>
       <r>  -22.7120    1.0000 </r>
       <r>   -1.1547    1.0000 </r>
       <r>    1.3717    1.0000 </r>
       <r>    1.6523    1.0000 </r>
       <r>    2.0717    1.0000 </r>
       <r>    3.6580    1.0000 </r>
       <r>    4.0943    1.0000 </r>
       <r>    4.8984    1.0000 </r>
       <r>    6.0300    1.0000 </r>
       <r>    6.3500    1.0000 </r>
       <r>    6.5713    1.0000 </r>
       <r>    6.6820    1.0000 </r>
       <r>    7.4295    1.0000 </r>
       <r>    7.5416    1.0000 </r>
       <r>    7.7642    1.0000 </r>
       <r>    8.0050    1.0000 </r>
       <r>    8.1779    1.0000 </r>
       <r>    8.4938    1.0000 </r>
       <r>    8.5473    1.0000 </r>
       <r>   10.1093    1.0000 </r>
       <r>   10.8392    1.0000 </r>
       <r>   10.9416    1.0000 </r>
       <r>   11.9175    1.0000 </r>
       <r>   12.4347    1.0000 </r>
       <r>   12.7118    1.0000 </r>
       <r>   13.2358    1.0000 </r>
       <r>   13.7540    0.0000 </r>
       <r>   13.8030    0.0000 </r>
       <r>   13.8787    0.0000 </r>
       <r>   14.2723    0.0000 </r>
       <r>   14.5790    0.0000 </r>
       <r>   14.6094    0.0000 </r>
       <r>   14.7863    0.0000 </r>
       <r>   14.8725    0.0000 </r>
       <r>   15.7890    0.0000 </r>
       <r>   15.9392    0.0000 </r>
       <r>   16.6396    0.0000 </r>
       <r>   17.0234    0.0000 </r>
       <r>   17.2889    0.0000 </r>
      </set>
      <set comment="kpoint 12">
       <r>  -49.6094    1.0000 </r>
       <r>  -49.4907    1.0000 </r>
       <r>  -49.4907    1.0000 </r>
       <r>  -49.3691    1.0000 </r>
       <r>  -23.9826    1.0000 </r>
       <r>  -23.9826    1.0000 </r>
       <r>  -23.8396    1.0000 </r>
       <r>  -23.8392    1.0000 </r>
       <r>  -22.9502    1.0000 </r>
       <r>  -22.9266    1.0000 </r>
       <r>  -22.9259    1.0000 </r>
       <r>  -22.8374    1.0000 </r>
       <r>  -22.8374    1.0000 </r>
       <r>  -22.7645    1.0000 </r>
       <r>  -22.7645    1.0000 </r>
       <r>  -22.6976    1.0000 </r>
       <r>   -1.4674    1.0000 </r>
       <r>    1.1921    1.0000 </r>
       <r>    1.8499    1.0000 </r>
       <r>    1.8499    1.0000 </r>
       <r>    4.3653    1.0000 </r>
       <r>    4.3653    1.0000 </r>
       <r>    5.0334    1.0000 </r>
       <r>    5.9185    1.0000 </r>
       <r>    5.9185    1.0000 </r>
       <r>    6.0919    1.0000 </r>
       <r>    7.3662    1.0000 </r>
       <r>    7.3663    1.0000 </r>
       <r>    7.8191    1.0000 </r>
       <r>    7.8453    1.0000 </r>
       <r>    7.8670    1.0000 </r>
       <r>    7.8687    1.0000 </r>
       <r>    7.9521    1.0000 </r>
       <r>    8.7564    1.0000 </r>
       <r>    9.7973    1.0000 </r>
       <r>   11.0281    1.0000 </r>
       <r>   11.0450    1.0000 </r>
       <r>   12.1147    1.0000 </r>
       <r>   12.6608    1.0000 </r>
       <r>   12.6608    1.0000 </r>
       <r>   13.1442    1.0000 </r>
       <r>   13.4957    1.0000 </r>
       <r>   14.0479    0.0000 </r>
       <r>   14.0505    0.0000 </r>
       <r>   14.0505    0.0000 </r>
       <r>   14.5653    0.0000 </r>
       <r>   14.5653    0.0000 </r>
       <r>   14.8087    0.0000 </r>
       <r>   15.0684    0.0000 </r>
       <r>   15.4265    0.0000 </r>
       <r>   16.1524    0.0000 </r>
       <r>   17.2826    0.0000 </r>
       <r>   17.2885    0.0000 </r>
       <r>   17.4106    0.0000 </r>
      </set>
      <set comment="kpoint 13">
       <r>  -49.5816    1.0000 </r>
       <r>  -49.4909    1.0000 </r>
       <r>  -49.4909    1.0000 </r>
       <r>  -49.3978    1.0000 </r>
       <r>  -23.8508    1.0000 </r>
       <r>  -23.8507    1.0000 </r>
       <r>  -23.7376    1.0000 </r>
       <r>  -23.7355    1.0000 </r>
       <r>  -23.0407    1.0000 </r>
       <r>  -23.0374    1.0000 </r>
       <r>  -22.9351    1.0000 </r>
       <r>  -22.9173    1.0000 </r>
       <r>  -22.9173    1.0000 </r>
       <r>  -22.8282    1.0000 </r>
       <r>  -22.8282    1.0000 </r>
       <r>  -22.7355    1.0000 </r>
       <r>   -0.3838    1.0000 </r>
       <r>    1.6288    1.0000 </r>
       <r>    1.6289    1.0000 </r>
       <r>    1.7502    1.0000 </r>
       <r>    3.2770    1.0000 </r>
       <r>    4.2750    1.0000 </r>
       <r>    4.2750    1.0000 </r>
       <r>    4.8131    1.0000 </r>
       <r>    6.0682    1.0000 </r>
       <r>    6.0683    1.0000 </r>
       <r>    7.8147    1.0000 </r>
       <r>    7.8147    1.0000 </r>
       <r>    8.0007    1.0000 </r>
       <r>    8.2259    1.0000 </r>
       <r>    8.2955    1.0000 </r>
       <r>    8.3170    1.0000 </r>
       <r>    8.3174    1.0000 </r>
       <r>    8.3951    1.0000 </r>
       <r>    9.9909    1.0000 </r>
       <r>   10.6224    1.0000 </r>
       <r>   10.7013    1.0000 </r>
       <r>   11.9680    1.0000 </r>
       <r>   11.9814    1.0000 </r>
       <r>   12.1443    1.0000 </r>
       <r>   12.1443    1.0000 </r>
       <r>   13.9011    0.0000 </r>
       <r>   13.9252    0.0000 </r>
       <r>   13.9256    0.0000 </r>
       <r>   15.0795    0.0000 </r>
       <r>   15.0797    0.0000 </r>
       <r>   15.2667    0.0000 </r>
       <r>   15.3291    0.0000 </r>
       <r>   15.7958    0.0000 </r>
       <r>   16.5388    0.0000 </r>
       <r>   16.5411    0.0000 </r>
       <r>   16.8916    0.0000 </r>
       <r>   17.0671    0.0000 </r>
       <r>   17.3761    0.0000 </r>
      </set>
      <set comment="kpoint 14">
       <r>  -49.5608    1.0000 </r>
       <r>  -49.5120    1.0000 </r>
       <r>  -49.4699    1.0000 </r>
       <r>  -49.4192    1.0000 </r>
       <r>  -23.8257    1.0000 </r>
       <r>  -23.7624    1.0000 </r>
       <r>  -23.6722    1.0000 </r>
       <r>  -23.5549    1.0000 </r>
       <r>  -23.2320    1.0000 </r>
       <r>  -23.1129    1.0000 </r>
       <r>  -23.0110    1.0000 </r>
       <r>  -22.9458    1.0000 </r>
       <r>  -22.9167    1.0000 </r>
       <r>  -22.8478    1.0000 </r>
       <r>  -22.8025    1.0000 </r>
       <r>  -22.7611    1.0000 </r>
       <r>    0.2665    1.0000 </r>
       <r>    0.9181    1.0000 </r>
       <r>    1.6989    1.0000 </r>
       <r>    2.0525    1.0000 </r>
       <r>    2.9952    1.0000 </r>
       <r>    4.0134    1.0000 </r>
       <r>    4.4739    1.0000 </r>
       <r>    4.6459    1.0000 </r>
       <r>    6.0931    1.0000 </r>
       <r>    6.7097    1.0000 </r>
       <r>    7.6320    1.0000 </r>
       <r>    7.6571    1.0000 </r>
       <r>    8.1747    1.0000 </r>
       <r>    8.2753    1.0000 </r>
       <r>    8.4587    1.0000 </r>
       <r>    8.4622    1.0000 </r>
       <r>    8.5625    1.0000 </r>
       <r>    8.9086    1.0000 </r>
       <r>    9.1559    1.0000 </r>
       <r>   10.1328    1.0000 </r>
       <r>   10.7811    1.0000 </r>
       <r>   11.3062    1.0000 </r>
       <r>   11.5300    1.0000 </r>
       <r>   11.9282    1.0000 </r>
       <r>   12.6363    1.0000 </r>
       <r>   13.5373    0.9406 </r>
       <r>   13.7166    0.0000 </r>
       <r>   13.8508    0.0000 </r>
       <r>   15.3364    0.0000 </r>
       <r>   15.3713    0.0000 </r>
       <r>   15.6606    0.0000 </r>
       <r>   15.6630    0.0000 </r>
       <r>   15.9165    0.0000 </r>
       <r>   16.1058    0.0000 </r>
       <r>   16.6571    0.0000 </r>
       <r>   16.9120    0.0000 </r>
       <r>   16.9951    0.0000 </r>
       <r>   17.8761    0.0000 </r>
      </set>
      <set comment="kpoint 15">
       <r>  -49.5369    1.0000 </r>
       <r>  -49.5360    1.0000 </r>
       <r>  -49.4450    1.0000 </r>
       <r>  -49.4442    1.0000 </r>
       <r>  -23.7956    1.0000 </r>
       <r>  -23.7925    1.0000 </r>
       <r>  -23.4562    1.0000 </r>
       <r>  -23.4535    1.0000 </r>
       <r>  -23.3379    1.0000 </r>
       <r>  -23.3360    1.0000 </r>
       <r>  -22.9793    1.0000 </r>
       <r>  -22.9778    1.0000 </r>
       <r>  -22.8921    1.0000 </r>
       <r>  -22.8717    1.0000 </r>
       <r>  -22.7901    1.0000 </r>
       <r>  -22.7740    1.0000 </r>
       <r>    0.1766    1.0000 </r>
       <r>    0.9665    1.0000 </r>
       <r>    1.6854    1.0000 </r>
       <r>    2.2691    1.0000 </r>
       <r>    2.9101    1.0000 </r>
       <r>    3.5002    1.0000 </r>
       <r>    4.8133    1.0000 </r>
       <r>    5.0761    1.0000 </r>
       <r>    6.3754    1.0000 </r>
       <r>    7.1289    1.0000 </r>
       <r>    7.2255    1.0000 </r>
       <r>    7.4868    1.0000 </r>
       <r>    7.7507    1.0000 </r>
       <r>    8.1860    1.0000 </r>
       <r>    8.3851    1.0000 </r>
       <r>    8.7447    1.0000 </r>
       <r>    8.9292    1.0000 </r>
       <r>    8.9846    1.0000 </r>
       <r>    9.0160    1.0000 </r>
       <r>    9.7226    1.0000 </r>
       <r>   10.9799    1.0000 </r>
       <r>   11.2293    1.0000 </r>
       <r>   11.2542    1.0000 </r>
       <r>   12.0955    1.0000 </r>
       <r>   13.1346    1.0000 </r>
       <r>   13.3699    1.0000 </r>
       <r>   13.6239    0.0000 </r>
       <r>   13.9118    0.0000 </r>
       <r>   14.5395    0.0000 </r>
       <r>   14.7385    0.0000 </r>
       <r>   15.5437    0.0000 </r>
       <r>   15.7376    0.0000 </r>
       <r>   15.8231    0.0000 </r>
       <r>   15.9160    0.0000 </r>
       <r>   16.6665    0.0000 </r>
       <r>   16.9051    0.0000 </r>
       <r>   17.1378    0.0000 </r>
       <r>   17.5018    0.0000 </r>
      </set>
      <set comment="kpoint 16">
       <r>  -49.5613    1.0000 </r>
       <r>  -49.5115    1.0000 </r>
       <r>  -49.4694    1.0000 </r>
       <r>  -49.4196    1.0000 </r>
       <r>  -23.8226    1.0000 </r>
       <r>  -23.7648    1.0000 </r>
       <r>  -23.6693    1.0000 </r>
       <r>  -23.5568    1.0000 </r>
       <r>  -23.2338    1.0000 </r>
       <r>  -23.1117    1.0000 </r>
       <r>  -23.0122    1.0000 </r>
       <r>  -22.9448    1.0000 </r>
       <r>  -22.8964    1.0000 </r>
       <r>  -22.8653    1.0000 </r>
       <r>  -22.8181    1.0000 </r>
       <r>  -22.7470    1.0000 </r>
       <r>   -0.4622    1.0000 </r>
       <r>    1.5325    1.0000 </r>
       <r>    1.5804    1.0000 </r>
       <r>    2.1448    1.0000 </r>
       <r>    3.1223    1.0000 </r>
       <r>    3.4687    1.0000 </r>
       <r>    5.2408    1.0000 </r>
       <r>    5.7081    1.0000 </r>
       <r>    6.4461    1.0000 </r>
       <r>    6.6255    1.0000 </r>
       <r>    6.7688    1.0000 </r>
       <r>    7.0647    1.0000 </r>
       <r>    7.9019    1.0000 </r>
       <r>    8.0821    1.0000 </r>
       <r>    8.4519    1.0000 </r>
       <r>    8.6015    1.0000 </r>
       <r>    8.8980    1.0000 </r>
       <r>    9.0222    1.0000 </r>
       <r>    9.2816    1.0000 </r>
       <r>    9.8017    1.0000 </r>
       <r>   10.5010    1.0000 </r>
       <r>   11.8780    1.0000 </r>
       <r>   12.0763    1.0000 </r>
       <r>   12.5203    1.0000 </r>
       <r>   12.9422    1.0000 </r>
       <r>   13.2228    1.0000 </r>
       <r>   13.5138    0.9994 </r>
       <r>   14.0149    0.0000 </r>
       <r>   14.3710    0.0000 </r>
       <r>   14.5017    0.0000 </r>
       <r>   14.6993    0.0000 </r>
       <r>   15.3737    0.0000 </r>
       <r>   15.6749    0.0000 </r>
       <r>   15.9433    0.0000 </r>
       <r>   16.4355    0.0000 </r>
       <r>   16.6241    0.0000 </r>
       <r>   16.7538    0.0000 </r>
       <r>   17.4641    0.0000 </r>
      </set>
      <set comment="kpoint 17">
       <r>  -49.5820    1.0000 </r>
       <r>  -49.4906    1.0000 </r>
       <r>  -49.4906    1.0000 </r>
       <r>  -49.3981    1.0000 </r>
       <r>  -23.8482    1.0000 </r>
       <r>  -23.8482    1.0000 </r>
       <r>  -23.7392    1.0000 </r>
       <r>  -23.7371    1.0000 </r>
       <r>  -23.0416    1.0000 </r>
       <r>  -23.0384    1.0000 </r>
       <r>  -22.9187    1.0000 </r>
       <r>  -22.9166    1.0000 </r>
       <r>  -22.9165    1.0000 </r>
       <r>  -22.8406    1.0000 </r>
       <r>  -22.8406    1.0000 </r>
       <r>  -22.7253    1.0000 </r>
       <r>   -0.9214    1.0000 </r>
       <r>    1.4518    1.0000 </r>
       <r>    1.8638    1.0000 </r>
       <r>    1.8638    1.0000 </r>
       <r>    3.6112    1.0000 </r>
       <r>    3.6112    1.0000 </r>
       <r>    5.5428    1.0000 </r>
       <r>    5.8858    1.0000 </r>
       <r>    6.4633    1.0000 </r>
       <r>    6.5006    1.0000 </r>
       <r>    6.5008    1.0000 </r>
       <r>    6.8348    1.0000 </r>
       <r>    7.8141    1.0000 </r>
       <r>    7.8142    1.0000 </r>
       <r>    8.1021    1.0000 </r>
       <r>    8.7324    1.0000 </r>
       <r>    8.7326    1.0000 </r>
       <r>    8.8045    1.0000 </r>
       <r>    9.9045    1.0000 </r>
       <r>   10.1311    1.0000 </r>
       <r>   10.4833    1.0000 </r>
       <r>   12.5126    1.0000 </r>
       <r>   12.5126    1.0000 </r>
       <r>   12.9140    1.0000 </r>
       <r>   12.9568    1.0000 </r>
       <r>   13.1676    1.0000 </r>
       <r>   13.1676    1.0000 </r>
       <r>   13.4109    1.0000 </r>
       <r>   14.2987    0.0000 </r>
       <r>   14.8783    0.0000 </r>
       <r>   14.9234    0.0000 </r>
       <r>   15.1484    0.0000 </r>
       <r>   15.1484    0.0000 </r>
       <r>   16.2691    0.0000 </r>
       <r>   16.3913    0.0000 </r>
       <r>   16.3917    0.0000 </r>
       <r>   16.9185    0.0000 </r>
       <r>   16.9436    0.0000 </r>
      </set>
      <set comment="kpoint 18">
       <r>  -49.5399    1.0000 </r>
       <r>  -49.4911    1.0000 </r>
       <r>  -49.4911    1.0000 </r>
       <r>  -49.4405    1.0000 </r>
[...]
       <r>    1.6710    1.0000 </r>
       <r>    2.0065    1.0000 </r>
       <r>    3.7764    1.0000 </r>
       <r>    3.8989    1.0000 </r>
       <r>    4.0621    1.0000 </r>
       <r>    5.1713    1.0000 </r>
       <r>    6.0934    1.0000 </r>
       <r>    6.6525    1.0000 </r>
       <r>    7.5643    1.0000 </r>
       <r>    7.6006    1.0000 </r>
       <r>    7.9049    1.0000 </r>
       <r>    7.9416    1.0000 </r>
       <r>    8.1477    1.0000 </r>
       <r>    8.4801    1.0000 </r>
       <r>    8.5599    1.0000 </r>
       <r>    8.6489    1.0000 </r>
       <r>    9.8503    1.0000 </r>
       <r>   10.2388    1.0000 </r>
       <r>   10.7229    1.0000 </r>
       <r>   11.9973    1.0000 </r>
       <r>   12.1238    1.0000 </r>
       <r>   12.2759    1.0000 </r>
       <r>   12.2964    1.0000 </r>
       <r>   14.2093    0.0000 </r>
       <r>   14.2626    0.0000 </r>
       <r>   14.2807    0.0000 </r>
       <r>   14.5308    0.0000 </r>
       <r>   14.5392    0.0000 </r>
       <r>   14.7762    0.0000 </r>
       <r>   15.1990    0.0000 </r>
       <r>   15.2493    0.0000 </r>
       <r>   15.6062    0.0000 </r>
       <r>   16.5554    0.0000 </r>
       <r>   16.9514    0.0000 </r>
       <r>   17.1916    0.0000 </r>
       <r>   17.4767    0.0000 </r>
      </set>
      <set comment="kpoint 165">
       <r>  -49.5603    1.0000 </r>
       <r>  -49.4906    1.0000 </r>
       <r>  -49.4906    1.0000 </r>
       <r>  -49.4206    1.0000 </r>
       <r>  -23.7422    1.0000 </r>
       <r>  -23.7421    1.0000 </r>
       <r>  -23.6591    1.0000 </r>
       <r>  -23.6556    1.0000 </r>
       <r>  -23.1298    1.0000 </r>
       <r>  -23.1250    1.0000 </r>
       <r>  -23.0341    1.0000 </r>
       <r>  -23.0340    1.0000 </r>
       <r>  -22.8989    1.0000 </r>
       <r>  -22.8388    1.0000 </r>
       <r>  -22.8388    1.0000 </r>
       <r>  -22.7505    1.0000 </r>
       <r>   -0.3619    1.0000 </r>
       <r>    1.6069    1.0000 </r>
       <r>    1.7098    1.0000 </r>
       <r>    1.7099    1.0000 </r>
       <r>    3.5863    1.0000 </r>
       <r>    3.5864    1.0000 </r>
       <r>    4.6771    1.0000 </r>
       <r>    5.2635    1.0000 </r>
       <r>    6.7027    1.0000 </r>
       <r>    6.7027    1.0000 </r>
       <r>    7.0516    1.0000 </r>
       <r>    7.0896    1.0000 </r>
       <r>    8.2201    1.0000 </r>
       <r>    8.2202    1.0000 </r>
       <r>    8.2674    1.0000 </r>
       <r>    8.6221    1.0000 </r>
       <r>    8.8392    1.0000 </r>
       <r>    8.9699    1.0000 </r>
       <r>    8.9699    1.0000 </r>
       <r>    9.9172    1.0000 </r>
       <r>   10.4324    1.0000 </r>
       <r>   11.6083    1.0000 </r>
       <r>   11.6083    1.0000 </r>
       <r>   12.1073    1.0000 </r>
       <r>   13.3016    1.0000 </r>
       <r>   13.7017    0.0000 </r>
       <r>   13.7017    0.0000 </r>
       <r>   14.3810    0.0000 </r>
       <r>   14.4564    0.0000 </r>
       <r>   15.0689    0.0000 </r>
       <r>   15.0689    0.0000 </r>
       <r>   15.1686    0.0000 </r>
       <r>   15.2016    0.0000 </r>
       <r>   16.0892    0.0000 </r>
       <r>   16.1822    0.0000 </r>
       <r>   16.1822    0.0000 </r>
       <r>   17.2782    0.0000 </r>
       <r>   17.2784    0.0000 </r>
      </set>
     </set>
    </set>
   </array>
  </eigenvalues>
  <separator name="orbital magnetization" >
   <v name="MAGDIPOLOUT">      0.00000000      0.00000000      0.00000000</v>
  </separator>
  <dos>
   <i name="efermi">     13.55941049 </i>
   <total>
    <array>
     <dimension dim="1">gridpoints</dimension>
     <dimension dim="2">spin</dimension>
     <field>energy</field>
     <field>total</field>
     <field>integrated</field>
     <set>
      <set comment="spin 1">
       <r>   -53.0563     0.0000     0.0000 </r>
       <r>   -52.8042     0.0000     0.0000 </r>
       <r>   -52.5522     0.0000     0.0000 </r>
       <r>   -52.3001     0.0000     0.0000 </r>
       <r>   -52.0480     0.0000     0.0000 </r>
       <r>   -51.7960     0.0000     0.0000 </r>
       <r>   -51.5439     0.0000     0.0000 </r>
       <r>   -51.2918     0.0000     0.0000 </r>
       <r>   -51.0398     0.0000     0.0000 </r>
       <r>   -50.7877     0.0000     0.0000 </r>
       <r>   -50.5356     0.0000     0.0000 </r>
       <r>   -50.2835     0.0000     0.0000 </r>
       <r>   -50.0315     0.0000     0.0000 </r>
       <r>   -49.7794     0.0000     0.0000 </r>
       <r>   -49.5273     9.3624     2.3600 </r>
       <r>   -49.2753     6.9288     8.0000 </r>
       <r>   -49.0232     0.0000     8.0000 </r>
       <r>   -48.7711     0.0000     8.0000 </r>
       <r>   -48.5191     0.0000     8.0000 </r>
       <r>   -48.2670     0.0000     8.0000 </r>
       <r>   -48.0149     0.0000     8.0000 </r>
       <r>   -47.7629     0.0000     8.0000 </r>
       <r>   -47.5108     0.0000     8.0000 </r>
       <r>   -47.2587     0.0000     8.0000 </r>
       <r>   -47.0067     0.0000     8.0000 </r>
       <r>   -46.7546     0.0000     8.0000 </r>
       <r>   -46.5025     0.0000     8.0000 </r>
       <r>   -46.2505     0.0000     8.0000 </r>
       <r>   -45.9984     0.0000     8.0000 </r>
       <r>   -45.7463     0.0000     8.0000 </r>
       <r>   -45.4942     0.0000     8.0000 </r>
       <r>   -45.2422     0.0000     8.0000 </r>
       <r>   -44.9901     0.0000     8.0000 </r>
       <r>   -44.7380     0.0000     8.0000 </r>
       <r>   -44.4860     0.0000     8.0000 </r>
       <r>   -44.2339     0.0000     8.0000 </r>
       <r>   -43.9818     0.0000     8.0000 </r>
       <r>   -43.7298     0.0000     8.0000 </r>
       <r>   -43.4777     0.0000     8.0000 </r>
       <r>   -43.2256     0.0000     8.0000 </r>
       <r>   -42.9736     0.0000     8.0000 </r>
       <r>   -42.7215     0.0000     8.0000 </r>
       <r>   -42.4694     0.0000     8.0000 </r>
       <r>   -42.2174     0.0000     8.0000 </r>
       <r>   -41.9653     0.0000     8.0000 </r>
       <r>   -41.7132     0.0000     8.0000 </r>
       <r>   -41.4612     0.0000     8.0000 </r>
       <r>   -41.2091     0.0000     8.0000 </r>
       <r>   -40.9570     0.0000     8.0000 </r>
       <r>   -40.7049     0.0000     8.0000 </r>
       <r>   -40.4529     0.0000     8.0000 </r>
       <r>   -40.2008     0.0000     8.0000 </r>
       <r>   -39.9487     0.0000     8.0000 </r>
       <r>   -39.6967     0.0000     8.0000 </r>
       <r>   -39.4446     0.0000     8.0000 </r>
       <r>   -39.1925     0.0000     8.0000 </r>
       <r>   -38.9405     0.0000     8.0000 </r>
       <r>   -38.6884     0.0000     8.0000 </r>
       <r>   -38.4363     0.0000     8.0000 </r>
       <r>   -38.1843     0.0000     8.0000 </r>
       <r>   -37.9322     0.0000     8.0000 </r>
       <r>   -37.6801     0.0000     8.0000 </r>
       <r>   -37.4281     0.0000     8.0000 </r>
       <r>   -37.1760     0.0000     8.0000 </r>
       <r>   -36.9239     0.0000     8.0000 </r>
       <r>   -36.6718     0.0000     8.0000 </r>
       <r>   -36.4198     0.0000     8.0000 </r>
       <r>   -36.1677     0.0000     8.0000 </r>
       <r>   -35.9156     0.0000     8.0000 </r>
       <r>   -35.6636     0.0000     8.0000 </r>
       <r>   -35.4115     0.0000     8.0000 </r>
       <r>   -35.1594     0.0000     8.0000 </r>
       <r>   -34.9074     0.0000     8.0000 </r>
       <r>   -34.6553     0.0000     8.0000 </r>
       <r>   -34.4032     0.0000     8.0000 </r>
       <r>   -34.1512     0.0000     8.0000 </r>
       <r>   -33.8991     0.0000     8.0000 </r>
       <r>   -33.6470     0.0000     8.0000 </r>
       <r>   -33.3950     0.0000     8.0000 </r>
       <r>   -33.1429     0.0000     8.0000 </r>
       <r>   -32.8908     0.0000     8.0000 </r>
       <r>   -32.6388     0.0000     8.0000 </r>
       <r>   -32.3867     0.0000     8.0000 </r>
       <r>   -32.1346     0.0000     8.0000 </r>
       <r>   -31.8825     0.0000     8.0000 </r>
       <r>   -31.6305     0.0000     8.0000 </r>
       <r>   -31.3784     0.0000     8.0000 </r>
       <r>   -31.1263     0.0000     8.0000 </r>
       <r>   -30.8743     0.0000     8.0000 </r>
       <r>   -30.6222     0.0000     8.0000 </r>
       <r>   -30.3701     0.0000     8.0000 </r>
       <r>   -30.1181     0.0000     8.0000 </r>
       <r>   -29.8660     0.0000     8.0000 </r>
       <r>   -29.6139     0.0000     8.0000 </r>
       <r>   -29.3619     0.0000     8.0000 </r>
       <r>   -29.1098     0.0000     8.0000 </r>
       <r>   -28.8577     0.0000     8.0000 </r>
       <r>   -28.6057     0.0000     8.0000 </r>
       <r>   -28.3536     0.0000     8.0000 </r>
       <r>   -28.1015     0.0000     8.0000 </r>
       <r>   -27.8494     0.0000     8.0000 </r>
       <r>   -27.5974     0.0000     8.0000 </r>
       <r>   -27.3453     0.0000     8.0000 </r>
       <r>   -27.0932     0.0000     8.0000 </r>
       <r>   -26.8412     0.0000     8.0000 </r>
       <r>   -26.5891     0.0000     8.0000 </r>
       <r>   -26.3370     0.0000     8.0000 </r>
       <r>   -26.0850     0.0000     8.0000 </r>
       <r>   -25.8329     0.0000     8.0000 </r>
       <r>   -25.5808     0.0000     8.0000 </r>
       <r>   -25.3288     0.0000     8.0000 </r>
       <r>   -25.0767     0.0000     8.0000 </r>
       <r>   -24.8246     0.0000     8.0000 </r>
       <r>   -24.5726     0.0000     8.0000 </r>
       <r>   -24.3205     0.0000     8.0000 </r>
       <r>   -24.0684     0.0011     8.0003 </r>
       <r>   -23.8164    11.3809    11.6118 </r>
       <r>   -23.5643     6.6430    14.4662 </r>
       <r>   -23.3122     5.5760    16.7389 </r>
       <r>   -23.0601     6.0597    19.1247 </r>
       <r>   -22.8081    29.2465    27.7610 </r>
       <r>   -22.5560     1.6117    32.0000 </r>
       <r>   -22.3039     0.0000    32.0000 </r>
       <r>   -22.0519     0.0000    32.0000 </r>
       <r>   -21.7998     0.0000    32.0000 </r>
       <r>   -21.5477     0.0000    32.0000 </r>
       <r>   -21.2957     0.0000    32.0000 </r>
       <r>   -21.0436     0.0000    32.0000 </r>
       <r>   -20.7915     0.0000    32.0000 </r>
       <r>   -20.5395     0.0000    32.0000 </r>
       <r>   -20.2874     0.0000    32.0000 </r>
       <r>   -20.0353     0.0000    32.0000 </r>
       <r>   -19.7833     0.0000    32.0000 </r>
       <r>   -19.5312     0.0000    32.0000 </r>
       <r>   -19.2791     0.0000    32.0000 </r>
       <r>   -19.0271     0.0000    32.0000 </r>
       <r>   -18.7750     0.0000    32.0000 </r>
       <r>   -18.5229     0.0000    32.0000 </r>
       <r>   -18.2708     0.0000    32.0000 </r>
       <r>   -18.0188     0.0000    32.0000 </r>
       <r>   -17.7667     0.0000    32.0000 </r>
       <r>   -17.5146     0.0000    32.0000 </r>
       <r>   -17.2626     0.0000    32.0000 </r>
       <r>   -17.0105     0.0000    32.0000 </r>
       <r>   -16.7584     0.0000    32.0000 </r>
       <r>   -16.5064     0.0000    32.0000 </r>
       <r>   -16.2543     0.0000    32.0000 </r>
       <r>   -16.0022     0.0000    32.0000 </r>
       <r>   -15.7502     0.0000    32.0000 </r>
       <r>   -15.4981     0.0000    32.0000 </r>
       <r>   -15.2460     0.0000    32.0000 </r>
       <r>   -14.9940     0.0000    32.0000 </r>
       <r>   -14.7419     0.0000    32.0000 </r>
       <r>   -14.4898     0.0000    32.0000 </r>
       <r>   -14.2377     0.0000    32.0000 </r>
       <r>   -13.9857     0.0000    32.0000 </r>
       <r>   -13.7336     0.0000    32.0000 </r>
       <r>   -13.4815     0.0000    32.0000 </r>
       <r>   -13.2295     0.0000    32.0000 </r>
       <r>   -12.9774     0.0000    32.0000 </r>
       <r>   -12.7253     0.0000    32.0000 </r>
       <r>   -12.4733     0.0000    32.0000 </r>
       <r>   -12.2212     0.0000    32.0000 </r>
       <r>   -11.9691     0.0000    32.0000 </r>
       <r>   -11.7171     0.0000    32.0000 </r>
       <r>   -11.4650     0.0000    32.0000 </r>
       <r>   -11.2129     0.0000    32.0000 </r>
       <r>   -10.9609     0.0000    32.0000 </r>
       <r>   -10.7088     0.0000    32.0000 </r>
       <r>   -10.4567     0.0000    32.0000 </r>
       <r>   -10.2047     0.0000    32.0000 </r>
       <r>    -9.9526     0.0000    32.0000 </r>
       <r>    -9.7005     0.0000    32.0000 </r>
       <r>    -9.4484     0.0000    32.0000 </r>
       <r>    -9.1964     0.0000    32.0000 </r>
       <r>    -8.9443     0.0000    32.0000 </r>
       <r>    -8.6922     0.0000    32.0000 </r>
       <r>    -8.4402     0.0000    32.0000 </r>
       <r>    -8.1881     0.0000    32.0000 </r>
       <r>    -7.9360     0.0000    32.0000 </r>
       <r>    -7.6840     0.0000    32.0000 </r>
       <r>    -7.4319     0.0000    32.0000 </r>
       <r>    -7.1798     0.0000    32.0000 </r>
       <r>    -6.9278     0.0000    32.0000 </r>
       <r>    -6.6757     0.0000    32.0000 </r>
       <r>    -6.4236     0.0000    32.0000 </r>
       <r>    -6.1716     0.0000    32.0000 </r>
       <r>    -5.9195     0.0000    32.0000 </r>
       <r>    -5.6674     0.0000    32.0000 </r>
       <r>    -5.4154     0.0000    32.0000 </r>
       <r>    -5.1633     0.0000    32.0000 </r>
       <r>    -4.9112     0.0000    32.0000 </r>
       <r>    -4.6591     0.0000    32.0000 </r>
       <r>    -4.4071     0.0000    32.0000 </r>
       <r>    -4.1550     0.0000    32.0000 </r>
       <r>    -3.9029     0.0000    32.0000 </r>
       <r>    -3.6509     0.0000    32.0000 </r>
       <r>    -3.3988     0.0000    32.0000 </r>
       <r>    -3.1467     0.0000    32.0000 </r>
       <r>    -2.8947     0.0000    32.0000 </r>
       <r>    -2.6426     0.0000    32.0000 </r>
       <r>    -2.3905     0.0000    32.0000 </r>
       <r>    -2.1385     0.0000    32.0000 </r>
       <r>    -1.8864     0.0000    32.0000 </r>
       <r>    -1.6343     0.0130    32.0033 </r>
       <r>    -1.3823     0.1590    32.0574 </r>
       <r>    -1.1302     0.4229    32.2003 </r>
       <r>    -0.8781     0.3490    32.3067 </r>
       <r>    -0.6260     0.5330    32.5267 </r>
       <r>    -0.3740     0.4028    32.6814 </r>
       <r>    -0.1219     0.8162    33.0009 </r>
       <r>     0.1302     0.7355    33.2375 </r>
       <r>     0.3822     0.7812    33.5129 </r>
       <r>     0.6343     0.9447    33.9777 </r>
       <r>     0.8864     0.8870    34.3034 </r>
       <r>     1.1384     1.5337    34.8970 </r>
       <r>     1.3905     1.9921    35.6688 </r>
       <r>     1.6426     2.9302    36.7178 </r>
       <r>     1.8946     3.6630    38.0692 </r>
       <r>     2.1467     2.5181    39.1695 </r>
       <r>     2.3988     2.5251    40.1504 </r>
       <r>     2.6508     1.1556    40.6316 </r>
       <r>     2.9029     0.5895    40.8569 </r>
       <r>     3.1550     0.8413    41.2468 </r>
       <r>     3.4070     1.1742    41.7265 </r>
       <r>     3.6591     1.4062    42.2364 </r>
       <r>     3.9112     1.6425    42.9140 </r>
       <r>     4.1633     1.3839    43.4808 </r>
       <r>     4.4153     2.3277    44.3298 </r>
       <r>     4.6674     2.1498    45.2294 </r>
       <r>     4.9195     1.8761    45.8896 </r>
       <r>     5.1715     2.3508    46.8808 </r>
       <r>     5.4236     1.7772    47.5834 </r>
       <r>     5.6757     1.6464    48.2310 </r>
       <r>     5.9277     1.9315    48.9695 </r>
       <r>     6.1798     1.6591    49.5606 </r>
       <r>     6.4319     2.4048    50.3978 </r>
       <r>     6.6839     1.5047    51.0946 </r>
       <r>     6.9360     1.7727    51.9052 </r>
       <r>     7.1881     3.5103    53.2668 </r>
       <r>     7.4401     5.0720    55.1327 </r>
       <r>     7.6922     5.3257    57.0299 </r>
       <r>     7.9443     4.2991    58.9170 </r>
       <r>     8.1964     5.7007    61.1210 </r>
       <r>     8.4484     3.7604    62.8194 </r>
       <r>     8.7005     6.4019    64.9852 </r>
       <r>     8.9526     3.3845    66.4121 </r>
       <r>     9.2046     2.4373    67.5935 </r>
       <r>     9.4567     1.6655    68.3365 </r>
       <r>     9.7088     1.6842    68.9245 </r>
       <r>     9.9608     1.6048    69.6129 </r>
       <r>    10.2129     1.9740    70.3934 </r>
       <r>    10.4650     2.1031    71.1690 </r>
       <r>    10.7170     2.1024    71.9605 </r>
       <r>    10.9691     2.6604    72.8511 </r>
       <r>    11.2212     2.4822    73.9972 </r>
       <r>    11.4732     1.7685    74.8173 </r>
       <r>    11.7253     2.3515    75.7559 </r>
       <r>    11.9774     1.8863    76.4998 </r>
       <r>    12.2294     2.8038    77.5574 </r>
       <r>    12.4815     2.5616    78.5450 </r>
       <r>    12.7336     3.1482    79.8804 </r>
       <r>    12.9857     3.8455    81.3165 </r>
       <r>    13.2377     2.8015    82.4076 </r>
       <r>    13.4898     2.9939    83.6088 </r>
       <r>    13.7419     4.0978    85.1579 </r>
       <r>    13.9939     3.5846    86.4383 </r>
       <r>    14.2460     3.0936    87.9534 </r>
       <r>    14.4981     3.5360    89.4226 </r>
       <r>    14.7501     3.5922    90.9784 </r>
       <r>    15.0022     2.9756    92.2188 </r>
       <r>    15.2543     3.6738    93.6726 </r>
       <r>    15.5063     3.9197    95.2276 </r>
       <r>    15.7584     4.4619    96.8921 </r>
       <r>    16.0105     4.3344    98.6030 </r>
       <r>    16.2625     3.3472   100.1319 </r>
       <r>    16.5146     4.4033   101.8356 </r>
       <r>    16.7667     3.3744   103.3888 </r>
       <r>    17.0187     2.4412   104.3758 </r>
       <r>    17.2708     3.0131   105.4158 </r>
       <r>    17.5229     2.4843   106.3866 </r>
       <r>    17.7750     1.6024   106.9838 </r>
       <r>    18.0270     1.4398   107.4740 </r>
       <r>    18.2791     0.8245   107.8085 </r>
       <r>    18.5312     0.0551   107.8681 </r>
       <r>    18.7832     0.2966   107.9428 </r>
       <r>    19.0353     0.1370   107.9859 </r>
       <r>    19.2874     0.0000   108.0000 </r>
       <r>    19.5394     0.0000   108.0000 </r>
       <r>    19.7915     0.0000   108.0000 </r>
       <r>    20.0436     0.0000   108.0000 </r>
       <r>    20.2956     0.0000   108.0000 </r>
       <r>    20.5477     0.0000   108.0000 </r>
       <r>    20.7998     0.0000   108.0000 </r>
       <r>    21.0518     0.0000   108.0000 </r>
       <r>    21.3039     0.0000   108.0000 </r>
       <r>    21.5560     0.0000   108.0000 </r>
       <r>    21.8081     0.0000   108.0000 </r>
       <r>    22.0601     0.0000   108.0000 </r>
       <r>    22.3122     0.0000   108.0000 </r>
       <r>    22.5643     0.0000   108.0000 </r>
      </set>
     </set>
    </array>
   </total>
  </dos>
 </calculation>
 <structure name="finalpos" >
  <crystal>
   <varray name="basis" >
    <v>       4.82260035       0.00000000      -2.91963531 </v>
    <v>      -1.53182628       4.57285276      -2.91963531 </v>
    <v>       0.00000000       0.00000000       5.63753000 </v>
   </varray>
   <i name="volume">    124.32468219 </i>
   <varray name="rec_basis" >
    <v>       0.20735701       0.06946100       0.00000000 </v>
    <v>       0.00000000       0.21868187       0.00000000 </v>
    <v>       0.10738867       0.14922707       0.17738265 </v>
   </varray>
  </crystal>
  <varray name="positions" >
   <v>       0.75030000       0.25030000       0.00061000 </v>
   <v>       0.24970000       0.74970000       0.99939000 </v>
   <v>       0.25030000       0.24970000       0.50000000 </v>
   <v>       0.74970000       0.75030000       0.50000000 </v>
   <v>       0.50000000       0.50000000       0.00000000 </v>
   <v>       0.00000000       0.50000000       0.50000000 </v>
   <v>       0.50000000       0.00000000       0.50000000 </v>
   <v>       0.00000000       0.00000000       0.00000000 </v>
   <v>       0.00000000       0.00000000       0.50000000 </v>
   <v>       0.00000000       0.50000000       0.00000000 </v>
   <v>       0.50000000       0.50000000       0.50000000 </v>
   <v>       0.50000000       0.00000000       0.00000000 </v>
  </varray>
 </structure>
</modeling>
